INSANE! Membrane UpperLeaflet>loPI:POPI:DPPI:PYPI:ERGO=30.0:5.0:3.0:2.0:10.0 LowerLeaflet>PSPI:POPI:POPS:YOPS:POPE:YOPE:POPC:YOPC:ERGO=6.0:14.0:21.0:9.0:9.0:21.0:12.0:48.0:60.0
49074
    1loPI    C1    1  17.834   5.002   9.587  0.2460 -0.0745 -0.0993
    1loPI    C2    2  17.964   5.377   9.533 -0.1117  0.0466 -0.1472
    1loPI    C3    3  18.057   5.179   9.868  0.0006  0.2113 -0.0798
    1loPI   PO4    4  17.573   5.083   9.507  0.0493 -0.0502  0.0288
    1loPI   GL1    5  17.359   5.025   9.126  0.1801  0.3358  0.4614
    1loPI   GL2    6  16.971   4.994   8.982 -0.2393  0.3991  0.0307
    1loPI   C1A    7  17.392   5.140   8.624 -0.0226  0.0509 -0.3442
    1loPI   C2A    8  17.522   4.859   8.374 -0.2039  0.2953 -0.2743
    1loPI   C3A    9  17.613   4.721   7.945  0.2158  0.2277 -0.0761
    1loPI   C4A   10  17.689   4.396   7.637 -0.0286  0.0178  0.0839
    1loPI   C5A   11  17.689   4.420   7.201  0.2145 -0.0100 -0.0640
    1loPI   C6A   12  17.603   4.687   6.725 -0.0821  0.0751  0.3925
    1loPI   C1B   13  16.973   4.926   8.507 -0.1120  0.0070  0.1831
    1loPI   C2B   14  16.724   4.699   8.278 -0.2253 -0.2090 -0.4236
    1loPI   C3B   15  16.352   4.630   7.960  0.0656  0.1000 -0.0212
    1loPI   C4B   16  16.217   4.292   7.665  0.1177  0.0997 -0.1855
    2loPI    C1   17   6.975   2.559  10.284 -0.2596  0.0103 -0.1720
    2loPI    C2   18   7.320   2.380  10.189 -0.0895 -0.0096  0.4374
    2loPI    C3   19   7.065   2.202  10.439 -0.3586  0.1866  0.3085
    2loPI   PO4   20   7.011   2.976  10.292 -0.1923  0.1214 -0.2042
    2loPI   GL1   21   7.132   3.081   9.812 -0.1531 -0.3489 -0.1985
    2loPI   GL2   22   7.057   2.754   9.775  0.0858  0.1356 -0.0483
    2loPI   C1A   23   7.347   2.986   9.416  0.2491 -0.0163  0.2778
    2loPI   C2A   24   7.316   2.842   9.025 -0.3654  0.0987 -0.0844
    2loPI   C3A   25   7.350   2.689   8.634 -0.3555  0.0347 -0.0874
    2loPI   C4A   26   7.317   2.812   8.275 -0.2819 -0.1193  0.0667
    2loPI   C5A   27   7.350   2.689   7.879  0.2631  0.4334 -0.0407
    2loPI   C6A   28   7.421   2.629   7.448 -0.0486  0.0305  0.2549
    2loPI   C1B   29   7.233   2.441   9.372  0.0959 -0.0268 -0.5082
    2loPI   C2B   30   7.201   2.310   9.030  0.1550 -0.1232 -0.3351
    2loPI   C3B   31   7.015   1.985   8.883  0.1849  0.2009 -0.1227
    2loPI   C4B   32   7.128   1.426   8.822  0.1189  0.1641 -0.3036
    3loPI    C1   33  17.579   4.522   9.883  0.0068  0.0039 -0.0546
    3loPI    C2   34  17.361   4.856   9.897 -0.0666 -0.0381 -0.1791
    3loPI    C3   35  17.230   4.525  10.079  0.1977  0.1066  0.2917
    3loPI   PO4   36  17.655   4.531   9.526  0.0528  0.0027 -0.1431
    3loPI   GL1   37  17.369   4.401   9.138  0.1928  0.0159  0.1265
    3loPI   GL2   38  17.441   4.156   9.173  0.1402 -0.1423 -0.1207
    3loPI   C1A   39  17.481   4.532   8.763  0.1703 -0.4046 -0.1133
    3loPI   C2A   40  17.492   4.292   8.365  0.0685  0.1665 -0.2972
    3loPI   C3A   41  17.235   4.204   7.917 -0.4076  0.1703  0.2736
    3loPI   C4A   42  17.280   4.058   7.539  0.0328 -0.1488  0.0601
    3loPI   C5A   43  16.942   4.235   7.228 -0.2213  0.2014 -0.3915
    3loPI   C6A   44  16.613   4.510   7.221 -0.0222 -0.0342 -0.1578
    3loPI   C1B   45  17.478   3.961   8.790 -0.2575  0.1214  0.1368
    3loPI   C2B   46  17.291   3.831   8.444 -0.0953 -0.1337 -0.1422
    3loPI   C3B   47  17.228   3.717   8.014 -0.0508  0.0453  0.2909
    3loPI   C4B   48  17.067   3.512   7.656  0.1497 -0.2629 -0.0124
    4loPI    C1   49  13.840  14.825  10.039  0.1314 -0.1835 -0.2132
    4loPI    C2   50  13.628  14.723  10.362  0.1116  0.0843 -0.1394
    4loPI    C3   51  13.682  14.458  10.067 -0.0697 -0.0845 -0.0239
    4loPI   PO4   52  13.705  15.070   9.979  0.0986  0.3679 -0.0503
    4loPI   GL1   53  13.476  15.165   9.642  0.1557 -0.3010  0.3096
    4loPI   GL2   54  13.211  15.331   9.839 -0.1416  0.3199  0.2404
    4loPI   C1A   55  13.401  15.149   9.166  0.1462 -0.1559  0.0839
    4loPI   C2A   56  13.309  15.235   8.752 -0.0771  0.2590 -0.1007
    4loPI   C3A   57  13.097  15.423   8.467 -0.1439  0.2729 -0.0068
    4loPI   C4A   58  13.259  15.559   8.056  0.5416 -0.0316  0.0904
    4loPI   C5A   59  13.400  15.817   7.730  0.3164  0.1102 -0.1137
    4loPI   C6A   60  13.422  16.168   7.390  0.0954 -0.1323 -0.0804
    4loPI   C1B   61  12.981  15.367   9.419 -0.0389  0.0969 -0.0104
    4loPI   C2B   62  12.870  15.270   9.121  0.1673 -0.1861 -0.0998
    4loPI   C3B   63  12.791  15.080   8.795 -0.2757 -0.0740  0.2394
    4loPI   C4B   64  12.744  15.093   8.358 -0.1545 -0.1083  0.0613
    5loPI    C1   65   1.963   1.975  10.111 -0.0229 -0.2554 -0.0463
    5loPI    C2   66   2.154   1.985  10.463  0.1380  0.1201 -0.1399
    5loPI    C3   67   1.827   2.209  10.406  0.0728  0.0085 -0.2085
    5loPI   PO4   68   2.226   1.909   9.960  0.0137  0.0088  0.2403
    5loPI   GL1   69   2.348   2.095   9.511 -0.4631  0.1480  0.0152
    5loPI   GL2   70   2.134   2.158   9.330  0.1212 -0.0917  0.0906
    5loPI   C1A   71   2.426   1.810   9.160  0.4445  0.1376 -0.1677
    5loPI   C2A   72   2.070   1.458   9.029 -0.0651 -0.0694  0.0269
    5loPI   C3A   73   2.051   1.444   8.631 -0.0804  0.0227  0.0109
    5loPI   C4A   74   2.068   1.638   8.195 -0.1458  0.0422  0.1344
    5loPI   C5A   75   2.083   1.459   7.793  0.2706  0.2080 -0.1128
    5loPI   C6A   76   2.295   1.520   7.479 -0.0120 -0.0210 -0.1242
    5loPI   C1B   77   2.468   2.356   9.113 -0.3857  0.1554  0.2080
    5loPI   C2B   78   2.497   2.695   8.646 -0.4107  0.0689  0.1184
    5loPI   C3B   79   2.349   2.447   8.398 -0.0162  0.2858  0.1233
    5loPI   C4B   80   2.182   2.213   8.077  0.2401 -0.0698 -0.2740
    6loPI    C1   81  18.958   6.473   9.993  0.2147 -0.0386  0.0922
    6loPI    C2   82  18.778   6.197  10.219  0.1184 -0.0254  0.0315
    6loPI    C3   83  18.702   6.585  10.279 -0.2169 -0.0362 -0.2843
    6loPI   PO4   84  18.914   6.504   9.778  0.0087  0.0437  0.1329
    6loPI   GL1   85  19.089   6.282   9.379  0.1353  0.2750  0.0212
    6loPI   GL2   86  18.736   6.258   9.170  0.2225 -0.2548 -0.2464
    6loPI   C1A   87  19.218   6.452   9.073  0.0098 -0.1359  0.0951
    6loPI   C2A   88  19.208   6.428   8.641  0.1287  0.0387  0.1352
    6loPI   C3A   89  19.304   6.429   8.203  0.2004  0.0158 -0.4076
    6loPI   C4A   90  19.563   6.145   7.999 -0.0450  0.0253 -0.2515
    6loPI   C5A   91  19.737   5.960   7.683  0.2722  0.1941 -0.0967
    6loPI   C6A   92  20.114   5.840   7.343 -0.1259  0.0210 -0.2024
    6loPI   C1B   93  18.788   6.203   8.724  0.4207  0.0084 -0.0863
    6loPI   C2B   94  18.808   6.285   8.291  0.0133  0.1523  0.0704
    6loPI   C3B   95  18.903   6.139   7.848  0.3125 -0.2047 -0.0076
    6loPI   C4B   96  19.225   5.992   7.510 -0.0365  0.0219  0.1317
    7loPI    C1   97   2.587  17.964  10.114 -0.1003  0.1283 -0.0867
    7loPI    C2   98   2.238  17.824  10.249  0.0067  0.0212  0.0822
    7loPI    C3   99   2.459  18.065  10.479 -0.0438  0.2422 -0.0981
    7loPI   PO4  100   2.582  18.012   9.852  0.1184  0.0572  0.0204
    7loPI   GL1  101   2.555  17.847   9.445 -0.2530  0.0035 -0.0810
    7loPI   GL2  102   2.779  17.989   9.267 -0.2597 -0.0855  0.0819
    7loPI   C1A  103   2.622  17.519   9.062 -0.2786 -0.0558  0.3112
    7loPI   C2A  104   2.960  17.283   8.981 -0.2843 -0.0785 -0.3186
    7loPI   C3A  105   3.284  17.156   8.756  0.0497 -0.0978 -0.2065
    7loPI   C4A  106   3.681  17.276   8.610  0.1835  0.2566  0.0708
    7loPI   C5A  107   4.025  17.182   8.905  0.3296  0.1927 -0.2829
    7loPI   C6A  108   4.107  17.204   9.409  0.0677 -0.2574  0.1159
    7loPI   C1B  109   2.718  18.026   8.867  0.0262 -0.1354  0.1635
    7loPI   C2B  110   2.790  17.922   8.452 -0.1353  0.0941  0.0001
    7loPI   C3B  111   2.648  18.065   8.119  0.1770 -0.3105  0.0981
    7loPI   C4B  112   2.897  18.215   7.763  0.2577  0.2004  0.2874
    8loPI    C1  113   1.053   3.446  10.075  0.0422  0.1762 -0.0919
    8loPI    C2  114   0.720   3.540  10.277  0.0670  0.0849 -0.0081
    8loPI    C3  115   0.893   3.812  10.041  0.0140  0.1790  0.0608
    8loPI   PO4  116   1.005   3.205   9.928 -0.2125 -0.3281 -0.1692
    8loPI   GL1  117   0.873   2.991   9.622 -0.0417  0.1247  0.1638
    8loPI   GL2  118   0.797   2.743   9.600  0.0055 -0.2657  0.0866
    8loPI   C1A  119   0.802   3.199   9.298 -0.2019 -0.1054  0.3365
    8loPI   C2A  120   0.833   3.060   8.914 -0.1967  0.0734  0.0119
    8loPI   C3A  121   0.996   3.024   8.556  0.5750  0.0375 -0.1120
    8loPI   C4A  122   1.030   2.749   8.292  0.3305  0.1163  0.5480
    8loPI   C5A  123   1.043   2.502   7.926 -0.2145  0.0991 -0.0496
    8loPI   C6A  124   1.004   2.508   7.390  0.0307  0.0610  0.0192
    8loPI   C1B  125   0.943   2.699   9.195  0.2547 -0.0589  0.6577
    8loPI   C2B  126   1.004   2.567   8.788  0.3503 -0.0159  0.0144
    8loPI   C3B  127   0.765   2.183   8.626 -0.2934 -0.2685  0.0936
    8loPI   C4B  128   0.612   2.102   8.328  0.1741 -0.4653 -0.1225
    9loPI    C1  129   1.524  17.794   9.525 -0.0235  0.0855 -0.0921
    9loPI    C2  130   1.286  17.662   9.818 -0.2961 -0.0451 -0.3667
    9loPI    C3  131   1.530  17.972   9.883 -0.1527 -0.2436  0.0775
    9loPI   PO4  132   1.838  17.688   9.548  0.3124  0.0509  0.2690
    9loPI   GL1  133   2.122  17.619   9.296 -0.1071 -0.2188 -0.1400
    9loPI   GL2  134   2.159  17.350   9.149 -0.2370  0.1056 -0.0630
    9loPI   C1A  135   2.214  17.933   8.972 -0.1990  0.0492 -0.2381
    9loPI   C2A  136   2.311  17.754   8.583 -0.2810 -0.3283 -0.1326
    9loPI   C3A  137   2.605  17.469   8.476 -0.1878 -0.1647 -0.3634
    9loPI   C4A  138   2.934  17.348   8.361  0.3626 -0.0935  0.3124
    9loPI   C5A  139   3.435  17.104   8.124  0.1123 -0.1121 -0.2823
    9loPI   C6A  140   3.684  16.791   8.307  0.2756 -0.1866  0.1332
    9loPI   C1B  141   2.223  17.268   8.746  0.1797 -0.1556 -0.0934
    9loPI   C2B  142   2.144  17.133   8.228 -0.1896 -0.1401  0.2499
    9loPI   C3B  143   1.842  17.003   7.953  0.2133 -0.5636  0.0863
    9loPI   C4B  144   1.768  17.044   7.549  0.1449  0.1994  0.0866
   10loPI    C1  145   5.294   5.318   9.822  0.0470  0.1069 -0.4661
   10loPI    C2  146   5.500   5.587  10.033 -0.0772  0.0339 -0.2488
   10loPI    C3  147   5.153   5.447  10.173 -0.1489 -0.0346 -0.4911
   10loPI   PO4  148   5.260   5.368   9.632  0.0628 -0.0740  0.0232
   10loPI   GL1  149   5.357   5.226   9.262 -0.3603 -0.4445 -0.2306
   10loPI   GL2  150   5.709   5.187   9.216  0.2086 -0.2603  0.1349
   10loPI   C1A  151   5.133   5.398   8.918 -0.0881  0.0200  0.1867
   10loPI   C2A  152   4.804   5.501   8.628 -0.0503  0.2044 -0.1183
   10loPI   C3A  153   4.618   5.608   8.267 -0.1611  0.1443 -0.1209
   10loPI   C4A  154   4.536   5.627   7.844  0.1740 -0.0968 -0.0929
   10loPI   C5A  155   4.394   5.466   7.431  0.1626  0.2130  0.4459
   10loPI   C6A  156   4.362   5.495   7.020 -0.1603 -0.0185  0.0359
   10loPI   C1B  157   5.641   5.124   8.734 -0.1827  0.1346 -0.2737
   10loPI   C2B  158   5.941   5.361   8.433  0.1721  0.2657 -0.0527
   10loPI   C3B  159   6.124   5.484   8.059 -0.3021 -0.2822 -0.1753
   10loPI   C4B  160   6.046   5.819   7.816  0.0259  0.0805  0.2187
   11loPI    C1  161  15.431   5.573   9.663  0.1656  0.3204 -0.0156
   11loPI    C2  162  15.604   5.831   9.411  0.1699  0.2401 -0.0950
   11loPI    C3  163  15.642   5.881   9.805  0.2648  0.2971 -0.1113
   11loPI   PO4  164  15.445   5.405   9.534 -0.1437  0.0737 -0.0449
   11loPI   GL1  165  15.324   5.292   9.163  0.1328 -0.1751  0.1042
   11loPI   GL2  166  15.536   5.477   9.097 -0.2753  0.3053  0.0903
   11loPI   C1A  167  15.030   5.528   8.766  0.0843  0.5000  0.2027
   11loPI   C2A  168  15.118   5.699   8.299  0.3330 -0.0077  0.1391
   11loPI   C3A  169  15.117   5.655   7.885 -0.0627 -0.2543 -0.0932
   11loPI   C4A  170  15.122   5.703   7.509  0.1555 -0.1688  0.2109
   11loPI   C5A  171  15.414   6.010   7.220 -0.1392 -0.0974  0.1637
   11loPI   C6A  172  15.813   5.855   7.101 -0.0333 -0.2216  0.2940
   11loPI   C1B  173  15.554   5.523   8.605 -0.1805  0.1461 -0.0987
   11loPI   C2B  174  15.620   5.539   8.089  0.0772  0.3802 -0.3402
   11loPI   C3B  175  15.784   5.287   7.809  0.0695  0.2434  0.1213
   11loPI   C4B  176  15.514   4.957   7.546 -0.1160  0.1786 -0.1010
   12loPI    C1  177   5.542   3.954  10.345 -0.2160  0.1199 -0.3704
   12loPI    C2  178   5.584   4.312  10.173  0.2804  0.1609 -0.1793
   12loPI    C3  179   5.812   4.213  10.486 -0.1361 -0.1715  0.0280
   12loPI   PO4  180   5.586   3.678  10.139 -0.1673  0.0221  0.0613
   12loPI   GL1  181   5.747   3.587   9.716 -0.0919 -0.0643  0.1138
   12loPI   GL2  182   5.646   3.846   9.442 -0.1789  0.1960  0.2295
   12loPI   C1A  183   5.603   3.373   9.380  0.4573 -0.0135  0.1650
   12loPI   C2A  184   5.428   3.079   9.094 -0.2271  0.2621 -0.2069
   12loPI   C3A  185   5.083   3.179   8.864 -0.1548  0.0669  0.1623
   12loPI   C4A  186   4.879   3.247   8.419  0.2785  0.0125  0.1053
   12loPI   C5A  187   4.638   3.323   8.052 -0.1475  0.0500  0.1091
   12loPI   C6A  188   4.361   3.674   7.808 -0.2190 -0.1460 -0.3323
   12loPI   C1B  189   5.526   3.779   9.038 -0.2031 -0.0151 -0.2590
   12loPI   C2B  190   5.288   3.621   8.726  0.4351  0.0324 -0.0573
   12loPI   C3B  191   5.190   3.641   8.255  0.0895 -0.0334  0.0397
   12loPI   C4B  192   4.840   3.750   7.982  0.1976  0.0975  0.0292
   13loPI    C1  193   3.253   0.386  10.157 -0.0952 -0.0187  0.1890
   13loPI    C2  194   3.442   0.119  10.388 -0.1594 -0.1712  0.0668
   13loPI    C3  195   3.357   0.482  10.531  0.1417 -0.1325  0.1544
   13loPI   PO4  196   3.220   0.355   9.931 -0.0720 -0.1622  0.0566
   13loPI   GL1  197   3.322   0.510   9.641  0.3763 -0.0687 -0.2464
   13loPI   GL2  198   3.585   0.613   9.660 -0.3517 -0.1058 -0.1635
   13loPI   C1A  199   3.359   0.525   9.173 -0.0460  0.2126 -0.0165
   13loPI   C2A  200   3.260   0.533   8.777  0.3575 -0.0890  0.0412
   13loPI   C3A  201   3.380   0.312   8.491 -0.0995  0.1592  0.1098
   13loPI   C4A  202   3.092   0.062   8.217  0.0823 -0.1343 -0.0966
   13loPI   C5A  203   2.660   0.056   8.012  0.4938  0.1330  0.4428
   13loPI   C6A  204   2.552   0.245   7.696  0.0514 -0.0236  0.0001
   13loPI   C1B  205   3.847   0.565   9.288  0.0427 -0.1162  0.0825
   13loPI   C2B  206   3.808   0.428   8.908 -0.1797 -0.0279  0.2228
   13loPI   C3B  207   3.916   0.552   8.413  0.4118  0.0411 -0.1850
   13loPI   C4B  208   3.984   0.382   8.079  0.3203  0.0728 -0.0299
   14loPI    C1  209  17.027  14.037   9.869 -0.3220  0.2287 -0.1569
   14loPI    C2  210  17.289  14.173  10.139 -0.0271 -0.0205 -0.3120
   14loPI    C3  211  16.962  13.977  10.259 -0.2395  0.4442 -0.1086
   14loPI   PO4  212  17.246  14.009   9.629  0.3959  0.0549  0.3709
   14loPI   GL1  213  17.374  14.200   9.132 -0.0915  0.3113 -0.0834
   14loPI   GL2  214  17.346  14.359   9.269  0.1619  0.1936  0.2277
   14loPI   C1A  215  17.453  14.083   8.708  0.2155 -0.1987  0.2473
   14loPI   C2A  216  17.569  14.430   8.286  0.0259  0.2623 -0.1020
   14loPI   C3A  217  17.731  14.322   7.936 -0.1573 -0.1275  0.0654
   14loPI   C4A  218  18.185  14.258   7.871 -0.3135 -0.3602  0.1580
   14loPI   C5A  219  18.245  14.241   7.335 -0.1124 -0.0203 -0.0194
   14loPI   C6A  220  18.445  14.023   7.019 -0.0642  0.2318  0.0465
   14loPI   C1B  221  17.599  14.618   8.997 -0.0831 -0.3311 -0.1939
   14loPI   C2B  222  17.636  14.898   8.656  0.0992  0.0189  0.0817
   14loPI   C3B  223  17.374  15.108   8.371 -0.0649 -0.2931 -0.1725
   14loPI   C4B  224  17.256  15.415   8.157  0.0090 -0.2678 -0.1193
   15loPI    C1  225  14.662  13.696  10.028  0.3122 -0.0381  0.2013
   15loPI    C2  226  14.733  13.560  10.397  0.2161  0.0647  0.2583
   15loPI    C3  227  14.468  13.854  10.340 -0.1345 -0.2813  0.0562
   15loPI   PO4  228  14.849  13.635   9.819 -0.1800 -0.1383  0.1870
   15loPI   GL1  229  14.951  13.488   9.377  0.1290  0.3160 -0.1173
   15loPI   GL2  230  15.252  13.246   9.307 -0.0238 -0.2146  0.0060
   15loPI   C1A  231  15.003  13.714   9.041 -0.1443  0.5449  0.2907
   15loPI   C2A  232  14.826  13.892   8.656  0.1890 -0.0813  0.1103
   15loPI   C3A  233  14.545  14.137   8.350  0.2033 -0.2262  0.1682
   15loPI   C4A  234  14.466  14.024   8.019 -0.0144 -0.1571 -0.2494
   15loPI   C5A  235  14.456  13.881   7.720 -0.0711  0.1950  0.0081
   15loPI   C6A  236  14.475  13.639   7.331 -0.1564 -0.0964  0.0421
   15loPI   C1B  237  15.261  13.280   8.897  0.1858  0.1034 -0.2057
   15loPI   C2B  238  15.097  13.386   8.533  0.2639 -0.0201 -0.2827
   15loPI   C3B  239  14.882  13.226   8.301  0.0316  0.1833  0.0742
   15loPI   C4B  240  15.068  13.030   7.965  0.3159  0.1929 -0.1705
   16loPI    C1  241   5.713   2.830  10.454  0.0332 -0.0093 -0.0187
   16loPI    C2  242   5.734   2.589  10.773  0.1771  0.1585  0.1005
   16loPI    C3  243   5.977   2.906  10.745 -0.1980  0.4513  0.0799
   16loPI   PO4  244   5.694   2.656  10.235  0.1436  0.2082  0.1224
   16loPI   GL1  245   5.645   2.441   9.832 -0.1672 -0.0492  0.0818
   16loPI   GL2  246   5.887   2.364   9.605 -0.0057  0.0089 -0.2368
   16loPI   C1A  247   5.532   2.070   9.583 -0.3355 -0.0139  0.2726
   16loPI   C2A  248   5.538   2.027   9.093 -0.0216  0.0141  0.0233
   16loPI   C3A  249   5.685   2.080   8.671 -0.0389 -0.1909 -0.2573
   16loPI   C4A  250   5.673   1.840   8.323  0.0631  0.1966 -0.0390
   16loPI   C5A  251   5.868   1.744   8.031  0.2232  0.0063 -0.1862
   16loPI   C6A  252   6.292   1.914   7.881  0.1443  0.2069 -0.1202
   16loPI   C1B  253   5.916   2.457   9.229 -0.0386  0.0879  0.0585
   16loPI   C2B  254   5.560   2.587   8.788  0.1603  0.0891 -0.3675
   16loPI   C3B  255   5.469   2.808   8.463 -0.0972 -0.0020  0.1425
   16loPI   C4B  256   5.390   3.181   8.306 -0.0991 -0.1039 -0.0187
   17loPI    C1  257  12.655  14.294   9.788 -0.3103 -0.0762  0.1087
   17loPI    C2  258  12.706  14.209  10.175  0.2264 -0.1187  0.0370
   17loPI    C3  259  12.782  14.577  10.041 -0.0662 -0.0739 -0.0140
   17loPI   PO4  260  12.838  14.188   9.636 -0.1403  0.0475  0.1118
   17loPI   GL1  261  13.152  14.004   9.352  0.2085  0.0229 -0.2534
   17loPI   GL2  262  13.142  14.307   9.286 -0.1216  0.2366 -0.0480
   17loPI   C1A  263  13.347  13.815   8.996 -0.3036  0.2639 -0.1174
   17loPI   C2A  264  13.590  13.964   8.748 -0.1120 -0.1371  0.0675
   17loPI   C3A  265  13.689  13.859   8.357 -0.0061  0.2688 -0.0294
   17loPI   C4A  266  13.725  13.981   7.827 -0.1238  0.2225  0.1371
   17loPI   C5A  267  13.895  13.835   7.606 -0.2831 -0.0777 -0.0888
   17loPI   C6A  268  13.998  13.466   7.331  0.0864 -0.3192 -0.2665
   17loPI   C1B  269  13.245  14.250   8.820 -0.2963  0.0397  0.1155
   17loPI   C2B  270  13.168  14.010   8.521 -0.0867 -0.1229 -0.0657
   17loPI   C3B  271  13.209  13.881   8.087  0.0372  0.1277  0.3793
   17loPI   C4B  272  13.322  13.760   7.690  0.0123  0.2015 -0.1743
   18loPI    C1  273   0.761  15.834   9.557  0.1197 -0.1002 -0.0149
   18loPI    C2  274   0.561  15.946   9.885 -0.1080 -0.0732 -0.1608
   18loPI    C3  275   0.961  15.957   9.881 -0.1035 -0.0707  0.1135
   18loPI   PO4  276   0.581  15.918   9.326  0.0387 -0.0083  0.3280
   18loPI   GL1  277   0.544  15.983   8.905 -0.1903 -0.1843  0.0684
   18loPI   GL2  278   0.258  15.965   8.905 -0.0124 -0.2155 -0.1363
   18loPI   C1A  279   0.766  16.197   8.484  0.0043 -0.0852 -0.0787
   18loPI   C2A  280   0.952  16.307   8.197  0.1560 -0.2291 -0.1672
   18loPI   C3A  281   1.199  16.056   7.859  0.4151  0.0988 -0.4813
   18loPI   C4A  282   1.155  15.563   7.806  0.2966  0.0081 -0.0336
   18loPI   C5A  283   1.462  15.161   7.745 -0.0896  0.0752  0.0152
   18loPI   C6A  284   1.519  15.064   7.253  0.0697  0.2296  0.0533
   18loPI   C1B  285   0.295  16.149   8.525 -0.0148  0.4613 -0.2471
   18loPI   C2B  286   0.408  16.228   8.149  0.2501 -0.1870 -0.5248
   18loPI   C3B  287   0.289  16.219   7.706  0.3434 -0.3041 -0.1550
   18loPI   C4B  288   0.126  16.415   7.415 -0.3067  0.2652  0.0131
   19loPI    C1  289  17.857  11.857   9.940 -0.1483 -0.1875 -0.1727
   19loPI    C2  290  17.969  11.863  10.324 -0.1915 -0.1213 -0.1611
   19loPI    C3  291  17.836  11.524  10.160  0.0035 -0.1955 -0.1687
   19loPI   PO4  292  18.052  11.930   9.756 -0.0271  0.1169  0.4697
   19loPI   GL1  293  18.238  12.163   9.382 -0.2019 -0.0143  0.1383
   19loPI   GL2  294  17.985  12.349   9.104  0.3029  0.0888 -0.0174
   19loPI   C1A  295  18.373  12.067   8.969  0.2359  0.0697 -0.1587
   19loPI   C2A  296  18.080  11.982   8.570 -0.0387  0.0323 -0.2537
   19loPI   C3A  297  17.884  11.945   8.166  0.1368 -0.1699 -0.1569
   19loPI   C4A  298  17.711  11.772   7.756  0.2647 -0.1569  0.0157
   19loPI   C5A  299  17.620  11.451   7.424  0.0851 -0.0054  0.3026
   19loPI   C6A  300  17.323  11.110   7.220 -0.1866 -0.0267  0.0278
   19loPI   C1B  301  17.842  12.514   9.007 -0.2993  0.1039 -0.1729
   19loPI   C2B  302  17.837  12.625   8.629  0.0016  0.0994  0.2797
   19loPI   C3B  303  17.968  12.539   8.196  0.0995  0.0519  0.0747
   19loPI   C4B  304  18.121  12.373   7.777  0.0868  0.0722 -0.3999
   20loPI    C1  305   8.749  16.566   9.986  0.1283  0.2351 -0.0124
   20loPI    C2  306   8.886  16.251  10.191  0.0619  0.1800 -0.0520
   20loPI    C3  307   8.741  16.569  10.386 -0.0953  0.0864 -0.0136
   20loPI   PO4  308   8.606  16.476   9.793 -0.2616  0.1097 -0.1653
   20loPI   GL1  309   8.582  16.368   9.524 -0.3592 -0.0630  0.1855
   20loPI   GL2  310   8.496  16.738   9.399 -0.2078 -0.0607 -0.0138
   20loPI   C1A  311   8.643  16.310   9.024 -0.0828 -0.1252 -0.1115
   20loPI   C2A  312   8.654  16.543   8.656 -0.1204 -0.0625  0.1446
   20loPI   C3A  313   8.591  16.486   8.240  0.0290  0.0590  0.0564
   20loPI   C4A  314   8.566  16.186   7.870  0.0887  0.0146  0.0922
   20loPI   C5A  315   8.375  16.020   7.465  0.1309  0.1100 -0.0072
   20loPI   C6A  316   8.289  16.144   7.197  0.0455 -0.0556  0.3767
   20loPI   C1B  317   8.276  16.803   9.049  0.0857 -0.2124  0.1457
   20loPI   C2B  318   8.200  16.969   8.700  0.2096  0.0819 -0.0941
   20loPI   C3B  319   8.036  17.044   8.294  0.0915 -0.2316  0.0835
   20loPI   C4B  320   7.959  17.158   7.856  0.0262 -0.0311 -0.0106
   21loPI    C1  321   0.100   2.790  10.062 -0.0773 -0.1225 -0.2472
   21loPI    C2  322   0.208   2.457  10.255  0.2454  0.0038 -0.2024
   21loPI    C3  323  -0.170   2.503  10.132  0.0569 -0.1265  0.3010
   21loPI   PO4  324   0.341   2.796   9.865  0.0997 -0.0451 -0.4468
   21loPI   GL1  325   0.334   2.965   9.508  0.4724  0.0591 -0.3399
   21loPI   GL2  326   0.326   3.247   9.441  0.0443 -0.0475 -0.0686
   21loPI   C1A  327   0.457   2.661   9.218  0.0131  0.1462  0.3433
   21loPI   C2A  328   0.531   2.582   8.930 -0.3580 -0.2569 -0.1033
   21loPI   C3A  329   0.494   2.613   8.487 -0.0694 -0.4095 -0.1050
   21loPI   C4A  330   0.479   2.535   8.071  0.1070  0.1085 -0.0808
   21loPI   C5A  331   0.402   2.208   7.726 -0.2633  0.0040 -0.1571
   21loPI   C6A  332   0.281   2.060   7.357 -0.1024  0.0828  0.4303
   21loPI   C1B  333   0.338   3.130   9.050 -0.2396  0.1387  0.0190
   21loPI   C2B  334   0.364   3.065   8.731 -0.1603 -0.1713  0.1002
   21loPI   C3B  335   0.332   3.044   8.300  0.2469  0.1552  0.2394
   21loPI   C4B  336   0.208   2.936   7.877  0.1193  0.3686  0.3688
   22loPI    C1  337  15.725   9.870  10.155 -0.1150  0.1338 -0.0341
   22loPI    C2  338  15.591   9.494  10.178 -0.2251  0.1736 -0.0222
   22loPI    C3  339  15.891   9.614  10.414 -0.1253  0.0664 -0.0938
   22loPI   PO4  340  15.745   9.906   9.870  0.1499  0.6690 -0.1267
   22loPI   GL1  341  15.563   9.875   9.505  0.3381  0.2359  0.2096
   22loPI   GL2  342  15.297   9.987   9.375 -0.1218  0.0327  0.0615
   22loPI   C1A  343  15.639  10.181   9.143 -0.0641  0.1037 -0.0172
   22loPI   C2A  344  15.788   9.989   8.790 -0.1556  0.2977 -0.2439
   22loPI   C3A  345  15.754  10.014   8.311  0.0386 -0.2917  0.2831
   22loPI   C4A  346  15.954  10.024   7.866 -0.1110 -0.0829  0.0363
   22loPI   C5A  347  16.305   9.892   7.507  0.3621  0.4554 -0.2880
   22loPI   C6A  348  16.718   9.836   7.258  0.1477  0.1435 -0.1160
   22loPI   C1B  349  15.214  10.151   8.919  0.2157 -0.0903 -0.2026
   22loPI   C2B  350  15.287  10.259   8.436 -0.0333  0.3561 -0.1026
   22loPI   C3B  351  15.471  10.312   8.007  0.2875 -0.1322  0.3112
   22loPI   C4B  352  15.702  10.461   7.675 -0.1035 -0.0610  0.4785
   23loPI    C1  353   0.684  15.277   9.578 -0.2441  0.2492  0.0905
   23loPI    C2  354   0.948  15.440   9.831 -0.1142 -0.0815  0.1739
   23loPI    C3  355   0.741  15.115   9.940 -0.2777 -0.0491 -0.0344
   23loPI   PO4  356   0.733  15.341   9.349  0.1180 -0.1388  0.3811
   23loPI   GL1  357   0.742  15.086   9.113  0.3715 -0.0875 -0.1968
   23loPI   GL2  358   0.778  14.782   9.276  0.2358 -0.5182  0.0266
   23loPI   C1A  359   0.678  14.992   8.726  0.1872 -0.0129 -0.1454
   23loPI   C2A  360   0.489  15.078   8.202 -0.3560 -0.0434 -0.1030
   23loPI   C3A  361   0.396  15.166   7.816 -0.0778 -0.0189 -0.0077
   23loPI   C4A  362   0.707  15.376   7.598  0.0188 -0.0703 -0.1898
   23loPI   C5A  363   1.111  15.328   7.281  0.4909 -0.5734  0.0148
   23loPI   C6A  364   1.216  15.215   6.833 -0.0675 -0.0271 -0.1749
   23loPI   C1B  365   0.976  14.672   8.945  0.0525  0.2671 -0.1833
   23loPI   C2B  366   1.037  14.207   8.851 -0.0846  0.2368  0.1084
   23loPI   C3B  367   1.335  13.971   8.622 -0.1629 -0.0992  0.0183
   23loPI   C4B  368   1.575  13.900   8.294 -0.0778  0.3414 -0.0412
   24loPI    C1  369   9.948   3.857  10.448 -0.0161  0.1620 -0.0962
   24loPI    C2  370  10.056   4.237  10.508 -0.1779  0.1718  0.1480
   24loPI    C3  371  10.239   3.943  10.708 -0.2621  0.1472  0.1894
   24loPI   PO4  372   9.931   3.835  10.109  0.3617 -0.1217  0.0328
   24loPI   GL1  373  10.006   3.689   9.773 -0.0625 -0.0596 -0.2494
   24loPI   GL2  374   9.813   3.962   9.618  0.1787 -0.0530 -0.1269
   24loPI   C1A  375  10.364   3.854   9.469 -0.2597 -0.0147  0.2823
   24loPI   C2A  376  10.227   4.075   9.025 -0.0617  0.0930  0.0976
   24loPI   C3A  377  10.243   4.337   8.626  0.0343 -0.0814 -0.1683
   24loPI   C4A  378  10.218   4.337   8.195 -0.2622  0.1114  0.1952
   24loPI   C5A  379  10.176   4.602   7.770  0.1439  0.4096  0.0122
   24loPI   C6A  380  10.370   4.929   7.480  0.2834  0.1787 -0.0094
   24loPI   C1B  381   9.735   3.936   9.193 -0.0072 -0.0542  0.0461
   24loPI   C2B  382   9.407   3.766   8.911  0.0737 -0.2815 -0.1600
   24loPI   C3B  383   9.434   3.639   8.476  0.3871  0.0042 -0.0940
   24loPI   C4B  384   9.412   3.820   8.147  0.1822  0.0083  0.0107
   25loPI    C1  385  18.554   4.360  10.008  0.2114  0.1158 -0.0019
   25loPI    C2  386  18.878   4.286  10.230  0.0687  0.1122  0.2080
   25loPI    C3  387  18.521   4.329  10.405 -0.0755 -0.0641 -0.0364
   25loPI   PO4  388  18.589   4.226   9.791  0.3868 -0.0216  0.4048
   25loPI   GL1  389  18.501   4.017   9.455  0.2799 -0.0942  0.2368
   25loPI   GL2  390  18.274   3.852   9.691  0.1973  0.1364 -0.0286
   25loPI   C1A  391  18.419   4.179   9.050 -0.0043  0.2024 -0.0038
   25loPI   C2A  392  18.313   4.110   8.543 -0.3625  0.1501 -0.0370
   25loPI   C3A  393  18.257   4.039   8.135  0.1871  0.0300  0.1372
   25loPI   C4A  394  18.248   4.086   7.749 -0.0864  0.0667  0.4359
   25loPI   C5A  395  18.113   3.928   7.367 -0.0916  0.1603 -0.1023
   25loPI   C6A  396  17.720   3.914   7.244 -0.3370 -0.1552  0.0149
   25loPI   C1B  397  18.105   3.730   9.254  0.2242 -0.0848  0.0485
   25loPI   C2B  398  17.978   3.892   8.804 -0.0169  0.0913  0.0056
   25loPI   C3B  399  17.823   3.906   8.398 -0.0242 -0.1391  0.0452
   25loPI   C4B  400  17.758   3.893   7.935 -0.2439  0.1582 -0.0735
   26loPI    C1  401   0.678   4.332  10.097 -0.0361  0.1456 -0.1190
   26loPI    C2  402   0.861   4.687  10.106  0.1244  0.0580  0.4410
   26loPI    C3  403   0.806   4.481  10.445 -0.0598 -0.4075  0.1385
   26loPI   PO4  404   0.430   4.444   9.900 -0.1069 -0.1951 -0.1676
   26loPI   GL1  405   0.447   4.609   9.496 -0.3576  0.1814  0.3178
   26loPI   GL2  406   0.805   4.596   9.562 -0.0907 -0.3510  0.1632
   26loPI   C1A  407   0.645   4.600   9.040  0.2606  0.0669  0.2855
   26loPI   C2A  408   0.758   4.585   8.536 -0.0033  0.0330  0.0421
   26loPI   C3A  409   0.891   4.601   8.148 -0.3334 -0.0566 -0.2371
   26loPI   C4A  410   0.973   4.479   7.689  0.2720 -0.1479 -0.1158
   26loPI   C5A  411   0.925   4.478   7.233 -0.1017 -0.1534 -0.1318
   26loPI   C6A  412   0.892   4.618   6.879 -0.0633 -0.2837 -0.1075
   26loPI   C1B  413   1.090   4.708   9.286 -0.0542  0.1447 -0.2476
   26loPI   C2B  414   1.108   4.530   8.919  0.2421  0.0830  0.0138
   26loPI   C3B  415   1.239   4.614   8.496  0.2659  0.2189 -0.0573
   26loPI   C4B  416   1.407   4.640   8.020  0.1106  0.2558  0.1721
   27loPI    C1  417   7.081   7.808  10.025 -0.0634 -0.0156  0.0568
   27loPI    C2  418   7.437   7.640  10.096  0.0442  0.2006  0.0374
   27loPI    C3  419   7.173   7.683  10.394  0.1578  0.3241  0.1213
   27loPI   PO4  420   7.072   7.993   9.746  0.0114  0.2206  0.0776
   27loPI   GL1  421   6.730   8.122   9.510 -0.0263  0.0115  0.0827
   27loPI   GL2  422   6.814   8.439   9.450 -0.0326  0.0037 -0.0903
   27loPI   C1A  423   6.583   8.064   9.113 -0.0395 -0.0812  0.0555
   27loPI   C2A  424   6.475   8.241   8.758  0.4437  0.0889 -0.0939
   27loPI   C3A  425   6.544   8.214   8.351 -0.1427  0.2518 -0.2982
   27loPI   C4A  426   6.211   8.267   8.006  0.1110 -0.1386  0.2121
   27loPI   C5A  427   6.264   8.478   7.729 -0.1215  0.1986 -0.0083
   27loPI   C6A  428   6.510   8.257   7.369 -0.0604 -0.1914  0.0205
   27loPI   C1B  429   7.026   8.357   9.044 -0.0056 -0.0340 -0.2201
   27loPI   C2B  430   6.935   8.081   8.818  0.0709 -0.1056  0.0822
   27loPI   C3B  431   6.951   7.937   8.480 -0.2153  0.2865 -0.1069
   27loPI   C4B  432   6.805   7.828   8.184 -0.1102 -0.2593  0.1664
   28loPI    C1  433   5.785   5.301   9.733 -0.0471  0.2762  0.1316
   28loPI    C2  434   6.031   5.453  10.009  0.1124  0.0185  0.1352
   28loPI    C3  435   5.759   5.178  10.113 -0.1580  0.2766  0.1244
   28loPI   PO4  436   5.704   5.581   9.509  0.1281 -0.2431  0.0774
   28loPI   GL1  437   5.790   5.888   9.241 -0.2753  0.0213 -0.0600
   28loPI   GL2  438   5.809   5.640   8.966 -0.2277  0.0560  0.0933
   28loPI   C1A  439   5.498   6.183   9.038  0.0591 -0.1278  0.1311
   28loPI   C2A  440   5.438   6.292   8.586 -0.2807  0.2957 -0.0617
   28loPI   C3A  441   5.319   6.272   8.161 -0.2485  0.0880 -0.1513
   28loPI   C4A  442   5.470   6.166   7.836  0.2149 -0.0396  0.2464
   28loPI   C5A  443   5.730   6.026   7.486  0.3844 -0.1472  0.0988
   28loPI   C6A  444   5.901   5.641   7.357  0.0812 -0.2207  0.1420
   28loPI   C1B  445   5.539   5.769   8.721  0.1491  0.0698  0.2883
   28loPI   C2B  446   5.411   5.467   8.427  0.2176  0.1047  0.1373
   28loPI   C3B  447   5.112   5.240   8.118 -0.0435 -0.0200 -0.0213
   28loPI   C4B  448   4.710   5.126   7.811  0.0007  0.0800 -0.0716
   29loPI    C1  449  12.653   3.572   9.787 -0.0590  0.0187 -0.2651
   29loPI    C2  450  12.632   3.956   9.895  0.1830 -0.0523  0.0505
   29loPI    C3  451  12.590   3.669  10.170  0.4107 -0.2458 -0.1122
   29loPI   PO4  452  12.494   3.566   9.601  0.0515 -0.1538 -0.0739
   29loPI   GL1  453  12.587   3.280   9.271  0.1540  0.1224  0.0716
   29loPI   GL2  454  12.585   3.623   9.121 -0.1503 -0.0765 -0.0864
   29loPI   C1A  455  13.029   3.288   9.018  0.0654 -0.4182  0.3185
   29loPI   C2A  456  13.008   3.573   8.814 -0.0141 -0.3819  0.2734
   29loPI   C3A  457  12.967   3.861   8.575  0.1930  0.0041  0.2106
   29loPI   C4A  458  12.840   4.234   8.391  0.2619 -0.2034 -0.2431
   29loPI   C5A  459  12.574   4.613   8.419 -0.3475 -0.0542  0.0317
   29loPI   C6A  460  12.442   4.711   8.775  0.2013  0.0410  0.1690
   29loPI   C1B  461  12.579   3.320   8.738 -0.1016  0.2238  0.1517
   29loPI   C2B  462  12.584   3.153   8.415  0.0881  0.4210 -0.2163
   29loPI   C3B  463  12.412   2.932   8.054  0.1939  0.1358 -0.3470
   29loPI   C4B  464  12.013   2.882   7.921 -0.1016 -0.1409  0.2250
   30loPI    C1  465   2.504  16.768  10.081  0.0342  0.1442 -0.3112
   30loPI    C2  466   2.894  16.845  10.127  0.0310  0.0555 -0.1267
   30loPI    C3  467   2.633  16.956  10.410 -0.0633  0.0131 -0.1965
   30loPI   PO4  468   2.457  16.898   9.812  0.0264  0.0862 -0.2849
   30loPI   GL1  469   2.429  16.849   9.390  0.1605 -0.0765 -0.3998
   30loPI   GL2  470   2.160  16.626   9.295 -0.0774 -0.1597 -0.0548
   30loPI   C1A  471   2.616  16.891   8.950  0.3023  0.3314  0.0596
   30loPI   C2A  472   2.742  16.984   8.604 -0.0764  0.1874 -0.3038
   30loPI   C3A  473   2.540  16.822   8.279  0.0494  0.1331 -0.0442
   30loPI   C4A  474   2.380  16.782   7.881 -0.1163 -0.1030  0.2034
   30loPI   C5A  475   1.996  16.584   7.654 -0.1021  0.0021  0.3869
   30loPI   C6A  476   1.928  16.177   7.404  0.0906 -0.0592  0.1541
   30loPI   C1B  477   2.028  16.682   8.831  0.5000 -0.0612  0.1003
   30loPI   C2B  478   1.950  16.643   8.425  0.0561  0.1880 -0.1439
   30loPI   C3B  479   1.925  16.381   8.107  0.0316  0.1067  0.0193
   30loPI   C4B  480   1.681  16.128   7.918 -0.2340 -0.0036  0.1368
   31loPI    C1  481  18.402  11.749  10.237 -0.0298 -0.0899  0.1936
   31loPI    C2  482  18.790  11.650  10.217  0.0107  0.0949  0.0337
   31loPI    C3  483  18.682  12.034  10.257 -0.1562  0.0439  0.0838
   31loPI   PO4  484  18.341  11.568  10.059 -0.2136  0.1565  0.1731
   31loPI   GL1  485  18.322  11.575   9.542  0.0947 -0.0507  0.0662
   31loPI   GL2  486  18.468  11.286   9.363  0.0872  0.2021  0.0673
   31loPI   C1A  487  18.183  11.581   9.065 -0.0022 -0.0233  0.4282
   31loPI   C2A  488  18.464  11.677   8.683 -0.1567  0.3670  0.1072
   31loPI   C3A  489  18.608  11.902   8.341 -0.1918  0.0026 -0.0471
   31loPI   C4A  490  18.535  12.024   7.964 -0.0347 -0.0003  0.0532
   31loPI   C5A  491  18.438  12.068   7.507  0.0308  0.2295  0.4152
   31loPI   C6A  492  18.745  11.958   7.190  0.0538  0.2011 -0.2519
   31loPI   C1B  493  18.509  11.206   8.974  0.3112 -0.1360  0.1776
   31loPI   C2B  494  18.382  11.195   8.592  0.1719  0.2611  0.2111
   31loPI   C3B  495  18.282  11.508   8.251 -0.0955  0.1319  0.0657
   31loPI   C4B  496  18.247  11.697   7.785  0.0937 -0.0731 -0.2502
   32loPI    C1  497   6.199  17.328  10.536  0.4262 -0.1133  0.3368
   32loPI    C2  498   6.281  17.694  10.673 -0.0688  0.0171  0.3021
   32loPI    C3  499   6.047  17.449  10.886 -0.2973 -0.0248  0.0086
   32loPI   PO4  500   6.142  17.450  10.279  0.2111 -0.1394 -0.1231
   32loPI   GL1  501   6.398  17.592   9.890  0.0712  0.3220 -0.4012
   32loPI   GL2  502   6.493  17.336   9.803  0.1865  0.2040  0.0251
   32loPI   C1A  503   6.220  17.656   9.478  0.2167 -0.2449 -0.2060
   32loPI   C2A  504   5.958  17.478   9.103  0.1367 -0.3868 -0.1471
   32loPI   C3A  505   6.000  17.208   8.733  0.3114  0.2494  0.1741
   32loPI   C4A  506   6.006  17.014   8.258 -0.2402 -0.1800  0.2262
   32loPI   C5A  507   6.263  16.689   8.059  0.2050 -0.3259  0.1787
   32loPI   C6A  508   6.665  16.674   8.313 -0.1061  0.1387  0.0341
   32loPI   C1B  509   6.341  17.152   9.511 -0.2031 -0.1068  0.0900
   32loPI   C2B  510   6.409  17.391   9.107 -0.1707  0.0662 -0.0123
   32loPI   C3B  511   6.452  17.343   8.711 -0.0527  0.1555  0.0700
   32loPI   C4B  512   6.483  17.132   8.314 -0.1306  0.1646 -0.0109
   33loPI    C1  513  16.516  15.587   9.468  0.1911  0.1127 -0.0110
   33loPI    C2  514  16.375  15.758   9.800 -0.1181  0.0408 -0.1017
   33loPI    C3  515  16.324  15.936   9.446 -0.0114 -0.0047 -0.1407
   33loPI   PO4  516  16.452  15.259   9.465 -0.0566 -0.3543 -0.0160
   33loPI   GL1  517  16.396  14.953   9.159  0.1632  0.0071  0.0879
   33loPI   GL2  518  16.430  14.734   9.193 -0.4078  0.2793  0.0298
   33loPI   C1A  519  16.269  15.050   8.778  0.2672  0.0801 -0.1994
   33loPI   C2A  520  16.121  15.307   8.500  0.0534 -0.1047 -0.1026
   33loPI   C3A  521  15.897  15.282   8.165 -0.0643 -0.0191  0.0184
   33loPI   C4A  522  15.844  15.035   7.832 -0.0258  0.0669  0.1326
   33loPI   C5A  523  16.033  14.771   7.515  0.4772 -0.0490 -0.1831
   33loPI   C6A  524  15.826  14.379   7.427  0.0765  0.1485 -0.1522
   33loPI   C1B  525  16.644  14.695   8.781 -0.0935 -0.2696 -0.2736
   33loPI   C2B  526  16.737  14.585   8.353  0.2169  0.4091  0.1781
   33loPI   C3B  527  16.734  14.314   8.073  0.3222  0.1112  0.1859
   33loPI   C4B  528  16.836  13.834   8.084  0.3348 -0.0693 -0.1991
   34loPI    C1  529   0.377  13.510  10.175  0.0890  0.1980  0.0701
   34loPI    C2  530   0.051  13.438  10.396  0.0541 -0.3811 -0.1515
   34loPI    C3  531   0.381  13.583  10.569 -0.2555  0.0426  0.1067
   34loPI   PO4  532   0.310  13.687   9.986  0.3389 -0.0067 -0.0904
   34loPI   GL1  533   0.338  13.621   9.568 -0.4241  0.1056  0.1351
   34loPI   GL2  534   0.164  13.548   9.381  0.1344  0.0924 -0.3599
   34loPI   C1A  535   0.354  13.768   9.010 -0.1203 -0.0877 -0.0833
   34loPI   C2A  536   0.329  13.524   8.636 -0.0504 -0.0122  0.3429
   34loPI   C3A  537   0.420  13.593   8.173 -0.1325  0.0520  0.1211
   34loPI   C4A  538   0.319  13.685   7.793  0.3413  0.2251  0.0178
   34loPI   C5A  539  -0.074  13.759   7.591  0.3754  0.2055  0.1921
   34loPI   C6A  540  -0.320  13.665   7.180 -0.0075 -0.2088  0.0331
   34loPI   C1B  541   0.484  13.362   9.189 -0.0052 -0.0054  0.0578
   34loPI   C2B  542   0.722  13.181   8.817 -0.0461 -0.1562 -0.2254
   34loPI   C3B  543   0.584  13.160   8.400  0.1573 -0.1211 -0.2081
   34loPI   C4B  544   0.675  13.041   8.086  0.1992  0.0318  0.3923
   35loPI    C1  545   7.891  17.213  10.599  0.2144 -0.2724  0.0349
   35loPI    C2  546   7.528  17.202  10.767  0.2005 -0.2855  0.0039
   35loPI    C3  547   7.828  17.387  10.954  0.0661  0.1366 -0.1844
   35loPI   PO4  548   7.871  17.372  10.303 -0.0303  0.3707 -0.1633
   35loPI   GL1  549   8.047  17.251   9.880  0.0330  0.0053  0.1016
   35loPI   GL2  550   8.210  17.482  10.013 -0.0194 -0.1996 -0.2932
   35loPI   C1A  551   8.309  17.285   9.494  0.0121 -0.2372 -0.0441
   35loPI   C2A  552   8.348  17.463   9.057 -0.1280 -0.1429  0.0054
   35loPI   C3A  553   8.433  17.469   8.681  0.1223 -0.2404 -0.2891
   35loPI   C4A  554   8.360  17.410   8.248 -0.0798  0.1393 -0.0152
   35loPI   C5A  555   8.042  17.655   7.999  0.1211  0.1417 -0.0188
   35loPI   C6A  556   7.838  18.031   8.033 -0.0630  0.1807  0.0937
   35loPI   C1B  557   8.022  17.785   9.673  0.0103  0.1918  0.1658
   35loPI   C2B  558   7.835  17.937   9.237 -0.2472  0.0211  0.1492
   35loPI   C3B  559   8.097  17.934   8.881  0.0770 -0.3823 -0.5995
   35loPI   C4B  560   8.190  17.865   8.409 -0.1137  0.1048  0.1448
   36loPI    C1  561  16.562  14.231   9.851 -0.2419 -0.0494  0.0691
   36loPI    C2  562  16.773  14.487  10.074  0.1033 -0.2878  0.0253
   36loPI    C3  563  16.477  14.274  10.240  0.0734 -0.1498  0.1518
   36loPI   PO4  564  16.441  14.319   9.531 -0.2625  0.0321 -0.3320
   36loPI   GL1  565  16.209  14.161   9.118  0.2924 -0.2752  0.0928
   36loPI   GL2  566  15.979  13.858   9.176  0.1175 -0.0515 -0.1539
   36loPI   C1A  567  16.410  14.250   8.818 -0.0726  0.1165 -0.3117
   36loPI   C2A  568  16.327  14.224   8.376  0.1289 -0.4369 -0.1194
   36loPI   C3A  569  16.199  14.200   7.897 -0.0203  0.0012  0.4683
   36loPI   C4A  570  16.134  13.875   7.726  0.2244 -0.1242  0.2906
   36loPI   C5A  571  15.974  13.793   7.310  0.0538 -0.0853 -0.0058
   36loPI   C6A  572  15.607  13.967   7.207 -0.3675  0.0443  0.1922
   36loPI   C1B  573  16.050  13.860   8.732  0.1786  0.0946  0.0598
   36loPI   C2B  574  15.941  13.914   8.290  0.2416 -0.0837 -0.0180
   36loPI   C3B  575  15.653  14.025   7.918  0.2048  0.3409 -0.2463
   36loPI   C4B  576  15.394  14.279   7.656  0.2173  0.1935  0.3574
   37loPI    C1  577  11.834  11.005  10.070 -0.1256  0.0314 -0.2166
   37loPI    C2  578  11.909  11.397  10.087  0.1542 -0.0229 -0.1430
   37loPI    C3  579  11.734  11.214  10.396  0.1109  0.0258 -0.1384
   37loPI   PO4  580  11.809  10.946   9.728 -0.1014  0.0032 -0.1649
   37loPI   GL1  581  11.940  10.856   9.363  0.2200 -0.1679  0.3550
   37loPI   GL2  582  12.232  10.762   9.358  0.0845 -0.1185 -0.0705
   37loPI   C1A  583  11.750  10.757   8.915 -0.4310  0.3927 -0.3627
   37loPI   C2A  584  11.667  10.765   8.467  0.4413  0.0516 -0.0369
   37loPI   C3A  585  11.542  10.744   8.117 -0.1632 -0.3036  0.0071
   37loPI   C4A  586  11.164  10.597   7.932  0.0762  0.2564  0.1574
   37loPI   C5A  587  10.827  10.534   7.699 -0.2509  0.2887  0.0908
   37loPI   C6A  588  10.407  10.447   7.831  0.0745  0.0193 -0.0538
   37loPI   C1B  589  12.420  10.929   9.064  0.0256  0.0418 -0.0581
   37loPI   C2B  590  12.567  10.927   8.711 -0.2274  0.0324 -0.3201
   37loPI   C3B  591  12.506  10.727   8.292 -0.2901 -0.1265 -0.3252
   37loPI   C4B  592  12.527  10.715   7.914 -0.0536  0.1696  0.0109
   38loPI    C1  593   9.431  18.623  10.417 -0.0667 -0.0774 -0.1429
   38loPI    C2  594   9.780  18.578  10.228  0.0220  0.4283 -0.1132
   38loPI    C3  595   9.699  18.359  10.552  0.2321  0.1769 -0.2270
   38loPI   PO4  596   9.296  18.687  10.201 -0.1519  0.0026  0.1035
   38loPI   GL1  597   9.098  18.601   9.825  0.2264 -0.1725 -0.4889
   38loPI   GL2  598   8.883  18.449   9.858 -0.1614 -0.0804  0.1407
   38loPI   C1A  599   8.844  18.890   9.509 -0.0013  0.1364 -0.3510
   38loPI   C2A  600   8.766  19.068   9.144  0.3817 -0.3101 -0.0095
   38loPI   C3A  601   8.724  19.048   8.693  0.1494 -0.2622  0.3511
   38loPI   C4A  602   8.756  19.457   8.358 -0.1150 -0.1657 -0.0634
   38loPI   C5A  603   8.558  19.625   8.044  0.0954 -0.0921 -0.0254
   38loPI   C6A  604   8.177  19.679   7.890 -0.1049 -0.1914 -0.0623
   38loPI   C1B  605   8.512  18.827   9.907  0.2661  0.1565  0.3208
   38loPI   C2B  606   8.409  19.160   9.724 -0.2500 -0.0849 -0.1159
   38loPI   C3B  607   8.373  19.421   9.367  0.0358  0.0696 -0.0493
   38loPI   C4B  608   8.096  19.726   9.048  0.1048  0.0649  0.1975
   39loPI    C1  609   8.052  14.831   9.938  0.2219  0.0789 -0.1007
   39loPI    C2  610   7.990  15.192  10.098  0.2249  0.0747 -0.0902
   39loPI    C3  611   8.218  14.925  10.289 -0.0189 -0.0388  0.0468
   39loPI   PO4  612   7.761  14.818   9.840 -0.1830 -0.3209 -0.0581
   39loPI   GL1  613   7.712  14.650   9.477 -0.0870 -0.0162  0.2238
   39loPI   GL2  614   7.347  14.610   9.474  0.3216  0.3872 -0.0722
   39loPI   C1A  615   7.544  14.810   9.001  0.1669 -0.0300 -0.2462
   39loPI   C2A  616   7.459  14.940   8.565  0.0571  0.1160  0.1459
   39loPI   C3A  617   7.677  14.991   8.291 -0.0464 -0.1203  0.0853
   39loPI   C4A  618   7.672  14.885   7.912 -0.0385  0.2240 -0.1503
   39loPI   C5A  619   7.789  14.595   7.544 -0.0245  0.2983 -0.4577
   39loPI   C6A  620   7.736  14.139   7.505  0.1460 -0.0686 -0.1810
   39loPI   C1B  621   7.119  14.982   9.163  0.1236  0.1602 -0.0991
   39loPI   C2B  622   7.005  15.132   8.713 -0.0561  0.1563 -0.1145
   39loPI   C3B  623   7.047  15.116   8.260 -0.1850  0.0080  0.1271
   39loPI   C4B  624   6.746  15.208   7.923 -0.0269 -0.0427  0.3140
   40loPI    C1  625   4.279  15.589  10.250  0.2409  0.3524  0.0546
   40loPI    C2  626   4.365  15.232  10.410 -0.4400  0.1061 -0.0935
   40loPI    C3  627   4.411  15.565  10.627 -0.3278 -0.1210  0.2399
   40loPI   PO4  628   4.336  15.542   9.964 -0.3830 -0.3938  0.0658
   40loPI   GL1  629   4.709  15.636   9.661  0.0786  0.2072 -0.1335
   40loPI   GL2  630   4.519  15.350   9.510  0.0251  0.0853 -0.1644
   40loPI   C1A  631   4.436  15.760   9.315  0.1807  0.2249 -0.0418
   40loPI   C2A  632   4.424  15.959   8.974 -0.2269  0.0392 -0.2500
   40loPI   C3A  633   4.450  16.168   8.668 -0.0655 -0.2425 -0.1064
   40loPI   C4A  634   4.295  16.408   8.400 -0.1881 -0.1459 -0.0764
   40loPI   C5A  635   4.148  16.668   8.071  0.1751 -0.0480 -0.0344
   40loPI   C6A  636   3.877  17.135   7.884  0.3836  0.0319  0.1119
   40loPI   C1B  637   4.637  15.178   9.130  0.0777 -0.3352 -0.2540
   40loPI   C2B  638   4.465  15.148   8.719  0.2616  0.1648 -0.1068
   40loPI   C3B  639   4.619  15.111   8.350 -0.0289  0.1012  0.0010
   40loPI   C4B  640   4.424  14.970   7.908  0.1518  0.0187 -0.2619
   41loPI    C1  641  14.836   0.407   9.310  0.0512  0.2262  0.2537
   41loPI    C2  642  15.100   0.668   9.458  0.1592  0.2042  0.1022
   41loPI    C3  643  15.126   0.552   9.076  0.1313 -0.0523  0.1760
   41loPI   PO4  644  14.566   0.421   9.287  0.2086  0.0437 -0.2659
   41loPI   GL1  645  14.668   0.644   8.861 -0.3996 -0.2960 -0.1263
   41loPI   GL2  646  14.784   0.828   8.746 -0.0306  0.0676 -0.0517
   41loPI   C1A  647  14.864   0.575   8.330  0.0260 -0.2076 -0.2902
   41loPI   C2A  648  14.791   0.710   7.974  0.0733 -0.0038 -0.0645
   41loPI   C3A  649  14.887   1.084   7.718 -0.3763 -0.1766  0.2311
   41loPI   C4A  650  15.209   1.151   7.508  0.1470  0.2085  0.0670
   41loPI   C5A  651  15.569   1.278   7.528  0.0849 -0.1823  0.4115
   41loPI   C6A  652  15.973   1.102   7.604  0.2079 -0.2443  0.1262
   41loPI   C1B  653  14.530   0.907   8.402  0.0756  0.2731 -0.0770
   41loPI   C2B  654  14.306   1.274   8.259 -0.0432  0.3750  0.0595
   41loPI   C3B  655  14.142   1.560   7.981  0.3054 -0.0277  0.1540
   41loPI   C4B  656  13.952   1.898   7.954  0.0395 -0.1409  0.1442
   42loPI    C1  657  17.954  14.098  10.176 -0.0467  0.2536 -0.1551
   42loPI    C2  658  17.959  14.084  10.576 -0.0676 -0.1151 -0.1643
   42loPI    C3  659  17.638  13.954  10.375  0.0052 -0.0784 -0.3055
   42loPI   PO4  660  18.182  14.139  10.028  0.1174  0.0279  0.3123
   42loPI   GL1  661  18.211  14.301   9.578  0.3533 -0.0481 -0.0014
   42loPI   GL2  662  18.392  14.408   9.286  0.2320 -0.0401 -0.2499
   42loPI   C1A  663  17.950  14.286   9.156  0.0011  0.1838 -0.2881
   42loPI   C2A  664  17.880  14.284   8.657 -0.0575  0.0783 -0.3898
   42loPI   C3A  665  17.980  14.077   8.299 -0.1246  0.1111 -0.1987
   42loPI   C4A  666  17.946  13.565   8.154  0.2565 -0.0919 -0.1538
   42loPI   C5A  667  18.016  13.320   7.816 -0.1428 -0.2088  0.0241
   42loPI   C6A  668  17.923  12.881   7.643 -0.1245 -0.0981  0.1324
   42loPI   C1B  669  18.526  14.274   8.910  0.1304  0.2799 -0.1991
   42loPI   C2B  670  18.333  13.957   8.780  0.0620  0.0697 -0.0006
   42loPI   C3B  671  18.246  13.744   8.528 -0.1784 -0.1994 -0.2645
   42loPI   C4B  672  18.063  13.429   8.657  0.0219  0.0061 -0.2295
   43loPI    C1  673  13.923   7.701  10.086  0.0642 -0.1524  0.1521
   43loPI    C2  674  13.973   7.992   9.817  0.1150 -0.1398  0.1750
   43loPI    C3  675  13.952   8.082  10.206  0.0393 -0.1576  0.1751
   43loPI   PO4  676  13.760   7.545   9.923 -0.2396 -0.0076 -0.0268
   43loPI   GL1  677  13.911   7.302   9.567  0.1165  0.1621 -0.2263
   43loPI   GL2  678  13.515   7.256   9.608 -0.2427  0.2333  0.1261
   43loPI   C1A  679  13.858   7.544   9.105  0.1311 -0.1209  0.1710
   43loPI   C2A  680  13.535   7.595   8.762  0.0865  0.2007  0.2845
   43loPI   C3A  681  13.312   7.512   8.254 -0.0858  0.3469  0.0841
   43loPI   C4A  682  13.137   7.199   8.032  0.0006 -0.1250  0.2076
   43loPI   C5A  683  12.847   6.976   7.734  0.1309  0.1778  0.0491
   43loPI   C6A  684  12.563   7.006   7.370  0.0669  0.2946 -0.2975
   43loPI   C1B  685  13.389   7.322   9.196 -0.0616 -0.0902  0.1143
   43loPI   C2B  686  13.282   7.145   8.861  0.2054  0.2094  0.3258
   43loPI   C3B  687  13.327   7.082   8.464  0.1598  0.0754 -0.2768
   43loPI   C4B  688  13.707   6.819   8.286  0.1709 -0.1114 -0.1998
   44loPI    C1  689   3.049   8.078  10.197 -0.0497 -0.0491 -0.3953
   44loPI    C2  690   3.321   8.367  10.144  0.2107 -0.2261 -0.0659
   44loPI    C3  691   3.163   8.304  10.506 -0.3492 -0.0642 -0.2700
   44loPI   PO4  692   3.036   7.938   9.860  0.0440 -0.0924 -0.0959
   44loPI   GL1  693   2.996   7.993   9.417 -0.3051  0.0383  0.1799
   44loPI   GL2  694   3.177   7.715   9.403  0.0922 -0.2006 -0.0598
   44loPI   C1A  695   2.801   7.871   9.036  0.3183 -0.0104 -0.1925
   44loPI   C2A  696   2.706   7.569   8.715 -0.1590  0.0771  0.0919
   44loPI   C3A  697   2.715   7.127   8.535  0.0108  0.1540  0.1980
   44loPI   C4A  698   2.567   6.831   8.116 -0.6310  0.0147  0.0955
   44loPI   C5A  699   2.755   6.619   7.653  0.1914  0.1820 -0.1522
   44loPI   C6A  700   2.810   6.385   7.288 -0.1711 -0.3309 -0.0460
   44loPI   C1B  701   3.340   7.626   9.026  0.1105 -0.1513 -0.0199
   44loPI   C2B  702   3.698   7.514   8.743 -0.0216  0.1235  0.1803
   44loPI   C3B  703   4.081   7.159   8.728  0.1101  0.0890 -0.3291
   44loPI   C4B  704   4.459   6.995   8.643  0.0128 -0.0263  0.3034
   45loPI    C1  705   0.012  18.099   9.612 -0.2122  0.0097 -0.0833
   45loPI    C2  706   0.234  18.272   9.897 -0.2301  0.1561 -0.1573
   45loPI    C3  707  -0.027  18.490   9.686 -0.1539  0.0670 -0.3458
   45loPI   PO4  708   0.126  17.837   9.456  0.1232 -0.1586 -0.1193
   45loPI   GL1  709  -0.151  17.713   9.128 -0.0836  0.2134 -0.4518
   45loPI   GL2  710   0.188  17.530   9.044  0.0633  0.2084 -0.1273
   45loPI   C1A  711  -0.071  18.044   8.792 -0.1830  0.3605  0.0635
   45loPI   C2A  712  -0.133  18.169   8.364 -0.0671 -0.0988  0.0063
   45loPI   C3A  713  -0.049  18.111   7.862  0.0498  0.1756  0.1008
   45loPI   C4A  714  -0.416  18.165   7.569  0.2240  0.0969  0.0834
   45loPI   C5A  715  -0.767  17.866   7.744  0.1008  0.0884  0.0302
   45loPI   C6A  716  -1.147  17.975   7.743 -0.0399  0.0062  0.1566
   45loPI   C1B  717   0.352  17.541   8.555 -0.0551 -0.0698 -0.2544
   45loPI   C2B  718   0.356  17.663   8.139 -0.1478 -0.1263 -0.1206
   45loPI   C3B  719   0.355  17.878   7.663 -0.0556 -0.0444  0.1076
   45loPI   C4B  720   0.511  18.124   7.321  0.2519 -0.1238  0.2658
   46loPI    C1  721   4.044  17.168  10.510 -0.0580 -0.1923 -0.1645
   46loPI    C2  722   4.296  17.131  10.818 -0.2521  0.0901  0.0333
   46loPI    C3  723   3.952  16.926  10.815 -0.0757 -0.2110 -0.1845
   46loPI   PO4  724   4.202  17.265  10.335  0.0873 -0.0895 -0.0781
   46loPI   GL1  725   4.305  17.230   9.919  0.0803 -0.1774  0.0234
   46loPI   GL2  726   4.268  17.016   9.812 -0.5412  0.1260  0.1664
   46loPI   C1A  727   4.487  17.517   9.602  0.1075  0.1115 -0.0336
   46loPI   C2A  728   4.533  17.561   9.150  0.0708 -0.1155  0.2015
   46loPI   C3A  729   4.588  17.683   8.777  0.0174  0.2273 -0.1168
   46loPI   C4A  730   4.285  17.504   8.592 -0.1230 -0.2328 -0.0573
   46loPI   C5A  731   3.919  17.591   8.258 -0.5457  0.2753 -0.2466
   46loPI   C6A  732   3.769  17.977   7.996  0.2848  0.2440  0.0202
   46loPI   C1B  733   4.628  17.076   9.504  0.1232 -0.1717 -0.3130
   46loPI   C2B  734   4.575  17.001   9.036 -0.4988 -0.3404  0.0498
   46loPI   C3B  735   4.728  17.093   8.697 -0.3436 -0.2740  0.2844
   46loPI   C4B  736   4.706  17.386   8.366 -0.3328 -0.0778 -0.1632
   47loPI    C1  737  12.984   4.499   9.982 -0.2852 -0.2037  0.1622
   47loPI    C2  738  13.202   4.204  10.139  0.0056  0.0268  0.2005
   47loPI    C3  739  13.292   4.584  10.222 -0.2127  0.1346 -0.0434
   47loPI   PO4  740  12.950   4.322   9.715 -0.0606  0.0739  0.2325
   47loPI   GL1  741  13.238   4.308   9.319  0.0284  0.2261 -0.1321
   47loPI   GL2  742  13.516   4.418   9.279  0.1902  0.4276 -0.0349
   47loPI   C1A  743  13.086   4.248   8.872 -0.3619 -0.1122 -0.1201
   47loPI   C2A  744  13.404   4.182   8.487 -0.4421 -0.1026  0.2673
   47loPI   C3A  745  13.524   4.208   8.078 -0.0310 -0.0516  0.0973
   47loPI   C4A  746  13.630   4.478   7.652 -0.2434  0.1073 -0.1773
   47loPI   C5A  747  13.353   4.896   7.574  0.2220  0.4532 -0.0584
   47loPI   C6A  748  12.929   4.991   7.419  0.4555 -0.2662  0.1830
   47loPI   C1B  749  13.515   4.556   8.840  0.1266  0.2909  0.5358
   47loPI   C2B  750  13.816   4.581   8.501  0.2129  0.4964  0.3188
   47loPI   C3B  751  13.955   4.679   8.071 -0.0077  0.0984 -0.2763
   47loPI   C4B  752  14.020   4.804   7.573 -0.0208  0.1497 -0.0250
   48loPI    C1  753  18.488   5.150  10.114  0.1114  0.0086  0.1840
   48loPI    C2  754  18.503   4.846   9.854  0.0287  0.1465  0.0154
   48loPI    C3  755  18.320   4.799  10.207  0.0466 -0.0089  0.0049
   48loPI   PO4  756  18.449   5.399   9.969  0.1359 -0.0208  0.1121
   48loPI   GL1  757  18.504   5.403   9.483 -0.3921 -0.1970 -0.0309
   48loPI   GL2  758  18.354   5.073   9.400 -0.3791 -0.0440 -0.5808
   48loPI   C1A  759  18.190   5.547   9.151 -0.1106 -0.1122 -0.0707
   48loPI   C2A  760  18.192   5.690   8.753  0.1881  0.5388 -0.0726
   48loPI   C3A  761  18.121   5.865   8.384 -0.0638  0.2875 -0.1154
   48loPI   C4A  762  18.150   5.902   8.025  0.0092 -0.0141  0.0164
   48loPI   C5A  763  18.024   6.222   7.628  0.0968  0.0225 -0.0656
   48loPI   C6A  764  17.948   6.079   7.121  0.0702  0.1112 -0.3814
   48loPI   C1B  765  18.502   5.242   8.928  0.0049  0.1446 -0.1233
   48loPI   C2B  766  18.429   5.278   8.525  0.3381 -0.1758  0.1292
   48loPI   C3B  767  18.267   5.447   8.188  0.3349 -0.1783  0.0650
   48loPI   C4B  768  18.293   5.294   7.670 -0.1253 -0.1588 -0.2200
   49loPI    C1  769   3.181   4.890  10.544  0.0836  0.0446  0.1008
   49loPI    C2  770   3.273   5.164  10.821 -0.2365  0.1683  0.0888
   49loPI    C3  771   2.891   5.064  10.757 -0.1461 -0.0448 -0.1339
   49loPI   PO4  772   3.237   5.000  10.345  0.0794 -0.4577  0.1203
   49loPI   GL1  773   3.138   5.085   9.979 -0.2491 -0.0909  0.2126
   49loPI   GL2  774   3.411   5.171   9.669  0.6210  0.0160 -0.3211
   49loPI   C1A  775   3.041   4.758   9.564 -0.3647  0.1172  0.0275
   49loPI   C2A  776   3.003   4.574   9.209 -0.1625  0.0349  0.1781
   49loPI   C3A  777   3.176   4.436   8.796  0.0513 -0.2301  0.3835
   49loPI   C4A  778   3.147   4.450   8.388  0.2057  0.1988  0.2187
   49loPI   C5A  779   3.304   4.607   8.051  0.3343  0.1036  0.1973
   49loPI   C6A  780   3.459   4.746   7.736  0.0177  0.0269  0.0598
   49loPI   C1B  781   3.457   5.053   9.193 -0.2141  0.1257  0.0259
   49loPI   C2B  782   3.169   4.977   8.940  0.1139 -0.2300  0.1095
   49loPI   C3B  783   2.931   4.836   8.650  0.0042 -0.2396  0.1069
   49loPI   C4B  784   2.873   4.791   8.237 -0.0313 -0.3052  0.1405
   50loPI    C1  785   6.091  16.357  10.321 -0.2010  0.1105  0.0229
   50loPI    C2  786   6.070  16.717  10.494  0.1574 -0.0457  0.4093
   50loPI    C3  787   5.976  16.389  10.703 -0.1538 -0.1833  0.0643
   50loPI   PO4  788   6.130  16.475  10.035  0.5911  0.1658 -0.2667
   50loPI   GL1  789   6.315  16.475   9.616  0.0164  0.0303 -0.0672
   50loPI   GL2  790   6.453  16.697   9.555  0.1443 -0.1355  0.2104
   50loPI   C1A  791   6.350  16.286   9.206  0.3538 -0.1621 -0.3710
   50loPI   C2A  792   6.285  16.270   8.616  0.1175  0.0045  0.1435
   50loPI   C3A  793   6.144  16.213   8.170 -0.0795 -0.2843  0.2047
   50loPI   C4A  794   6.169  16.259   7.774  0.1784  0.1186  0.1016
   50loPI   C5A  795   6.348  16.444   7.575  0.1187  0.1586 -0.0028
   50loPI   C6A  796   6.646  16.632   7.287  0.0852  0.0787 -0.1455
   50loPI   C1B  797   6.432  16.711   9.028  0.4165 -0.5159  0.2854
   50loPI   C2B  798   6.246  16.781   8.616 -0.2648 -0.1883 -0.0959
   50loPI   C3B  799   5.911  16.560   8.447  0.2220  0.3223  0.1615
   50loPI   C4B  800   5.461  16.232   8.324 -0.0126  0.1919 -0.0430
   51loPI    C1  801  11.119  18.520  10.060  0.0150  0.1654  0.1905
   51loPI    C2  802  11.302  18.191  10.194 -0.0201  0.0329 -0.0812
   51loPI    C3  803  11.265  18.510  10.432 -0.1016 -0.2040  0.2298
   51loPI   PO4  804  11.298  18.613   9.825 -0.0600  0.1313 -0.0899
   51loPI   GL1  805  11.365  18.701   9.361  0.3196  0.1208  0.0543
   51loPI   GL2  806  11.132  18.796   9.166 -0.1052 -0.1100 -0.1223
   51loPI   C1A  807  11.668  18.798   9.098  0.2225  0.1260 -0.1230
   51loPI   C2A  808  11.665  18.605   8.692  0.0572 -0.1793 -0.0802
   51loPI   C3A  809  11.809  18.705   8.364 -0.2212 -0.2631  0.2559
   51loPI   C4A  810  11.688  18.754   7.912  0.3108 -0.0892  0.1602
   51loPI   C5A  811  11.354  18.558   7.658  0.3060  0.2811  0.0977
   51loPI   C6A  812  11.039  18.458   7.337  0.3114  0.0083  0.1352
   51loPI   C1B  813  11.174  18.545   8.793  0.2608  0.3120 -0.1466
   51loPI   C2B  814  11.245  18.217   8.537  0.0187 -0.0375  0.0747
   51loPI   C3B  815  11.563  18.159   8.343 -0.1766 -0.2248 -0.1209
   51loPI   C4B  816  11.653  18.253   7.901  0.1446  0.2133  0.3062
   52loPI    C1  817   5.253   2.908  10.165 -0.2086 -0.0373 -0.2371
   52loPI    C2  818   4.949   2.651  10.205 -0.1978 -0.0273 -0.0874
   52loPI    C3  819   5.230   2.675  10.489 -0.1216  0.0484 -0.1687
   52loPI   PO4  820   5.312   2.857   9.949  0.3523  0.0798  0.0301
   52loPI   GL1  821   5.142   2.481   9.759 -0.0627  0.1857  0.0983
   52loPI   GL2  822   4.897   2.382   9.763  0.1574 -0.1504 -0.2226
   52loPI   C1A  823   5.271   2.468   9.259  0.1445 -0.0153  0.1964
   52loPI   C2A  824   5.094   2.465   8.919  0.2923  0.0446 -0.0583
   52loPI   C3A  825   5.140   2.208   8.556  0.0799  0.4332  0.0238
   52loPI   C4A  826   5.191   1.830   8.244  0.1918  0.1349 -0.1405
   52loPI   C5A  827   5.085   1.852   7.830  0.1764 -0.0220 -0.0911
   52loPI   C6A  828   4.780   2.065   7.676 -0.2593  0.0852 -0.0466
   52loPI   C1B  829   4.744   2.358   9.275  0.0782 -0.0886  0.1340
   52loPI   C2B  830   4.639   2.273   8.782 -0.0655 -0.0612  0.0245
   52loPI   C3B  831   4.362   2.239   8.468  0.1676 -0.0972  0.1533
   52loPI   C4B  832   4.209   2.407   8.180 -0.0639 -0.2266 -0.3141
   53loPI    C1  833   1.287  18.680   9.863 -0.0059  0.2425 -0.1965
   53loPI    C2  834   1.001  18.935   9.976 -0.2248 -0.0613 -0.0508
   53loPI    C3  835   1.250  18.782  10.248 -0.2600 -0.2012 -0.0967
   53loPI   PO4  836   1.421  18.838   9.676 -0.2682  0.2320 -0.1810
   53loPI   GL1  837   1.445  18.726   9.189 -0.2750  0.0367 -0.0675
   53loPI   GL2  838   1.694  18.943   9.272  0.0140 -0.0057 -0.0471
   53loPI   C1A  839   1.511  18.696   8.725  0.0668  0.1640  0.0571
   53loPI   C2A  840   1.738  18.990   8.399  0.0237  0.0098 -0.3192
   53loPI   C3A  841   1.921  19.320   8.221 -0.1896 -0.0285 -0.0564
   53loPI   C4A  842   2.177  19.422   7.973  0.1244 -0.1527 -0.0313
   53loPI   C5A  843   2.220  19.793   7.918 -0.0931 -0.6102 -0.0314
   53loPI   C6A  844   2.378  20.113   7.669 -0.0358 -0.0942 -0.2472
   53loPI   C1B  845   1.900  18.961   8.916  0.1780  0.2787  0.0426
   53loPI   C2B  846   2.006  19.383   8.678  0.1277 -0.0276 -0.2698
   53loPI   C3B  847   2.019  19.783   8.441 -0.1601 -0.2968 -0.2129
   53loPI   C4B  848   1.883  20.048   8.124 -0.0474  0.1315  0.4492
   54loPI    C1  849  13.214   6.578   9.773  0.0497 -0.3381  0.1095
   54loPI    C2  850  13.000   6.806  10.023 -0.0261 -0.2158 -0.0644
   54loPI    C3  851  13.337   6.630  10.150  0.2096  0.2561 -0.0145
   54loPI   PO4  852  13.238   6.787   9.591  0.2036 -0.0857 -0.0623
   54loPI   GL1  853  13.217   6.763   9.178 -0.1400 -0.1410 -0.1421
   54loPI   GL2  854  12.947   6.658   9.101 -0.3096 -0.1943 -0.0427
   54loPI   C1A  855  13.499   6.734   8.775  0.2174 -0.0914 -0.1542
   54loPI   C2A  856  13.457   6.427   8.603  0.0827  0.0189  0.0565
   54loPI   C3A  857  13.366   6.347   8.143 -0.0786 -0.3149  0.1269
   54loPI   C4A  858  12.926   6.264   7.932 -0.1350 -0.0688 -0.0534
   54loPI   C5A  859  12.748   5.887   7.764  0.1247 -0.1225 -0.1591
   54loPI   C6A  860  12.423   5.568   7.824 -0.0821 -0.1948  0.1938
   54loPI   C1B  861  12.963   6.607   8.742  0.0755 -0.1931  0.0753
   54loPI   C2B  862  12.774   6.368   8.453  0.0791  0.1177  0.1590
   54loPI   C3B  863  12.461   6.060   8.196  0.0558  0.1802  0.1162
   54loPI   C4B  864  12.067   5.946   8.022 -0.0373  0.2381  0.0363
   55loPI    C1  865  15.480   6.302   9.662 -0.1304  0.0425  0.3023
   55loPI    C2  866  15.813   6.342   9.881 -0.0352  0.0594  0.1557
   55loPI    C3  867  15.495   6.574   9.956  0.0578  0.1860  0.1625
   55loPI   PO4  868  15.578   6.367   9.339  0.2121  0.0464 -0.1836
   55loPI   GL1  869  15.549   6.064   8.969 -0.0402  0.4258 -0.1765
   55loPI   GL2  870  15.267   6.174   8.922 -0.0359 -0.2613 -0.3285
   55loPI   C1A  871  15.672   6.381   8.752 -0.1206 -0.2388 -0.0372
   55loPI   C2A  872  15.592   6.525   8.358 -0.1226  0.3685  0.1535
   55loPI   C3A  873  15.495   6.848   8.007  0.2549 -0.3515 -0.1228
   55loPI   C4A  874  15.149   7.139   7.832 -0.0016 -0.0068 -0.0588
   55loPI   C5A  875  14.894   7.066   7.492 -0.1603 -0.2111  0.2515
   55loPI   C6A  876  14.900   6.747   7.156 -0.1506  0.2756  0.2902
   55loPI   C1B  877  15.364   6.100   8.471 -0.1131  0.1507 -0.0372
   55loPI   C2B  878  15.306   6.110   8.053 -0.1232  0.3180  0.2105
   55loPI   C3B  879  15.172   6.203   7.667 -0.0031 -0.0886  0.1297
   55loPI   C4B  880  15.302   6.461   7.289  0.5127  0.1821 -0.3102
   56loPI    C1  881   5.537   9.255  10.260  0.1241  0.1963 -0.0890
   56loPI    C2  882   5.405   8.886  10.335  0.0566  0.2264 -0.0596
   56loPI    C3  883   5.794   8.969  10.369  0.1175  0.0812 -0.3656
   56loPI   PO4  884   5.447   9.379   9.930  0.0294 -0.4728  0.3460
   56loPI   GL1  885   5.802   9.378   9.456  0.2042 -0.1952 -0.1111
   56loPI   GL2  886   5.570   9.577   9.523 -0.1585 -0.1566  0.0563
   56loPI   C1A  887   5.719   9.039   9.268  0.0145 -0.2473  0.0319
   56loPI   C2A  888   5.669   9.055   8.800  0.0071 -0.3107 -0.1954
   56loPI   C3A  889   5.738   9.260   8.343 -0.1760  0.2534 -0.1236
   56loPI   C4A  890   6.065   9.161   7.954  0.2682 -0.3374  0.0168
   56loPI   C5A  891   6.193   8.997   7.534 -0.3925  0.0497  0.0849
   56loPI   C6A  892   6.370   8.858   7.206  0.2210  0.0070  0.2397
   56loPI   C1B  893   5.367   9.402   9.127 -0.2626  0.2108 -0.1413
   56loPI   C2B  894   5.145   9.107   9.068  0.0952 -0.2082  0.0110
   56loPI   C3B  895   4.952   8.731   8.785 -0.5046 -0.2080 -0.3586
   56loPI   C4B  896   5.010   8.507   8.343 -0.1164  0.1354  0.4110
   57loPI    C1  897  10.226  14.263   9.915 -0.1215 -0.0891  0.0611
   57loPI    C2  898   9.984  14.577   9.969  0.0725  0.1302 -0.3004
   57loPI    C3  899  10.376  14.634   9.912  0.1703 -0.2047 -0.0010
   57loPI   PO4  900   9.976  14.034   9.839 -0.1214  0.0291 -0.0886
   57loPI   GL1  901   9.785  13.861   9.350  0.1279 -0.0011  0.0280
   57loPI   GL2  902   9.546  13.696   9.370  0.2207 -0.1340  0.0069
   57loPI   C1A  903  10.103  14.022   9.179 -0.0563  0.1035  0.2434
   57loPI   C2A  904  10.235  14.240   8.869  0.0265 -0.1534  0.0935
   57loPI   C3A  905  10.401  14.287   8.525 -0.2496  0.0295 -0.0933
   57loPI   C4A  906  10.436  14.440   8.155  0.0018  0.1450 -0.1749
   57loPI   C5A  907  10.444  14.364   7.683 -0.0968  0.1425 -0.1630
   57loPI   C6A  908  10.567  14.175   7.328  0.0456  0.0137  0.0393
   57loPI   C1B  909   9.303  13.701   9.111  0.0786  0.0948  0.0437
   57loPI   C2B  910   9.042  13.560   8.835 -0.1555  0.0340  0.1142
   57loPI   C3B  911   9.061  13.675   8.390  0.3609  0.0448  0.1822
   57loPI   C4B  912   9.076  13.608   8.035  0.3083 -0.1695 -0.0169
   58loPI    C1  913  10.189   0.649  10.220  0.1846  0.1483  0.2682
   58loPI    C2  914  10.351   0.307  10.090 -0.0477  0.1354  0.0025
   58loPI    C3  915  10.014   0.300  10.307  0.0596  0.1864  0.1731
   58loPI   PO4  916  10.242   0.813   9.936  0.0169 -0.1347 -0.3323
   58loPI   GL1  917  10.002   0.927   9.663  0.0604  0.1523  0.1786
   58loPI   GL2  918   9.780   1.203   9.848 -0.1739 -0.0940 -0.1282
   58loPI   C1A  919  10.064   1.143   9.257  0.1204 -0.0501  0.0629
   58loPI   C2A  920  10.220   1.269   8.857  0.2215 -0.0914 -0.1050
   58loPI   C3A  921  10.336   1.353   8.447 -0.3208  0.1405 -0.2157
   58loPI   C4A  922  10.409   1.708   8.281  0.0221  0.3064 -0.1366
   58loPI   C5A  923  10.745   1.855   7.991  0.3532 -0.0174  0.4487
   58loPI   C6A  924  11.083   2.103   7.808  0.1965 -0.0318 -0.1143
   58loPI   C1B  925   9.719   1.480   9.498 -0.0760  0.0309  0.3795
   58loPI   C2B  926   9.763   1.417   9.042  0.1613  0.1611  0.0227
   58loPI   C3B  927   9.536   1.243   8.603  0.1807 -0.0104  0.2796
   58loPI   C4B  928   9.313   1.305   8.145 -0.1102  0.3145 -0.0253
   59loPI    C1  929   3.412   3.302  10.068 -0.2373  0.1547  0.1866
   59loPI    C2  930   3.608   3.293  10.417 -0.0348 -0.0577  0.0712
   59loPI    C3  931   3.284   3.064  10.363  0.0020 -0.1120  0.0808
   59loPI   PO4  932   3.685   3.290   9.850  0.0825  0.3807  0.0825
   59loPI   GL1  933   3.962   3.518   9.515 -0.1979  0.0409 -0.1288
   59loPI   GL2  934   3.787   3.803   9.685  0.0233  0.1424  0.0524
   59loPI   C1A  935   4.209   3.285   9.179 -0.0307  0.0372 -0.1622
   59loPI   C2A  936   4.409   3.155   8.821  0.1086 -0.0720 -0.0970
   59loPI   C3A  937   4.426   2.707   8.525  0.0560  0.3958 -0.0499
   59loPI   C4A  938   4.508   2.810   8.156  0.0664  0.1296  0.0056
   59loPI   C5A  939   4.642   2.980   7.724 -0.0470  0.1237 -0.1837
   59loPI   C6A  940   4.381   2.860   7.368 -0.2181  0.0185  0.2243
   59loPI   C1B  941   3.592   3.917   9.301  0.1081  0.0334 -0.2942
   59loPI   C2B  942   3.626   4.261   8.949 -0.2669  0.2068 -0.0102
   59loPI   C3B  943   3.614   4.225   8.534  0.0018  0.3261  0.0677
   59loPI   C4B  944   3.445   4.171   8.125 -0.2321 -0.1493 -0.1234
   60loPI    C1  945   1.747   9.022  10.010 -0.0587  0.0734 -0.0608
   60loPI    C2  946   1.893   9.358  10.171 -0.2225  0.2030 -0.1791
   60loPI    C3  947   2.113   9.023  10.172 -0.2326  0.1897  0.3445
   60loPI   PO4  948   1.674   9.102   9.763 -0.4432 -0.2866  0.2133
   60loPI   GL1  949   1.590   9.271   9.391  0.0581  0.0644 -0.0776
   60loPI   GL2  950   1.714   9.604   9.175  0.0387  0.1233  0.0905
   60loPI   C1A  951   1.778   9.002   9.125  0.0850 -0.1129  0.0994
   60loPI   C2A  952   1.863   8.971   8.651 -0.1046 -0.0854  0.1333
   60loPI   C3A  953   1.785   9.216   8.306 -0.0756 -0.1766 -0.1169
   60loPI   C4A  954   1.633   9.247   7.886  0.0734 -0.0202  0.0632
   60loPI   C5A  955   1.600   8.883   7.669 -0.1748 -0.1319 -0.0048
   60loPI   C6A  956   1.565   8.481   7.834  0.0206  0.0805 -0.1542
   60loPI   C1B  957   1.651   9.457   8.728  0.1600 -0.4778  0.0132
   60loPI   C2B  958   1.424   9.606   8.353 -0.0322 -0.0876 -0.1169
   60loPI   C3B  959   1.660   9.777   8.143 -0.1630  0.1820 -0.0274
   60loPI   C4B  960   1.886   9.947   7.795  0.5045  0.2006 -0.3228
   61loPI    C1  961   4.472   3.852  10.159 -0.1489 -0.0782 -0.2346
   61loPI    C2  962   4.115   3.991  10.044 -0.2082  0.0239  0.0638
   61loPI    C3  963   4.252   4.071  10.412  0.1852  0.1051 -0.0950
   61loPI   PO4  964   4.580   3.900  10.034 -0.3046 -0.0369  0.0263
   61loPI   GL1  965   4.283   4.068   9.598  0.0391 -0.0195 -0.0653
   61loPI   GL2  966   4.384   3.783   9.591  0.0739  0.1062  0.2851
   61loPI   C1A  967   4.093   3.877   9.159 -0.0058  0.4237 -0.0682
   61loPI   C2A  968   4.041   3.885   8.678  0.0522  0.0642  0.1844
   61loPI   C3A  969   3.904   3.871   8.280 -0.0716 -0.2462  0.1150
   61loPI   C4A  970   3.969   4.027   7.852  0.1748  0.0766  0.2862
   61loPI   C5A  971   4.324   4.186   7.706 -0.2550  0.0221 -0.0032
   61loPI   C6A  972   4.626   4.318   7.254  0.2083 -0.3249  0.0824
   61loPI   C1B  973   4.649   3.607   9.277 -0.2741  0.2119 -0.0098
   61loPI   C2B  974   4.727   3.531   8.834 -0.3292 -0.1127  0.0858
   61loPI   C3B  975   4.820   3.870   8.524  0.1025  0.0595 -0.0625
   61loPI   C4B  976   4.886   4.336   8.388 -0.1786 -0.1214 -0.0735
   62loPI    C1  977   2.442  10.663   9.793 -0.0051  0.1115 -0.2571
   62loPI    C2  978   2.061  10.735   9.890  0.0161  0.0001 -0.0868
   62loPI    C3  979   2.286  10.503  10.125  0.1457 -0.0579 -0.2668
   62loPI   PO4  980   2.551  10.861   9.741  0.2536  0.1187 -0.1451
   62loPI   GL1  981   2.524  11.120   9.334  0.1669  0.3407 -0.1814
   62loPI   GL2  982   2.699  11.326   9.393 -0.1235  0.1822 -0.0358
   62loPI   C1A  983   2.491  10.982   8.918  0.2350  0.1681  0.0274
   62loPI   C2A  984   2.595  11.159   8.486  0.3178 -0.2687 -0.2056
   62loPI   C3A  985   2.615  11.310   8.077 -0.0575  0.2573  0.2851
   62loPI   C4A  986   2.317  11.153   7.683 -0.0006 -0.1179  0.0974
   62loPI   C5A  987   1.943  11.304   7.811 -0.2425  0.3337 -0.1853
   62loPI   C6A  988   1.568  11.699   7.654 -0.1942 -0.0128 -0.0306
   62loPI   C1B  989   2.747  11.408   8.903  0.0816 -0.1945  0.1446
   62loPI   C2B  990   2.561  11.672   8.575  0.2480 -0.1077 -0.3049
   62loPI   C3B  991   2.690  11.791   8.200 -0.1191  0.0786 -0.0448
   62loPI   C4B  992   2.850  12.160   7.968 -0.0607 -0.0263  0.1276
   63loPI    C1  993  17.764  15.559   9.610 -0.0953 -0.0279 -0.2543
   63loPI    C2  994  17.770  15.882   9.846 -0.0589 -0.2500  0.0540
   63loPI    C3  995  17.573  15.553   9.961 -0.2325 -0.2862 -0.3310
   63loPI   PO4  996  17.818  15.688   9.286  0.1485  0.0513  0.1156
   63loPI   GL1  997  18.003  15.602   8.963 -0.2770  0.2708 -0.0177
   63loPI   GL2  998  18.309  15.617   8.928 -0.2730  0.0565  0.2963
   63loPI   C1A  999  17.656  15.425   8.659  0.0473  0.2024 -0.0571
   63loPI   C2A 1000  17.814  15.328   8.240 -0.1083 -0.3461  0.1621
   63loPI   C3A 1001  17.647  15.315   7.803 -0.0187 -0.0312  0.1750
   63loPI   C4A 1002  17.835  15.711   7.501  0.1937 -0.0878 -0.1210
   63loPI   C5A 1003  17.939  16.153   7.319  0.0782  0.3136  0.0369
   63loPI   C6A 1004  18.036  16.536   7.244  0.0372  0.2383 -0.0937
   63loPI   C1B 1005  18.235  15.586   8.449 -0.0834  0.0532 -0.2169
   63loPI   C2B 1006  18.050  15.710   8.065 -0.1110  0.2050 -0.2851
   63loPI   C3B 1007  18.303  15.815   7.638  0.0646 -0.1372 -0.2647
   63loPI   C4B 1008  18.351  15.970   7.258 -0.3452 -0.2373 -0.1518
   64loPI    C1 1009  17.787  15.107   9.938  0.3324 -0.2563 -0.2275
   64loPI    C2 1010  18.095  15.339  10.045  0.0775 -0.0895  0.1711
   64loPI    C3 1011  18.018  15.002  10.247 -0.2348  0.0752  0.3342
   64loPI   PO4 1012  17.789  15.059   9.651  0.3728 -0.0245  0.1837
   64loPI   GL1 1013  17.550  15.233   9.263  0.0053 -0.1361 -0.0741
   64loPI   GL2 1014  17.806  15.082   9.102 -0.2650 -0.0639 -0.3234
   64loPI   C1A 1015  17.245  15.154   8.909 -0.0076  0.2063 -0.3756
   64loPI   C2A 1016  16.943  15.031   8.614  0.0902 -0.1661 -0.1804
   64loPI   C3A 1017  16.839  15.026   8.177 -0.0488  0.1291  0.2013
   64loPI   C4A 1018  16.881  15.320   7.716 -0.1332 -0.0765 -0.1261
   64loPI   C5A 1019  16.690  15.348   7.247 -0.1472 -0.2123 -0.1780
   64loPI   C6A 1020  16.380  14.960   7.176 -0.0807  0.1726  0.1825
   64loPI   C1B 1021  18.101  15.164   8.698  0.0141  0.0480  0.3334
   64loPI   C2B 1022  18.516  15.181   8.622  0.2623 -0.2420 -0.3245
   64loPI   C3B 1023  18.557  15.044   8.224 -0.0913  0.1343  0.0228
   64loPI   C4B 1024  18.361  14.707   7.991  0.1160 -0.2849 -0.2583
   65loPI    C1 1025   9.393   8.155   9.676 -0.0743  0.3739 -0.0274
   65loPI    C2 1026   9.766   8.100   9.543 -0.0757 -0.0870  0.1395
   65loPI    C3 1027   9.702   8.315   9.874  0.0378  0.0094  0.0998
   65loPI   PO4 1028   9.265   8.223   9.541  0.2280  0.2422  0.1416
   65loPI   GL1 1029   9.423   8.071   9.152 -0.0736  0.0324 -0.5112
   65loPI   GL2 1030   9.439   7.806   9.274  0.0933 -0.2622  0.1617
   65loPI   C1A 1031   9.393   8.230   8.701  0.1387  0.3652 -0.2146
   65loPI   C2A 1032   9.219   8.332   8.316 -0.2692  0.4048 -0.2911
   65loPI   C3A 1033   9.083   8.479   7.992 -0.0151  0.4065  0.3693
   65loPI   C4A 1034   8.830   8.466   7.670 -0.1540  0.3542 -0.2578
   65loPI   C5A 1035   8.615   8.509   7.281 -0.2648 -0.0487  0.1601
   65loPI   C6A 1036   8.646   8.623   6.951 -0.1903  0.1066  0.1784
   65loPI   C1B 1037   9.209   7.433   9.183  0.0790 -0.0093  0.0192
   65loPI   C2B 1038   9.189   7.352   8.693 -0.1934 -0.2812  0.2218
   65loPI   C3B 1039   9.164   7.329   8.308 -0.1671  0.1204  0.3779
   65loPI   C4B 1040   9.169   7.145   7.872 -0.1588  0.3147  0.2258
   66loPI    C1 1041   8.581   3.459  10.212  0.1989  0.1237  0.2152
   66loPI    C2 1042   8.621   3.740   9.930 -0.0152 -0.0250  0.0328
   66loPI    C3 1043   8.930   3.649  10.168  0.1646  0.1090 -0.1464
   66loPI   PO4 1044   8.497   3.291  10.087  0.0284 -0.2383  0.2239
   66loPI   GL1 1045   8.261   3.062   9.782  0.1240 -0.2833 -0.3248
   66loPI   GL2 1046   8.377   3.400   9.608  0.2918  0.1839 -0.2193
   66loPI   C1A 1047   8.239   2.906   9.381  0.1418  0.0809  0.0244
   66loPI   C2A 1048   8.137   2.874   8.946 -0.1597  0.2019  0.0268
   66loPI   C3A 1049   8.253   3.093   8.602 -0.0899 -0.1019  0.1805
   66loPI   C4A 1050   8.496   3.199   8.290  0.1312  0.2299  0.0665
   66loPI   C5A 1051   8.745   3.247   7.949 -0.0413 -0.4222 -0.2289
   66loPI   C6A 1052   8.687   3.304   7.549 -0.2533  0.0072  0.1037
   66loPI   C1B 1053   8.673   3.435   9.280 -0.3514  0.1086  0.1986
   66loPI   C2B 1054   8.587   3.430   8.809 -0.4196  0.1064 -0.0650
   66loPI   C3B 1055   8.407   3.720   8.542  0.0162  0.0846  0.4051
   66loPI   C4B 1056   8.358   3.697   8.037 -0.1397 -0.0056  0.0983
   67loPI    C1 1057   9.399   5.788  10.013  0.0414  0.1569 -0.2207
   67loPI    C2 1058   9.650   5.877   9.714  0.3665  0.1418  0.0420
   67loPI    C3 1059   9.761   5.619   9.999  0.0146  0.0649  0.1152
   67loPI   PO4 1060   9.122   5.719   9.938  0.3371 -0.0723  0.0844
   67loPI   GL1 1061   8.847   5.742   9.572 -0.0561 -0.1605 -0.0932
   67loPI   GL2 1062   8.973   6.023   9.416  0.2296  0.4494  0.0901
   67loPI   C1A 1063   8.747   5.721   9.134  0.1748 -0.0596  0.1679
   67loPI   C2A 1064   8.735   5.494   8.698 -0.3373 -0.1511 -0.1953
   67loPI   C3A 1065   8.663   5.337   8.297 -0.1949 -0.2170 -0.4440
   67loPI   C4A 1066   8.616   4.907   8.138 -0.2018 -0.0374 -0.2279
   67loPI   C5A 1067   8.526   4.745   7.767 -0.0745 -0.0660  0.1810
   67loPI   C6A 1068   8.495   4.426   7.534 -0.2190 -0.1600 -0.1167
   67loPI   C1B 1069   8.995   6.125   9.000 -0.1083  0.1442 -0.1528
   67loPI   C2B 1070   9.019   5.914   8.710  0.1066  0.0275  0.1425
   67loPI   C3B 1071   9.367   6.035   8.413 -0.1100 -0.4226  0.1701
   67loPI   C4B 1072   9.320   6.074   7.929  0.0166 -0.1072 -0.2348
   68loPI    C1 1073   5.742   0.753  10.617  0.0025 -0.0505  0.1011
   68loPI    C2 1074   5.381   0.772  10.787 -0.1413 -0.0291 -0.1997
   68loPI    C3 1075   5.644   0.495  10.907 -0.1072  0.2063  0.2963
   68loPI   PO4 1076   5.617   0.732  10.393  0.1695  0.1851  0.0972
   68loPI   GL1 1077   5.711   0.715   9.915  0.1917  0.2618  0.0133
   68loPI   GL2 1078   5.731   1.006   9.800 -0.1130 -0.1264  0.0710
   68loPI   C1A 1079   5.637   0.609   9.458  0.0788  0.0452 -0.0296
   68loPI   C2A 1080   5.637   0.526   8.954  0.0426  0.0206 -0.0340
   68loPI   C3A 1081   5.686   0.339   8.468 -0.3470 -0.0473 -0.1372
   68loPI   C4A 1082   5.724   0.121   8.124 -0.0257  0.0725 -0.2312
   68loPI   C5A 1083   5.979  -0.250   8.092 -0.1985  0.2680 -0.3446
   68loPI   C6A 1084   6.116  -0.537   8.261  0.0638 -0.2378  0.1302
   68loPI   C1B 1085   6.146   1.094   9.511  0.1543 -0.2934  0.3403
   68loPI   C2B 1086   6.397   1.007   9.246  0.1726  0.0860 -0.0591
   68loPI   C3B 1087   6.641   1.179   8.919  0.2601  0.0124  0.0847
   68loPI   C4B 1088   6.613   1.362   8.456  0.1186  0.1063 -0.0547
   69loPI    C1 1089  14.840  18.288   9.592 -0.1029 -0.0218 -0.0151
   69loPI    C2 1090  14.943  18.628   9.777  0.0591  0.0100 -0.1608
   69loPI    C3 1091  14.780  18.327   9.986 -0.0611  0.1667 -0.0264
   69loPI   PO4 1092  14.732  18.380   9.314 -0.3568  0.1237  0.0387
   69loPI   GL1 1093  14.607  18.546   8.999 -0.1424 -0.1623 -0.2007
   69loPI   GL2 1094  14.914  18.725   8.936  0.2619 -0.0486  0.2777
   69loPI   C1A 1095  14.372  18.671   8.716  0.1815  0.0321  0.1328
   69loPI   C2A 1096  14.249  18.557   8.425  0.1645  0.1145  0.1277
   69loPI   C3A 1097  14.306  18.342   8.093 -0.0902  0.0263 -0.3211
   69loPI   C4A 1098  14.215  17.972   7.874 -0.2523  0.2783  0.0333
   69loPI   C5A 1099  13.913  17.660   8.040  0.1346  0.0521  0.1127
   69loPI   C6A 1100  13.917  17.298   8.304  0.0005  0.1252 -0.1496
   69loPI   C1B 1101  15.082  18.600   8.589 -0.3130 -0.0186 -0.1619
   69loPI   C2B 1102  15.160  18.652   8.147 -0.2215 -0.2205 -0.1686
   69loPI   C3B 1103  14.918  18.599   7.717  0.1527 -0.1039 -0.2916
   69loPI   C4B 1104  14.907  19.023   7.528 -0.2516  0.3305 -0.0273
   70loPI    C1 1105   3.302   0.948   9.927 -0.0801 -0.1828 -0.0755
   70loPI    C2 1106   3.552   0.800  10.202 -0.1856 -0.3320 -0.0590
   70loPI    C3 1107   3.208   0.970  10.315  0.1517  0.3742 -0.0411
   70loPI   PO4 1108   3.518   1.145   9.785  0.3730 -0.0023  0.0711
   70loPI   GL1 1109   3.691   1.078   9.394  0.2095 -0.2178  0.0799
   70loPI   GL2 1110   3.459   0.984   9.298  0.1550 -0.2206  0.0093
   70loPI   C1A 1111   4.009   1.094   9.306 -0.2003  0.1900 -0.5422
   70loPI   C2A 1112   4.110   0.868   8.880 -0.3730 -0.1884 -0.1244
   70loPI   C3A 1113   4.416   0.752   8.451  0.0769  0.2498  0.0626
   70loPI   C4A 1114   4.900   0.844   8.207  0.1070  0.1037 -0.0174
   70loPI   C5A 1115   5.378   1.054   8.196  0.0925  0.3327 -0.3570
   70loPI   C6A 1116   5.459   1.431   8.084 -0.0866  0.0026 -0.1412
   70loPI   C1B 1117   3.570   0.884   8.887  0.3030 -0.0163  0.2501
   70loPI   C2B 1118   3.429   0.827   8.369  0.2602 -0.0361 -0.0366
   70loPI   C3B 1119   3.107   0.586   7.982 -0.3517  0.4390 -0.0404
   70loPI   C4B 1120   2.832   0.610   7.578  0.0937 -0.0353  0.2824
   71loPI    C1 1121   7.657   4.892  10.175  0.2262  0.0038  0.1256
   71loPI    C2 1122   7.816   5.192   9.964 -0.2312 -0.0941 -0.3809
   71loPI    C3 1123   7.609   5.270  10.297  0.1790  0.0938 -0.1623
   71loPI   PO4 1124   7.530   4.787   9.982 -0.1382 -0.0577 -0.0851
   71loPI   GL1 1125   7.634   4.732   9.603 -0.0242  0.0183 -0.2053
   71loPI   GL2 1126   7.507   4.469   9.585 -0.1906  0.0274  0.2746
   71loPI   C1A 1127   7.711   4.742   9.144 -0.1205  0.1243  0.0888
   71loPI   C2A 1128   7.879   4.757   8.773  0.1121 -0.2761 -0.1549
   71loPI   C3A 1129   7.714   4.946   8.488 -0.0037  0.1969 -0.0112
   71loPI   C4A 1130   7.762   4.976   8.104 -0.0472  0.0186  0.3778
   71loPI   C5A 1131   8.111   4.992   7.807  0.1909  0.0613 -0.0631
   71loPI   C6A 1132   8.115   4.748   7.459  0.0520 -0.1335 -0.1221
   71loPI   C1B 1133   7.395   4.260   9.231  0.0531  0.0901 -0.0714
   71loPI   C2B 1134   7.429   4.052   8.843  0.0103 -0.0346  0.1684
   71loPI   C3B 1135   7.342   3.992   8.494  0.0747 -0.0105  0.0791
   71loPI   C4B 1136   7.404   3.511   8.333  0.1515 -0.0415 -0.2466
   72loPI    C1 1137  13.176  10.204  10.011  0.3045 -0.0753 -0.1320
   72loPI    C2 1138  12.782  10.166  10.067  0.3276 -0.0602  0.0458
   72loPI    C3 1139  13.013   9.840  10.044  0.3035 -0.0693 -0.0696
   72loPI   PO4 1140  13.188  10.408   9.687 -0.0426  0.3349 -0.0619
   72loPI   GL1 1141  13.226  10.416   9.216 -0.2493  0.0244  0.0802
   72loPI   GL2 1142  13.090  10.178   9.166 -0.2021  0.1892  0.0004
   72loPI   C1A 1143  13.441  10.557   8.823  0.1659  0.2526 -0.0642
   72loPI   C2A 1144  13.594  10.635   8.435  0.2755  0.0859 -0.1673
   72loPI   C3A 1145  13.957  10.785   8.256 -0.2232 -0.2884  0.2693
   72loPI   C4A 1146  14.141  10.803   7.781 -0.2031  0.0269  0.0483
   72loPI   C5A 1147  14.326  10.740   7.370 -0.0181  0.0059  0.0880
   72loPI   C6A 1148  14.599  10.549   7.314  0.2026  0.3349  0.2910
   72loPI   C1B 1149  12.900  10.053   8.786  0.0446 -0.0815 -0.2337
   72loPI   C2B 1150  12.482  10.156   8.594 -0.0943  0.0994  0.1411
   72loPI   C3B 1151  12.081   9.992   8.627 -0.1189  0.3076  0.1697
   72loPI   C4B 1152  11.712   9.839   8.542 -0.1347  0.1202  0.0812
   73loPI    C1 1153   7.478   6.096   9.858 -0.1315 -0.0272  0.0232
   73loPI    C2 1154   7.643   5.991  10.208 -0.2901 -0.2893  0.0226
   73loPI    C3 1155   7.446   6.338  10.175  0.0571 -0.0813  0.0852
   73loPI   PO4 1156   7.613   6.022   9.712 -0.0764 -0.2376 -0.1312
   73loPI   GL1 1157   7.956   5.754   9.601 -0.4298 -0.0377 -0.0650
   73loPI   GL2 1158   7.713   5.532   9.461 -0.0444  0.0888  0.0735
   73loPI   C1A 1159   8.190   5.644   9.223 -0.3432 -0.2507  0.2774
   73loPI   C2A 1160   8.285   5.586   8.874  0.2443  0.1877 -0.1808
   73loPI   C3A 1161   8.302   5.637   8.486 -0.2424  0.0815  0.1738
   73loPI   C4A 1162   8.271   6.009   8.209 -0.3814  0.3694 -0.3096
   73loPI   C5A 1163   8.463   6.055   7.781  0.1006 -0.0097 -0.0322
   73loPI   C6A 1164   8.635   6.440   7.521  0.4260  0.1946  0.1268
   73loPI   C1B 1165   7.783   5.648   8.994 -0.0421 -0.0808  0.1486
   73loPI   C2B 1166   7.799   5.455   8.517 -0.4101  0.1368  0.3092
   73loPI   C3B 1167   7.529   5.390   8.112  0.1353 -0.2500  0.0640
   73loPI   C4B 1168   7.390   5.447   7.715 -0.0107 -0.0391  0.2379
   74loPI    C1 1169  10.337   9.689   9.678  0.0561 -0.0237  0.0618
   74loPI    C2 1170  10.513   9.736  10.034  0.1042 -0.0206  0.0377
   74loPI    C3 1171  10.118   9.783   9.999  0.1389  0.2857  0.0317
   74loPI   PO4 1172  10.322   9.414   9.540  0.2426  0.3275 -0.1755
   74loPI   GL1 1173  10.296   9.121   9.187  0.1990  0.2185  0.1460
   74loPI   GL2 1174  10.359   9.427   9.059  0.2772 -0.0085  0.6339
   74loPI   C1A 1175  10.105   9.088   8.743  0.0017 -0.1995 -0.1268
   74loPI   C2A 1176  10.022   9.214   8.286 -0.0031  0.0746  0.1604
   74loPI   C3A 1177   9.866   9.377   7.744  0.4022 -0.1012 -0.0000
   74loPI   C4A 1178  10.076   9.144   7.484  0.0900 -0.5439 -0.1061
   74loPI   C5A 1179  10.155   8.987   7.020 -0.0444 -0.0532  0.0673
   74loPI   C6A 1180  10.066   8.948   6.687 -0.3175  0.2733  0.0561
   74loPI   C1B 1181  10.326   9.505   8.560 -0.2935 -0.0439  0.0697
   74loPI   C2B 1182  10.502   9.770   8.336  0.3171  0.1795 -0.1847
   74loPI   C3B 1183  10.715  10.075   8.134 -0.0606 -0.0645  0.0855
   74loPI   C4B 1184  10.692  10.043   7.779 -0.0627  0.2419  0.0310
   75loPI    C1 1185   6.918  10.233  10.173  0.0059  0.2833 -0.1665
   75loPI    C2 1186   7.168  10.361   9.888  0.0655  0.1102 -0.1931
   75loPI    C3 1187   7.313  10.186  10.216 -0.0287 -0.1796 -0.3026
   75loPI   PO4 1188   6.641  10.130   9.962  0.1593  0.1418  0.1726
   75loPI   GL1 1189   6.686   9.948   9.487  0.1292 -0.3814  0.2210
   75loPI   GL2 1190   7.031  10.117   9.350  0.0189  0.1561  0.0640
   75loPI   C1A 1191   6.650   9.659   9.147  0.0220 -0.2938  0.1088
   75loPI   C2A 1192   6.682   9.552   8.727  0.5851 -0.1329 -0.0921
   75loPI   C3A 1193   6.730   9.541   8.393 -0.0623 -0.2280 -0.2004
   75loPI   C4A 1194   6.700   9.493   7.957 -0.1327 -0.1638  0.0839
   75loPI   C5A 1195   6.680   9.203   7.771  0.1311  0.0652 -0.0994
   75loPI   C6A 1196   6.653   8.756   7.649  0.0963  0.0428 -0.1573
   75loPI   C1B 1197   6.815  10.094   8.980 -0.2189 -0.1326  0.2084
   75loPI   C2B 1198   6.842  10.327   8.629 -0.2218 -0.0636  0.0991
   75loPI   C3B 1199   6.797  10.699   8.331  0.2323  0.1358 -0.2087
   75loPI   C4B 1200   6.411  10.793   8.396  0.4550 -0.0259  0.0378
   76loPI    C1 1201   9.347   1.015  10.500  0.1000 -0.1416  0.1515
   76loPI    C2 1202   9.021   0.789  10.448 -0.0190  0.0528  0.0393
   76loPI    C3 1203   9.331   0.648  10.657 -0.2413 -0.0710  0.2908
   76loPI   PO4 1204   9.384   1.080  10.300 -0.0729  0.0918  0.0250
   76loPI   GL1 1205   9.317   1.321   9.865  0.0129  0.0465 -0.0526
   76loPI   GL2 1206   9.075   1.098   9.944  0.2058 -0.1617 -0.1233
   76loPI   C1A 1207   9.224   1.260   9.496  0.1406 -0.0367 -0.0648
   76loPI   C2A 1208   9.320   1.217   9.046  0.0233  0.0077 -0.0005
   76loPI   C3A 1209   8.955   1.114   8.637  0.0418  0.0315  0.0821
   76loPI   C4A 1210   8.682   0.939   8.384 -0.0908 -0.1299 -0.1614
   76loPI   C5A 1211   8.380   1.209   8.097  0.1524 -0.1114 -0.1759
   76loPI   C6A 1212   8.159   1.604   8.114 -0.1271 -0.0267  0.2198
   76loPI   C1B 1213   8.840   0.976   9.526 -0.0949 -0.0302  0.2553
   76loPI   C2B 1214   8.810   1.061   9.143  0.0885 -0.1242 -0.1163
   76loPI   C3B 1215   8.439   1.048   8.829 -0.1169  0.1612 -0.0178
   76loPI   C4B 1216   8.206   0.977   8.574 -0.2126 -0.0766  0.0472
   77loPI    C1 1217  16.761  17.517   9.464  0.0189  0.0823 -0.3427
   77loPI    C2 1218  16.785  17.916   9.469 -0.0896  0.0875  0.0042
   77loPI    C3 1219  16.441  17.736   9.564 -0.0122 -0.0914 -0.0512
   77loPI   PO4 1220  16.849  17.411   9.233 -0.0134  0.0623 -0.1359
   77loPI   GL1 1221  16.909  17.353   8.894 -0.2326  0.3245  0.0105
   77loPI   GL2 1222  17.106  17.297   8.657  0.2820 -0.1286 -0.2971
   77loPI   C1A 1223  16.601  17.062   8.722  0.2415  0.1473 -0.4494
   77loPI   C2A 1224  16.489  17.136   8.304  0.0139 -0.1650 -0.3291
   77loPI   C3A 1225  16.496  17.356   7.878  0.1810  0.3908 -0.0348
   77loPI   C4A 1226  16.676  17.704   7.578  0.0445 -0.0759 -0.2563
   77loPI   C5A 1227  16.944  18.045   7.393  0.0902 -0.1913 -0.1363
   77loPI   C6A 1228  17.186  17.985   7.176 -0.2681  0.1211  0.0966
   77loPI   C1B 1229  16.974  17.318   8.259  0.0433  0.3586 -0.1127
   77loPI   C2B 1230  17.091  17.335   7.860  0.0349  0.3720  0.1355
   77loPI   C3B 1231  17.213  17.410   7.414  0.1318  0.2721  0.0068
   77loPI   C4B 1232  17.099  17.518   7.067 -0.0394  0.0871  0.1755
   78loPI    C1 1233  15.566  18.913   9.400  0.1759 -0.1452 -0.0346
   78loPI    C2 1234  15.439  18.731   9.733  0.1410 -0.0736 -0.0085
   78loPI    C3 1235  15.227  19.033   9.576  0.0461 -0.2441 -0.2134
   78loPI   PO4 1236  15.670  18.683   9.273 -0.0843 -0.2281 -0.0778
   78loPI   GL1 1237  16.021  18.719   8.874 -0.0378  0.1192  0.1419
   78loPI   GL2 1238  15.841  18.998   8.925 -0.1693 -0.1995  0.0119
   78loPI   C1A 1239  16.351  18.693   8.589  0.1323 -0.0196 -0.1868
   78loPI   C2A 1240  16.458  18.835   8.253  0.3205  0.1241  0.1254
   78loPI   C3A 1241  16.299  18.964   7.822 -0.1674 -0.0846 -0.1565
   78loPI   C4A 1242  16.447  18.832   7.425  0.4620 -0.0513 -0.2047
   78loPI   C5A 1243  16.844  18.575   7.494  0.0003  0.0986 -0.1566
   78loPI   C6A 1244  17.097  18.347   7.794 -0.1575 -0.1854 -0.2422
   78loPI   C1B 1245  15.860  19.146   8.456 -0.0525  0.0026 -0.1032
   78loPI   C2B 1246  15.838  19.314   8.095  0.1283 -0.2983  0.0384
   78loPI   C3B 1247  15.794  19.692   7.846  0.1218 -0.2631  0.0885
   78loPI   C4B 1248  15.733  19.968   7.983  0.1043  0.3747 -0.0645
   79loPI    C1 1249  17.592   3.055   9.346  0.1283  0.0158 -0.3083
   79loPI    C2 1250  17.660   2.708   9.533  0.0244  0.1625  0.0092
   79loPI    C3 1251  17.563   2.711   9.144 -0.1509 -0.1757  0.0467
   79loPI   PO4 1252  17.469   3.282   9.572 -0.1127  0.2565  0.4982
   79loPI   GL1 1253  17.524   3.598   9.231 -0.2953 -0.3651  0.3395
   79loPI   GL2 1254  17.713   3.380   9.042 -0.1078  0.0601  0.0517
   79loPI   C1A 1255  17.202   3.511   8.966 -0.1071  0.1952  0.1244
   79loPI   C2A 1256  17.132   3.388   8.496 -0.1459  0.0929 -0.0690
   79loPI   C3A 1257  16.892   3.247   8.130  0.1898 -0.2328  0.1738
   79loPI   C4A 1258  16.991   2.945   7.843 -0.1058  0.1408  0.2540
   79loPI   C5A 1259  17.149   2.554   7.901  0.2220 -0.3818  0.1190
   79loPI   C6A 1260  17.113   2.147   7.901 -0.0617 -0.2282  0.2274
   79loPI   C1B 1261  17.656   3.447   8.652 -0.0964  0.1236  0.2743
   79loPI   C2B 1262  17.580   3.437   8.215  0.0196  0.0338  0.0322
   79loPI   C3B 1263  17.497   3.349   7.775 -0.2440  0.3297  0.2773
   79loPI   C4B 1264  17.508   3.452   7.377 -0.2383  0.0960 -0.2472
   80loPI    C1 1265   6.139   3.566  10.057  0.1029 -0.0354  0.2098
   80loPI    C2 1266   6.419   3.850  10.091 -0.0258  0.1271 -0.0590
   80loPI    C3 1267   6.107   3.847  10.340  0.1725 -0.0090  0.1919
   80loPI   PO4 1268   6.323   3.355   9.921  0.0558  0.0478 -0.0885
   80loPI   GL1 1269   6.424   3.265   9.475 -0.1119  0.2955  0.2412
   80loPI   GL2 1270   6.080   3.198   9.490 -0.2073 -0.1737  0.4175
   80loPI   C1A 1271   6.422   3.061   9.069 -0.2533 -0.0617 -0.4173
   80loPI   C2A 1272   6.402   3.025   8.639 -0.0559  0.2618 -0.1863
   80loPI   C3A 1273   6.356   3.270   8.224  0.0929 -0.1238  0.0018
   80loPI   C4A 1274   6.065   3.613   8.235  0.0935 -0.0555 -0.0466
   80loPI   C5A 1275   5.991   3.779   7.828 -0.1051 -0.3284  0.2849
   80loPI   C6A 1276   5.988   3.986   7.436  0.0670 -0.0986  0.1447
   80loPI   C1B 1277   5.960   2.987   9.193  0.1659  0.0535  0.1852
   80loPI   C2B 1278   5.985   2.866   8.816 -0.3292 -0.1309  0.1053
   80loPI   C3B 1279   5.956   2.773   8.381  0.0844 -0.3144  0.2482
   80loPI   C4B 1280   6.415   2.543   8.343 -0.1621 -0.0690  0.1801
   81loPI    C1 1281   1.991   2.364   9.716  0.0328  0.1338  0.0291
   81loPI    C2 1282   2.306   2.574   9.586  0.0855 -0.0364 -0.1244
   81loPI    C3 1283   2.297   2.439   9.963  0.3112 -0.2413 -0.1900
   81loPI   PO4 1284   1.763   2.461   9.473  0.0616  0.0047 -0.0805
   81loPI   GL1 1285   1.473   2.450   9.179 -0.2563  0.0917  0.1565
   81loPI   GL2 1286   1.201   2.252   9.128 -0.0777 -0.6878  0.3457
   81loPI   C1A 1287   1.425   2.707   8.776 -0.1905  0.0509  0.2004
   81loPI   C2A 1288   1.549   3.002   8.349 -0.0635  0.0334 -0.1237
   81loPI   C3A 1289   1.364   3.071   8.057  0.0794 -0.0234  0.2767
   81loPI   C4A 1290   1.093   2.997   7.669 -0.2963 -0.3411  0.1381
   81loPI   C5A 1291   1.210   3.033   7.287 -0.1669  0.1717  0.0211
   81loPI   C6A 1292   0.963   3.450   7.038 -0.0819  0.0027 -0.0650
   81loPI   C1B 1293   1.306   2.221   8.653 -0.4335 -0.0026  0.0206
   81loPI   C2B 1294   1.150   2.061   8.271  0.0879 -0.1104  0.0519
   81loPI   C3B 1295   0.906   2.000   7.923 -0.2159  0.0456  0.3338
   81loPI   C4B 1296   0.796   2.016   7.406 -0.1797 -0.3069  0.0190
   82loPI    C1 1297  13.285  11.878   9.598 -0.0664 -0.0545 -0.0623
   82loPI    C2 1298  13.139  11.737   9.943 -0.2705 -0.0485 -0.1448
   82loPI    C3 1299  13.141  11.505   9.617  0.1425 -0.1378 -0.0852
   82loPI   PO4 1300  13.181  12.118   9.498  0.2663  0.0011 -0.0052
   82loPI   GL1 1301  12.817  12.041   9.311 -0.0441  0.0748 -0.2965
   82loPI   GL2 1302  12.693  12.345   9.255  0.0790 -0.3228 -0.0016
   82loPI   C1A 1303  12.795  11.978   8.904  0.2912 -0.0149  0.3915
   82loPI   C2A 1304  12.803  12.012   8.448 -0.0703 -0.3648 -0.0496
   82loPI   C3A 1305  12.982  12.056   8.048 -0.2663 -0.0240  0.1600
   82loPI   C4A 1306  13.119  11.739   7.644 -0.0061 -0.1954 -0.2073
   82loPI   C5A 1307  13.415  11.679   7.377  0.1614 -0.0867  0.2445
   82loPI   C6A 1308  13.688  11.565   7.067  0.2728 -0.1684 -0.2836
   82loPI   C1B 1309  12.659  12.457   8.801  0.3566  0.1728  0.5490
   82loPI   C2B 1310  12.739  12.469   8.348  0.0192  0.4184 -0.2795
   82loPI   C3B 1311  13.095  12.505   8.094  0.3007  0.0679 -0.1010
   82loPI   C4B 1312  13.352  12.861   8.034  0.1741 -0.0865 -0.2950
   83loPI    C1 1313  11.081  12.965   9.520 -0.2075 -0.1806 -0.1302
   83loPI    C2 1314  11.234  13.334   9.534 -0.0099 -0.2694  0.1554
   83loPI    C3 1315  11.378  13.049   9.775 -0.3381 -0.4674  0.1233
   83loPI   PO4 1316  10.832  12.994   9.520  0.0376 -0.0955  0.0876
   83loPI   GL1 1317  10.783  13.030   9.075  0.0297  0.1263  0.0657
   83loPI   GL2 1318  10.949  12.757   9.044  0.0844 -0.0858 -0.0755
   83loPI   C1A 1319  11.173  13.183   8.919 -0.2684 -0.0205 -0.2622
   83loPI   C2A 1320  11.380  13.285   8.570 -0.1771 -0.0191  0.5044
   83loPI   C3A 1321  11.546  13.563   8.192  0.0085 -0.2897  0.1882
   83loPI   C4A 1322  11.567  13.803   7.701  0.0127  0.2074 -0.1491
   83loPI   C5A 1323  11.727  13.773   7.234 -0.0637  0.0494  0.1833
   83loPI   C6A 1324  11.922  13.547   6.941 -0.0131  0.0935 -0.1217
   83loPI   C1B 1325  10.951  12.876   8.607 -0.0669  0.0555 -0.3861
   83loPI   C2B 1326  10.900  12.903   8.151 -0.1960 -0.2733  0.2363
   83loPI   C3B 1327  10.734  13.042   7.769  0.0929  0.1072  0.0671
   83loPI   C4B 1328  10.373  13.187   7.462 -0.0787 -0.1979  0.1580
   84loPI    C1 1329  12.131   2.862  10.299  0.2624  0.2265 -0.0498
   84loPI    C2 1330  12.221   2.991  10.667  0.0068 -0.1105  0.1365
   84loPI    C3 1331  11.840   2.917  10.569  0.0891 -0.1641 -0.1500
   84loPI   PO4 1332  12.362   2.744  10.161 -0.2945 -0.0727 -0.0463
   84loPI   GL1 1333  12.538   2.618   9.678 -0.1690  0.1504  0.0687
   84loPI   GL2 1334  12.414   2.188   9.829 -0.1530  0.1553 -0.0741
   84loPI   C1A 1335  12.643   2.396   9.297  0.0641 -0.0361 -0.0838
   84loPI   C2A 1336  12.558   2.351   8.761  0.0829  0.0353 -0.1075
   84loPI   C3A 1337  12.710   2.585   8.405  0.4815 -0.1664  0.0293
   84loPI   C4A 1338  12.919   2.801   8.111 -0.1579  0.0734 -0.2748
   84loPI   C5A 1339  12.881   3.141   7.959 -0.0812 -0.1486 -0.1105
   84loPI   C6A 1340  12.450   3.381   7.830  0.2413  0.0128 -0.1066
   84loPI   C1B 1341  12.216   1.927   9.491 -0.3505  0.2199  0.0162
   84loPI   C2B 1342  11.921   1.633   9.263  0.0508 -0.0023 -0.2092
   84loPI   C3B 1343  11.534   1.513   9.295 -0.0752 -0.0394 -0.1267
   84loPI   C4B 1344  11.119   1.533   9.361  0.2050 -0.3635  0.0474
   85loPI    C1 1345  15.181  13.041   9.897  0.0096 -0.2317  0.0215
   85loPI    C2 1346  15.073  13.332  10.150 -0.0020 -0.2593  0.0483
   85loPI    C3 1347  15.242  12.998  10.290  0.3829 -0.0970 -0.0174
   85loPI   PO4 1348  14.979  13.095   9.713 -0.1521  0.0924  0.3098
   85loPI   GL1 1349  14.778  12.893   9.267 -0.1169 -0.4386  0.0379
   85loPI   GL2 1350  14.361  12.868   9.242 -0.2656  0.2457  0.1977
   85loPI   C1A 1351  14.902  12.812   8.959  0.0753  0.0245  0.0538
   85loPI   C2A 1352  14.718  12.869   8.568 -0.1785  0.0350 -0.0516
   85loPI   C3A 1353  14.550  12.847   8.100 -0.1766  0.0679 -0.1992
   85loPI   C4A 1354  14.246  12.801   7.683  0.0019  0.3822  0.1565
   85loPI   C5A 1355  13.840  12.791   7.618 -0.0507 -0.0033 -0.0150
   85loPI   C6A 1356  13.409  12.837   7.526  0.1890 -0.1801  0.1544
   85loPI   C1B 1357  14.294  12.754   8.851  0.1862  0.0791  0.1497
   85loPI   C2B 1358  14.028  12.906   8.656 -0.3649 -0.2288  0.1405
   85loPI   C3B 1359  13.878  13.337   8.713 -0.0232 -0.0753 -0.2021
   85loPI   C4B 1360  13.596  13.408   9.107  0.0961  0.3158  0.0159
   86loPI    C1 1361   6.765  14.213  10.000  0.1195 -0.0966  0.0042
   86loPI    C2 1362   7.002  14.420  10.247  0.1874 -0.1346 -0.0290
   86loPI    C3 1363   6.779  14.121  10.389 -0.1950  0.1988  0.0907
   86loPI   PO4 1364   6.949  14.283   9.779  0.0178  0.1415  0.1919
   86loPI   GL1 1365   6.946  14.239   9.334  0.0507  0.2476  0.1019
   86loPI   GL2 1366   6.607  14.204   9.208  0.0373  0.1099  0.2473
   86loPI   C1A 1367   7.020  14.526   9.083  0.3681  0.1473 -0.1151
   86loPI   C2A 1368   7.225  14.557   8.693  0.0562 -0.1463  0.0411
   86loPI   C3A 1369   7.300  14.665   8.218 -0.1814 -0.0011 -0.0332
   86loPI   C4A 1370   7.338  14.407   7.797  0.0528  0.2084 -0.1480
   86loPI   C5A 1371   7.118  14.465   7.515 -0.1165 -0.3566  0.0297
   86loPI   C6A 1372   6.965  14.427   7.144  0.2348 -0.2094  0.2829
   86loPI   C1B 1373   6.623  14.338   8.796  0.1388  0.0358  0.2367
   86loPI   C2B 1374   6.864  14.372   8.389 -0.1392  0.2943  0.0899
   86loPI   C3B 1375   6.842  14.234   7.896 -0.1057 -0.2809  0.0832
   86loPI   C4B 1376   6.600  14.287   7.547 -0.2227  0.0664 -0.1234
   87loPI    C1 1377  13.713  13.693   9.715 -0.1363 -0.1335 -0.2737
   87loPI    C2 1378  13.525  13.486  10.001  0.1449 -0.3872 -0.2670
   87loPI    C3 1379  13.908  13.591  10.050  0.0457  0.0226 -0.3298
   87loPI   PO4 1380  13.630  13.937   9.613  0.3238 -0.1172  0.2353
   87loPI   GL1 1381  13.867  14.288   9.595 -0.0624 -0.0788 -0.0513
   87loPI   GL2 1382  14.103  14.061   9.528 -0.3369  0.2237  0.0629
   87loPI   C1A 1383  13.622  14.463   9.193  0.1262  0.0568 -0.1088
   87loPI   C2A 1384  13.731  14.486   8.812  0.2412  0.1603  0.0609
   87loPI   C3A 1385  13.623  14.369   8.409  0.0362 -0.0106 -0.1353
   87loPI   C4A 1386  13.390  14.391   8.029  0.1450 -0.0586  0.0905
   87loPI   C5A 1387  13.208  14.344   7.600 -0.2517  0.0846  0.3043
   87loPI   C6A 1388  13.450  14.280   7.236 -0.2259 -0.3181 -0.0650
   87loPI   C1B 1389  14.073  14.204   9.035  0.1777 -0.2319 -0.0006
   87loPI   C2B 1390  14.032  14.157   8.564 -0.1992  0.2719 -0.0695
   87loPI   C3B 1391  14.001  14.155   8.177  0.2966 -0.0802  0.2838
   87loPI   C4B 1392  14.009  14.353   7.791  0.0048 -0.3111  0.2445
   88loPI    C1 1393  11.959  15.331  10.131  0.1644  0.0576  0.3110
   88loPI    C2 1394  11.783  15.672  10.243 -0.2302 -0.0909  0.1592
   88loPI    C3 1395  11.976  15.449  10.513 -0.2799  0.0717  0.3314
   88loPI   PO4 1396  12.083  15.388   9.884 -0.0500 -0.0757 -0.0940
   88loPI   GL1 1397  11.934  15.523   9.522 -0.1437  0.1567 -0.0659
   88loPI   GL2 1398  11.611  15.749   9.395  0.0573 -0.0235 -0.2564
   88loPI   C1A 1399  11.904  15.424   9.120  0.0055  0.0884 -0.2611
   88loPI   C2A 1400  11.701  15.456   8.688  0.0102 -0.1104 -0.2298
   88loPI   C3A 1401  11.674  15.486   8.301  0.2430  0.0601 -0.0819
   88loPI   C4A 1402  11.769  15.571   7.872  0.2853  0.0079  0.3543
   88loPI   C5A 1403  11.646  15.622   7.466 -0.1689 -0.0307  0.1201
   88loPI   C6A 1404  11.446  15.343   7.100  0.2017  0.1420 -0.4200
   88loPI   C1B 1405  11.352  15.645   9.002  0.2027  0.0676 -0.0432
   88loPI   C2B 1406  11.160  15.639   8.523  0.0984  0.2999  0.0567
   88loPI   C3B 1407  11.174  15.811   8.091 -0.1932  0.0631  0.0685
   88loPI   C4B 1408  11.280  15.864   7.722  0.1050 -0.0996 -0.1145
   89loPI    C1 1409   3.159   2.457  10.237  0.1596 -0.2227  0.1528
   89loPI    C2 1410   2.884   2.694  10.404  0.0216 -0.1838 -0.1243
   89loPI    C3 1411   2.896   2.305  10.497 -0.1460 -0.1916 -0.1313
   89loPI   PO4 1412   3.121   2.498   9.911  0.0475  0.0049  0.0972
   89loPI   GL1 1413   3.031   2.632   9.522  0.3686 -0.2048 -0.1251
   89loPI   GL2 1414   2.811   2.384   9.548  0.0191 -0.0215 -0.1420
   89loPI   C1A 1415   2.807   2.731   9.131  0.1983  0.4076 -0.0429
   89loPI   C2A 1416   2.944   2.913   8.717  0.2631  0.2379 -0.1218
   89loPI   C3A 1417   3.169   2.699   8.450  0.1340  0.2623  0.1053
   89loPI   C4A 1418   3.534   2.528   8.197  0.2060  0.0956  0.0545
   89loPI   C5A 1419   3.808   2.286   7.931  0.0600  0.2445  0.0308
   89loPI   C6A 1420   4.105   1.942   7.679  0.2170  0.0524 -0.1427
   89loPI   C1B 1421   2.933   2.160   9.282 -0.0748  0.1508 -0.2275
   89loPI   C2B 1422   2.964   1.882   8.967  0.3870  0.0217 -0.1818
   89loPI   C3B 1423   3.122   1.763   8.552  0.0657  0.2822  0.1492
   89loPI   C4B 1424   3.055   1.548   8.204  0.2579 -0.2806  0.1991
   90loPI    C1 1425   1.888  10.063   9.805 -0.0377  0.0521  0.0456
   90loPI    C2 1426   1.768  10.237  10.145  0.0118  0.3872 -0.1045
   90loPI    C3 1427   1.756   9.839  10.109  0.2952  0.3246  0.4009
   90loPI   PO4 1428   2.117  10.216   9.743  0.2209 -0.1936 -0.1151
   90loPI   GL1 1429   2.462  10.296   9.438 -0.0736 -0.3342 -0.2253
   90loPI   GL2 1430   2.389  10.555   9.205 -0.1039 -0.3606  0.0711
   90loPI   C1A 1431   2.490  10.131   8.971 -0.0667  0.2701 -0.2736
   90loPI   C2A 1432   2.550  10.101   8.558  0.1429 -0.2299  0.3723
   90loPI   C3A 1433   2.701  10.190   8.142  0.5204  0.1097 -0.2334
   90loPI   C4A 1434   2.792  10.241   7.759  0.1772  0.1431  0.1611
   90loPI   C5A 1435   3.252  10.275   7.634 -0.2442 -0.0617 -0.1568
   90loPI   C6A 1436   3.655  10.214   7.668  0.1027  0.0472 -0.0052
   90loPI   C1B 1437   2.483  10.566   8.689 -0.2405  0.0966  0.1459
   90loPI   C2B 1438   2.536  10.631   8.370  0.0902 -0.0081  0.0155
   90loPI   C3B 1439   2.630  10.699   7.944  0.2418 -0.0946  0.4001
   90loPI   C4B 1440   2.573  10.710   7.550  0.1640  0.2726 -0.0349
   91loPI    C1 1441   6.424   0.000  10.538  0.0938  0.2219 -0.2656
   91loPI    C2 1442   6.366  -0.104  10.920 -0.1103  0.1839 -0.3057
   91loPI    C3 1443   6.596  -0.330  10.684 -0.3396 -0.0362 -0.3220
   91loPI   PO4 1444   6.192  -0.021  10.402  0.0929  0.0400  0.0173
   91loPI   GL1 1445   6.053   0.127   9.949  0.2072 -0.0317  0.2704
   91loPI   GL2 1446   6.084  -0.174   9.917  0.1468  0.0341  0.1037
   91loPI   C1A 1447   6.394   0.184   9.654 -0.1487 -0.1148  0.1078
   91loPI   C2A 1448   6.554   0.195   9.219  0.0514  0.0172  0.0066
   91loPI   C3A 1449   6.455   0.225   8.772 -0.0979 -0.3346 -0.0409
   91loPI   C4A 1450   6.679   0.368   8.407  0.3535  0.1704 -0.2139
   91loPI   C5A 1451   6.730   0.244   7.936 -0.1627  0.1582 -0.2311
   91loPI   C6A 1452   6.811  -0.127   7.816  0.3160  0.1139 -0.0236
   91loPI   C1B 1453   6.318  -0.308   9.506 -0.1474  0.0820  0.2271
   91loPI   C2B 1454   6.274  -0.144   9.095 -0.0359  0.0188  0.0014
   91loPI   C3B 1455   6.268  -0.277   8.713 -0.1804  0.0881  0.0148
   91loPI   C4B 1456   6.479  -0.210   8.315  0.0796  0.1771 -0.1429
   92loPI    C1 1457   9.557  10.591  10.129  0.3234 -0.2890 -0.0306
   92loPI    C2 1458   9.331  10.323  10.322  0.0091  0.0560  0.0926
   92loPI    C3 1459   9.701  10.402  10.451  0.0188 -0.1473  0.1934
   92loPI   PO4 1460   9.487  10.542   9.869 -0.1384  0.3523 -0.4261
   92loPI   GL1 1461   9.331  10.355   9.458  0.1731 -0.1836 -0.1817
   92loPI   GL2 1462   9.384  10.327   9.155  0.3043 -0.0213  0.1352
   92loPI   C1A 1463   9.006  10.632   9.221 -0.1595 -0.1597  0.1286
   92loPI   C2A 1464   8.752  10.426   8.931  0.0743 -0.2367  0.0944
   92loPI   C3A 1465   8.494  10.390   8.608  0.1672 -0.0247  0.1283
   92loPI   C4A 1466   8.215  10.345   8.252  0.0753  0.0308 -0.0403
   92loPI   C5A 1467   7.873  10.017   8.167 -0.0524 -0.0561  0.2070
   92loPI   C6A 1468   7.550   9.883   8.012 -0.0153  0.0248  0.1253
   92loPI   C1B 1469   9.754  10.194   8.878 -0.0993  0.1704 -0.2101
   92loPI   C2B 1470   9.963   9.868   8.611  0.2070  0.1854  0.0446
   92loPI   C3B 1471   9.925   9.687   8.170 -0.1705  0.0821  0.1751
   92loPI   C4B 1472  10.315   9.491   7.907  0.1810 -0.0850 -0.0374
   93loPI    C1 1473   5.049   4.411  10.142  0.0853 -0.0604  0.0072
   93loPI    C2 1474   5.052   4.017  10.211  0.1185 -0.0271  0.2005
   93loPI    C3 1475   4.781   4.249  10.391  0.1314  0.0459  0.1265
   93loPI   PO4 1476   5.079   4.467   9.832  0.0764  0.1665  0.0571
   93loPI   GL1 1477   5.107   4.388   9.458 -0.0897  0.1622 -0.0658
   93loPI   GL2 1478   5.300   4.755   9.311  0.0227 -0.3337 -0.0699
   93loPI   C1A 1479   5.413   4.279   9.108 -0.2306  0.2126 -0.1809
   93loPI   C2A 1480   5.397   4.145   8.683  0.0882  0.0524 -0.0560
   93loPI   C3A 1481   5.365   4.301   8.235 -0.0173  0.0520 -0.1811
   93loPI   C4A 1482   5.534   4.688   8.192  0.4326  0.1544  0.2593
   93loPI   C5A 1483   5.620   5.124   8.045  0.2513 -0.0039 -0.1008
   93loPI   C6A 1484   5.854   5.296   7.721 -0.1597  0.0934  0.2885
   93loPI   C1B 1485   5.280   4.853   8.961  0.1281 -0.0520 -0.1564
   93loPI   C2B 1486   5.238   4.972   8.539  0.2252 -0.0249 -0.1496
   93loPI   C3B 1487   5.014   4.772   8.226  0.1331 -0.0288  0.0947
   93loPI   C4B 1488   4.992   4.704   7.827 -0.1253 -0.0934  0.3533
   94loPI    C1 1489  13.709  12.254   9.693  0.1245 -0.0870  0.0042
   94loPI    C2 1490  13.788  12.131  10.065 -0.3077 -0.1391  0.0844
   94loPI    C3 1491  13.411  12.200   9.954 -0.1685  0.0325 -0.2991
   94loPI   PO4 1492  13.910  12.036   9.543 -0.0253 -0.1553  0.1406
   94loPI   GL1 1493  14.063  11.902   9.203  0.1938  0.0592  0.1276
   94loPI   GL2 1494  13.909  11.713   8.992 -0.0614 -0.0629  0.1288
   94loPI   C1A 1495  14.376  11.790   8.845  0.1969 -0.0431 -0.0206
   94loPI   C2A 1496  14.442  11.956   8.473  0.0338 -0.1711  0.0441
   94loPI   C3A 1497  14.752  12.094   8.115  0.3781  0.2222  0.2824
   94loPI   C4A 1498  14.858  12.317   7.834 -0.1117  0.1212  0.1837
   94loPI   C5A 1499  14.744  12.768   7.648  0.1650 -0.2050  0.1022
   94loPI   C6A 1500  14.709  12.897   7.210  0.5358  0.1820  0.0105
   94loPI   C1B 1501  13.908  11.719   8.555  0.0387 -0.1014 -0.2653
   94loPI   C2B 1502  13.805  11.728   8.143  0.0684 -0.0728 -0.0836
   94loPI   C3B 1503  13.483  11.641   8.006  0.2135  0.2011 -0.0327
   94loPI   C4B 1504  13.180  11.302   8.002 -0.0293 -0.1384  0.0597
   95loPI    C1 1505   8.638   8.937   9.837  0.1062 -0.2802 -0.1785
   95loPI    C2 1506   8.275   8.989   9.998  0.1763  0.0834 -0.1288
   95loPI    C3 1507   8.602   9.020  10.227  0.2384 -0.3746 -0.1454
   95loPI   PO4 1508   8.575   9.040   9.554  0.3871 -0.1642 -0.1283
   95loPI   GL1 1509   8.599   8.850   9.141 -0.2279  0.2949 -0.0687
   95loPI   GL2 1510   8.783   9.062   8.957 -0.1434  0.0675 -0.0897
   95loPI   C1A 1511   8.740   8.505   8.807  0.1186 -0.1900 -0.1566
   95loPI   C2A 1512   8.743   8.361   8.435 -0.0016 -0.0057 -0.0367
   95loPI   C3A 1513   8.705   8.130   8.047  0.1420 -0.1509 -0.0076
   95loPI   C4A 1514   8.640   7.969   7.720 -0.1691 -0.1123 -0.1556
   95loPI   C5A 1515   8.783   8.017   7.380  0.2616 -0.1732 -0.0168
   95loPI   C6A 1516   9.023   8.266   7.160 -0.2000 -0.1534  0.0417
   95loPI   C1B 1517   8.718   8.872   8.480 -0.0882  0.2018 -0.0343
   95loPI   C2B 1518   8.642   8.856   8.042  0.2439 -0.2314 -0.2121
   95loPI   C3B 1519   8.385   8.558   7.764 -0.2603  0.1571 -0.1335
   95loPI   C4B 1520   8.076   8.332   7.518  0.0257 -0.0714  0.0273
   96loPI    C1 1521   9.804  11.546   9.720 -0.2970 -0.0038 -0.0207
   96loPI    C2 1522   9.846  11.313  10.043  0.2168 -0.0122 -0.0850
   96loPI    C3 1523   9.859  11.711  10.080 -0.1224 -0.0016 -0.0475
   96loPI   PO4 1524   9.549  11.441   9.636  0.1513 -0.1747  0.0800
   96loPI   GL1 1525   9.236  11.100   9.427  0.2699  0.0865 -0.1158
   96loPI   GL2 1526   9.440  10.860   9.396 -0.3627  0.1313  0.1726
   96loPI   C1A 1527   8.899  11.110   9.104  0.0608  0.0669  0.0475
   96loPI   C2A 1528   8.843  10.931   8.723  0.0622 -0.1077  0.0827
   96loPI   C3A 1529   8.557  10.964   8.356 -0.3831 -0.0534 -0.5567
   96loPI   C4A 1530   8.257  10.800   8.018  0.2258  0.2838 -0.2278
   96loPI   C5A 1531   7.995  10.435   7.801 -0.0432 -0.1563  0.1124
   96loPI   C6A 1532   7.799  10.025   7.617 -0.1289 -0.0625 -0.1820
   96loPI   C1B 1533   9.469  10.746   8.939  0.0768 -0.0562 -0.0894
   96loPI   C2B 1534   9.489  10.552   8.502 -0.0532 -0.2354 -0.0920
   96loPI   C3B 1535   9.325  10.598   7.997  0.1009 -0.2215  0.1283
   96loPI   C4B 1536   8.972  10.422   7.728 -0.0074  0.2332  0.5801
   97loPI    C1 1537   6.019   7.685  10.106 -0.0154 -0.0318  0.0453
   97loPI    C2 1538   5.738   7.744  10.384 -0.1338  0.0985 -0.1002
   97loPI    C3 1539   5.849   7.372  10.289 -0.1088  0.0525  0.1035
   97loPI   PO4 1540   5.870   7.793   9.891 -0.0451  0.0836  0.0329
   97loPI   GL1 1541   5.953   7.682   9.504 -0.4427 -0.2794 -0.2607
   97loPI   GL2 1542   6.045   7.999   9.471 -0.1627  0.1788  0.1942
   97loPI   C1A 1543   5.645   7.628   9.100  0.2372  0.0499  0.0003
   97loPI   C2A 1544   5.671   7.638   8.649 -0.4028 -0.0377 -0.1101
   97loPI   C3A 1545   5.843   7.503   8.262 -0.0743 -0.0399  0.3245
   97loPI   C4A 1546   6.085   7.252   8.033 -0.3004  0.1102  0.0043
   97loPI   C5A 1547   6.210   6.849   7.705  0.2546  0.1669 -0.0984
   97loPI   C6A 1548   6.570   6.512   7.561  0.0746  0.0828 -0.0918
   97loPI   C1B 1549   6.065   7.938   9.041 -0.0744 -0.1656 -0.0579
   97loPI   C2B 1550   6.073   8.072   8.606 -0.1182  0.1721 -0.1007
   97loPI   C3B 1551   5.870   8.041   8.279 -0.3063  0.2928  0.0818
   97loPI   C4B 1552   5.712   8.224   7.846  0.0641 -0.0981  0.1329
   98loPI    C1 1553   1.265  10.347  10.049 -0.0260  0.1219  0.1493
   98loPI    C2 1554   0.953  10.151  10.206  0.0353 -0.1250 -0.0315
   98loPI    C3 1555   1.266  10.246  10.436 -0.1757  0.1369  0.1542
   98loPI   PO4 1556   1.297  10.196   9.790  0.1660 -0.0954 -0.1414
   98loPI   GL1 1557   1.168  10.432   9.425  0.0510  0.0042 -0.0551
   98loPI   GL2 1558   0.910  10.130   9.374 -0.2334  0.0639  0.0146
   98loPI   C1A 1559   1.303  10.425   9.035  0.0486  0.1290  0.1165
   98loPI   C2A 1560   1.437  10.597   8.612  0.2079  0.0667 -0.2049
   98loPI   C3A 1561   1.557  10.854   8.217 -0.0813  0.1777  0.0261
   98loPI   C4A 1562   1.618  10.861   7.859 -0.2026  0.0976  0.2756
   98loPI   C5A 1563   1.440  11.165   7.679  0.1674 -0.2517  0.1706
   98loPI   C6A 1564   1.209  11.329   7.279 -0.4675  0.1509  0.2394
   98loPI   C1B 1565   0.986  10.061   8.930  0.2848 -0.0740 -0.0718
   98loPI   C2B 1566   1.127  10.032   8.535  0.1856  0.1918  0.1832
   98loPI   C3B 1567   1.108   9.866   8.102 -0.3285 -0.2946 -0.1455
   98loPI   C4B 1568   1.330   9.694   7.679  0.1773  0.3738 -0.1239
   99loPI    C1 1569   8.717  15.947   9.772 -0.2124 -0.2965 -0.1093
   99loPI    C2 1570   8.723  15.762  10.127 -0.0200 -0.1496 -0.0339
   99loPI    C3 1571   8.438  16.031  10.047  0.0535 -0.0349  0.0866
   99loPI   PO4 1572   8.899  16.053   9.754 -0.0816  0.3575  0.2453
   99loPI   GL1 1573   9.107  16.318   9.597  0.1171  0.1833  0.1349
   99loPI   GL2 1574   9.478  16.508   9.584  0.2021 -0.0586  0.3276
   99loPI   C1A 1575   9.008  16.622   9.368 -0.0099  0.1963  0.0165
   99loPI   C2A 1576   9.022  16.658   8.906  0.2498  0.0340  0.1327
   99loPI   C3A 1577   9.083  16.713   8.462 -0.0210 -0.1453  0.1549
   99loPI   C4A 1578   9.214  16.714   8.047  0.0618 -0.1916 -0.3201
   99loPI   C5A 1579   9.384  17.010   7.673 -0.0936  0.4292  0.1174
   99loPI   C6A 1580   9.538  17.285   7.348 -0.2647 -0.0087 -0.1338
   99loPI   C1B 1581   9.406  16.434   9.119  0.1827  0.1441  0.1665
   99loPI   C2B 1582   9.474  16.519   8.728 -0.2163 -0.0454  0.0134
   99loPI   C3B 1583   9.478  16.410   8.354  0.0743  0.2527 -0.0271
   99loPI   C4B 1584   9.742  16.105   8.412  0.1460  0.0071 -0.0814
  100loPI    C1 1585   1.526  15.771   9.661 -0.2702 -0.0455  0.2364
  100loPI    C2 1586   1.583  15.612  10.024  0.1543 -0.0101  0.1899
  100loPI    C3 1587   1.454  15.989   9.989 -0.2854 -0.1451  0.2996
  100loPI   PO4 1588   1.416  15.524   9.549  0.1242 -0.0928 -0.1247
  100loPI   GL1 1589   1.211  15.411   9.122  0.1816 -0.0456 -0.2404
  100loPI   GL2 1590   0.927  15.652   9.034  0.0159  0.0926 -0.1776
  100loPI   C1A 1591   1.051  15.274   8.772 -0.1453 -0.1106 -0.0150
  100loPI   C2A 1592   0.925  15.260   8.402  0.2363  0.2100  0.0557
  100loPI   C3A 1593   0.925  15.073   7.966 -0.2701 -0.0364 -0.0831
  100loPI   C4A 1594   0.815  14.662   7.856 -0.0925 -0.3841  0.3111
  100loPI   C5A 1595   0.820  14.241   7.744 -0.1688 -0.0670 -0.0800
  100loPI   C6A 1596   0.624  14.041   8.012  0.0336 -0.0266  0.1440
  100loPI   C1B 1597   0.997  15.781   8.687 -0.0052  0.0041 -0.1530
  100loPI   C2B 1598   1.138  15.833   8.291 -0.1874 -0.0426  0.1722
  100loPI   C3B 1599   1.378  16.137   8.352  0.3057 -0.1456  0.1992
  100loPI   C4B 1600   1.709  16.297   8.635  0.0941 -0.2226 -0.4649
  101loPI    C1 1601   5.333   4.878   9.990 -0.0510 -0.2349 -0.0514
  101loPI    C2 1602   5.554   4.767  10.305  0.1847 -0.0867 -0.1613
  101loPI    C3 1603   5.227   4.991  10.359  0.2859  0.0312 -0.0305
  101loPI   PO4 1604   5.506   4.808   9.817 -0.0930 -0.0257  0.0842
  101loPI   GL1 1605   5.831   4.845   9.545 -0.2273 -0.3522 -0.2991
  101loPI   GL2 1606   5.770   4.684   9.388  0.1302 -0.3128 -0.2480
  101loPI   C1A 1607   6.116   4.983   9.146 -0.0950 -0.1342 -0.4447
  101loPI   C2A 1608   6.139   4.886   8.726 -0.3120 -0.2299  0.0441
  101loPI   C3A 1609   6.008   4.848   8.289 -0.1254  0.2057  0.1326
  101loPI   C4A 1610   5.918   4.792   7.873 -0.1612  0.2204 -0.1212
  101loPI   C5A 1611   5.573   4.774   7.516 -0.0008  0.2420 -0.0938
  101loPI   C6A 1612   5.304   5.097   7.649  0.0562 -0.1769  0.1868
  101loPI   C1B 1613   5.741   4.676   8.983 -0.1679 -0.0155 -0.3278
  101loPI   C2B 1614   5.765   4.498   8.616  0.3419  0.3876 -0.0482
  101loPI   C3B 1615   5.958   4.364   8.294 -0.3074  0.1904  0.0307
  101loPI   C4B 1616   5.915   4.239   7.929  0.0555  0.3789 -0.1386
  102loPI    C1 1617  16.089   9.286  10.072 -0.2067 -0.0510 -0.1365
  102loPI    C2 1618  15.837   9.050   9.870 -0.1773 -0.2276  0.0310
  102loPI    C3 1619  16.069   8.896  10.158  0.1051 -0.0627 -0.1042
  102loPI   PO4 1620  16.077   9.486   9.869 -0.0661  0.2042 -0.3069
  102loPI   GL1 1621  16.072   9.685   9.554  0.1099  0.0446 -0.0054
  102loPI   GL2 1622  16.262   9.463   9.374  0.0361  0.0598 -0.0703
  102loPI   C1A 1623  15.983   9.803   9.241  0.0748  0.0637  0.0304
  102loPI   C2A 1624  16.157  10.202   9.114  0.2551 -0.0664  0.0468
  102loPI   C3A 1625  16.326  10.546   8.793  0.2931  0.0080 -0.0830
  102loPI   C4A 1626  16.362  10.703   8.344  0.5774 -0.4045 -0.0962
  102loPI   C5A 1627  16.415  11.131   8.150 -0.1418  0.2378  0.0813
  102loPI   C6A 1628  16.445  11.549   8.211 -0.0333 -0.1470 -0.2082
  102loPI   C1B 1629  16.444   9.727   9.145  0.1463 -0.0625  0.5301
  102loPI   C2B 1630  16.286   9.894   8.738  0.0040  0.0153 -0.2760
  102loPI   C3B 1631  16.252  10.151   8.356  0.2257  0.0023  0.0182
  102loPI   C4B 1632  16.550  10.217   7.974 -0.2873  0.1097  0.1193
  103loPI    C1 1633   3.962  10.058   9.899  0.1176 -0.0304 -0.0621
  103loPI    C2 1634   3.913  10.426   9.749  0.1837  0.0652  0.1462
  103loPI    C3 1635   3.927  10.372  10.145 -0.0957 -0.1972  0.1240
  103loPI   PO4 1636   4.287  10.033   9.745 -0.1278 -0.1273 -0.1505
  103loPI   GL1 1637   4.347   9.789   9.478 -0.1651 -0.1630 -0.0635
  103loPI   GL2 1638   4.725   9.902   9.547  0.3735 -0.4798 -0.0828
  103loPI   C1A 1639   4.190   9.639   9.097  0.2780  0.4456  0.1181
  103loPI   C2A 1640   4.189   9.703   8.736 -0.4586 -0.0968 -0.0543
  103loPI   C3A 1641   4.050   9.818   8.234  0.0545  0.1279  0.0727
  103loPI   C4A 1642   3.805  10.167   8.112 -0.1859  0.0975 -0.3235
  103loPI   C5A 1643   3.483  10.446   8.143  0.0106 -0.4528  0.1602
  103loPI   C6A 1644   3.096  10.560   8.002 -0.0928  0.0470 -0.1538
  103loPI   C1B 1645   4.625  10.074   9.159  0.1271  0.3134 -0.0537
  103loPI   C2B 1646   4.547  10.143   8.850 -0.1019 -0.0000 -0.1549
  103loPI   C3B 1647   4.554  10.038   8.366 -0.1668 -0.2293  0.1448
  103loPI   C4B 1648   4.728   9.916   7.993 -0.1301  0.4191  0.4385
  104loPI    C1 1649   5.440   6.805   9.837  0.0470 -0.0855 -0.0801
  104loPI    C2 1650   5.755   6.601   9.974  0.2062  0.0797 -0.1957
  104loPI    C3 1651   5.646   6.944  10.150  0.0054 -0.0469 -0.0696
  104loPI   PO4 1652   5.249   6.596   9.763 -0.0173 -0.0964  0.2633
  104loPI   GL1 1653   5.115   6.647   9.351 -0.1040  0.0438 -0.1786
  104loPI   GL2 1654   4.924   6.949   9.281 -0.1869  0.1282  0.2771
  104loPI   C1A 1655   5.273   6.645   8.914  0.0753 -0.1077  0.0302
  104loPI   C2A 1656   5.361   6.756   8.547 -0.2719  0.1182  0.3059
  104loPI   C3A 1657   5.403   7.161   8.335 -0.0622  0.0025  0.0939
  104loPI   C4A 1658   5.171   7.351   8.065  0.1188 -0.0342  0.0382
  104loPI   C5A 1659   4.963   7.475   7.749 -0.3390 -0.1201 -0.3230
  104loPI   C6A 1660   4.909   7.249   7.333  0.2675 -0.2416  0.1794
  104loPI   C1B 1661   4.958   7.110   8.904 -0.1767  0.2223 -0.4468
  104loPI   C2B 1662   4.933   7.063   8.448 -0.1733  0.0545 -0.0530
  104loPI   C3B 1663   5.105   6.843   8.092 -0.2688 -0.1804  0.3081
  104loPI   C4B 1664   5.174   6.603   7.709  0.0785  0.2668 -0.0834
  105loPI    C1 1665  15.996   1.163  10.082  0.2113 -0.0826 -0.0805
  105loPI    C2 1666  15.684   1.080  10.317  0.0948 -0.1054 -0.2414
  105loPI    C3 1667  15.942   1.367  10.422  0.1776 -0.2749  0.0309
  105loPI   PO4 1668  15.870   1.274   9.830  0.0382 -0.2294  0.2837
  105loPI   GL1 1669  16.027   1.506   9.459  0.1022  0.0985  0.2373
  105loPI   GL2 1670  16.334   1.453   9.298  0.1351 -0.0211 -0.4208
  105loPI   C1A 1671  15.611   1.417   9.111 -0.1094  0.1554 -0.1305
  105loPI   C2A 1672  15.560   1.789   8.813  0.0627 -0.0635  0.0672
  105loPI   C3A 1673  15.617   1.776   8.402  0.2213 -0.2423  0.0154
  105loPI   C4A 1674  15.437   1.951   8.108  0.2293 -0.0775  0.1804
  105loPI   C5A 1675  15.446   2.284   7.788 -0.2392  0.1671 -0.0741
  105loPI   C6A 1676  15.595   2.659   8.045  0.3633  0.1899  0.2925
  105loPI   C1B 1677  16.083   1.135   9.066  0.0697 -0.0446 -0.0552
  105loPI   C2B 1678  16.078   0.845   8.720  0.1404  0.1239  0.2618
  105loPI   C3B 1679  15.769   0.670   8.505  0.0660 -0.2052 -0.2095
  105loPI   C4B 1680  15.360   0.628   8.359 -0.2007  0.1175  0.3977
  106loPI    C1 1681   9.827  15.058   9.852 -0.0542  0.1858  0.1572
  106loPI    C2 1682   9.994  15.006  10.212  0.0185 -0.2508  0.0662
  106loPI    C3 1683   9.626  14.867  10.140  0.0067 -0.1706 -0.0305
  106loPI   PO4 1684  10.011  15.010   9.730  0.1341 -0.0195 -0.0300
  106loPI   GL1 1685  10.160  14.729   9.460 -0.1292  0.1061  0.1861
  106loPI   GL2 1686  10.321  15.023   9.378 -0.2261  0.0010  0.1613
  106loPI   C1A 1687  10.303  14.764   8.978  0.3856  0.1162 -0.0891
  106loPI   C2A 1688  10.293  14.837   8.444 -0.0730  0.1988 -0.0799
  106loPI   C3A 1689  10.179  14.887   8.057 -0.2228  0.0930 -0.1072
  106loPI   C4A 1690  10.248  14.825   7.585 -0.2798  0.0688 -0.2495
  106loPI   C5A 1691  10.343  15.080   7.308  0.2094 -0.3756 -0.0206
  106loPI   C6A 1692  10.569  15.475   7.210 -0.1164 -0.2065  0.1496
  106loPI   C1B 1693  10.595  15.292   9.104  0.1872 -0.3278  0.1978
  106loPI   C2B 1694  10.992  15.070   8.944  0.1356  0.0111  0.0499
  106loPI   C3B 1695  11.265  15.176   8.678 -0.1281 -0.5073 -0.2110
  106loPI   C4B 1696  11.303  15.194   8.263 -0.0181  0.1322  0.3246
  107loPI    C1 1697  11.462  18.191   9.577  0.2283  0.1748 -0.2651
  107loPI    C2 1698  11.788  17.978   9.666 -0.0960 -0.2152  0.0315
  107loPI    C3 1699  11.687  18.293   9.892 -0.0220 -0.2011  0.0454
  107loPI   PO4 1700  11.181  18.024   9.616  0.2301  0.1252 -0.1228
  107loPI   GL1 1701  10.815  17.862   9.344  0.0493 -0.4714  0.0278
  107loPI   GL2 1702  10.665  18.109   9.483  0.3372  0.0913 -0.2612
  107loPI   C1A 1703  10.994  17.860   8.949 -0.0461 -0.0176  0.0530
  107loPI   C2A 1704  10.921  17.855   8.655 -0.3972  0.4067 -0.3131
  107loPI   C3A 1705  10.831  17.851   8.192 -0.0407 -0.1277 -0.3273
  107loPI   C4A 1706  10.852  17.628   7.881 -0.2002 -0.2035 -0.1529
  107loPI   C5A 1707  11.190  17.570   7.641 -0.1175  0.0921 -0.0672
  107loPI   C6A 1708  11.703  17.458   7.645  0.2863  0.0428  0.1149
  107loPI   C1B 1709  10.805  18.311   9.114  0.1181  0.0557 -0.1170
  107loPI   C2B 1710  10.788  18.265   8.701  0.2504 -0.1718  0.1181
  107loPI   C3B 1711  10.880  18.402   8.282 -0.5339 -0.4305 -0.0118
  107loPI   C4B 1712  10.850  18.585   7.898  0.0160 -0.0986  0.1100
  108loPI    C1 1713  13.427  16.751   9.958  0.1524 -0.0321 -0.2904
  108loPI    C2 1714  13.361  16.610  10.327 -0.3476  0.0319 -0.3479
  108loPI    C3 1715  13.400  16.357  10.019  0.3983 -0.0386 -0.2142
  108loPI   PO4 1716  13.646  16.919   9.958 -0.0989  0.2324  0.0846
  108loPI   GL1 1717  14.005  17.021   9.524  0.1604 -0.0427 -0.2637
  108loPI   GL2 1718  13.683  16.981   9.511 -0.1187  0.1146  0.1561
  108loPI   C1A 1719  13.982  17.278   9.237  0.1867 -0.4216  0.0006
  108loPI   C2A 1720  14.011  17.356   8.921 -0.3605  0.0226  0.1667
  108loPI   C3A 1721  14.250  17.506   8.638  0.0152 -0.0709 -0.1594
  108loPI   C4A 1722  14.382  17.432   8.276 -0.0694  0.1709  0.1931
  108loPI   C5A 1723  14.332  17.425   7.833 -0.2500 -0.1487 -0.1560
  108loPI   C6A 1724  14.053  17.612   7.559  0.2410 -0.1044 -0.1677
  108loPI   C1B 1725  13.462  16.976   9.117 -0.2727 -0.3125  0.2193
  108loPI   C2B 1726  13.290  16.730   8.791 -0.2258  0.0969  0.1254
  108loPI   C3B 1727  13.440  16.486   8.491  0.0963 -0.0499  0.1297
  108loPI   C4B 1728  13.848  16.253   8.466 -0.1709  0.5201  0.0640
  109loPI    C1 1729  10.649   8.262   9.819  0.0606 -0.2920 -0.0566
  109loPI    C2 1730  10.554   8.367  10.193  0.1924 -0.0187 -0.0974
  109loPI    C3 1731  10.789   8.050  10.128 -0.0157 -0.2039  0.0391
  109loPI   PO4 1732  10.690   8.588   9.731  0.0965  0.0199 -0.1654
  109loPI   GL1 1733  10.804   8.632   9.287  0.1412  0.2707 -0.0434
  109loPI   GL2 1734  10.913   8.295   9.132 -0.0271  0.0649  0.1257
  109loPI   C1A 1735  10.647   8.860   8.964 -0.3135 -0.0749 -0.2721
  109loPI   C2A 1736  10.615   9.015   8.534 -0.4064  0.0518  0.0737
  109loPI   C3A 1737  10.705   9.242   8.178 -0.1400 -0.1385  0.3535
  109loPI   C4A 1738  10.895   9.640   7.918 -0.1141 -0.0069 -0.0234
  109loPI   C5A 1739  11.231   9.667   7.696 -0.0062 -0.1488  0.0238
  109loPI   C6A 1740  11.523   9.816   7.391 -0.3287  0.2394  0.1688
  109loPI   C1B 1741  10.802   8.471   8.724  0.1857 -0.2766 -0.2193
  109loPI   C2B 1742  10.801   8.611   8.377  0.0484 -0.0297  0.1471
  109loPI   C3B 1743  10.923   8.808   8.052  0.0774 -0.0953  0.2370
  109loPI   C4B 1744  11.201   9.121   7.807 -0.2177 -0.3179 -0.1363
  110loPI    C1 1745  17.203   6.041   9.500 -0.0527  0.0700  0.0052
  110loPI    C2 1746  16.805   6.020   9.473 -0.0361 -0.1074 -0.1203
  110loPI    C3 1747  17.022   5.685   9.498  0.1036 -0.0105 -0.0165
  110loPI   PO4 1748  17.306   6.161   9.302 -0.0100 -0.0624  0.0261
  110loPI   GL1 1749  17.200   6.416   9.070 -0.0474 -0.1800 -0.0734
  110loPI   GL2 1750  16.842   6.320   9.034 -0.1130 -0.3565 -0.0373
  110loPI   C1A 1751  17.256   6.150   8.707  0.3170  0.0676 -0.0783
  110loPI   C2A 1752  17.266   5.925   8.254  0.2591  0.4755  0.1980
  110loPI   C3A 1753  17.221   5.686   7.895  0.1656  0.0870 -0.1102
  110loPI   C4A 1754  17.321   5.404   7.633 -0.1511 -0.0716 -0.0005
  110loPI   C5A 1755  17.237   4.937   7.561  0.0875  0.1729  0.0532
  110loPI   C6A 1756  17.230   4.551   7.459 -0.0976  0.0512 -0.0292
  110loPI   C1B 1757  16.838   6.402   8.564 -0.1687 -0.1092  0.3073
  110loPI   C2B 1758  16.865   6.245   8.175 -0.0917 -0.0089  0.0175
  110loPI   C3B 1759  16.704   6.254   7.735 -0.3242  0.2503 -0.0496
  110loPI   C4B 1760  16.601   6.228   7.362 -0.1207  0.0519  0.0475
  111loPI    C1 1761  15.307  11.198   9.878 -0.1504  0.1525 -0.4229
  111loPI    C2 1762  14.926  11.262   9.982 -0.1303 -0.0642 -0.2085
  111loPI    C3 1763  15.201  11.191  10.263  0.0327 -0.1005 -0.3747
  111loPI   PO4 1764  15.304  11.023   9.736 -0.2632  0.1639 -0.0386
  111loPI   GL1 1765  15.566  10.978   9.391 -0.2015 -0.1694  0.2128
  111loPI   GL2 1766  15.841  10.763   9.412  0.1644  0.1030  0.4352
  111loPI   C1A 1767  15.601  11.040   9.018  0.0329 -0.1737 -0.1642
  111loPI   C2A 1768  15.518  11.163   8.612 -0.1480 -0.0342 -0.0339
  111loPI   C3A 1769  15.463  11.322   8.255 -0.1768 -0.2406 -0.1468
  111loPI   C4A 1770  15.467  11.568   7.908  0.1931  0.0912 -0.0320
  111loPI   C5A 1771  15.343  11.958   7.783 -0.0228  0.4250 -0.3393
  111loPI   C6A 1772  15.377  12.378   7.751 -0.3015 -0.0633  0.0834
  111loPI   C1B 1773  15.831  10.654   8.968  0.2366  0.2027 -0.1072
  111loPI   C2B 1774  15.856  10.452   8.584  0.0070  0.0592  0.2552
  111loPI   C3B 1775  15.970  10.548   8.071  0.4038  0.2259  0.1898
  111loPI   C4B 1776  16.128  10.858   7.846  0.0354 -0.2730  0.1112
  112loPI    C1 1777   5.789  17.132  10.647  0.0415 -0.2232  0.1174
  112loPI    C2 1778   5.630  16.787  10.773 -0.2116 -0.1600 -0.0215
  112loPI    C3 1779   5.560  17.125  10.975 -0.1704 -0.1485 -0.0262
  112loPI   PO4 1780   5.721  17.140  10.374 -0.0205 -0.1648  0.2564
  112loPI   GL1 1781   5.658  17.201  10.010  0.0432  0.5114 -0.1342
  112loPI   GL2 1782   5.950  17.460   9.834 -0.3563 -0.0856  0.2335
  112loPI   C1A 1783   5.896  16.943   9.643  0.0304 -0.1021  0.0594
  112loPI   C2A 1784   6.025  16.882   9.274 -0.3090 -0.0970 -0.0695
  112loPI   C3A 1785   5.864  16.701   8.958 -0.5523 -0.0696  0.0146
  112loPI   C4A 1786   5.600  16.868   8.654  0.3265  0.2990  0.2388
  112loPI   C5A 1787   5.624  17.276   8.399 -0.0792 -0.2392 -0.2422
  112loPI   C6A 1788   5.738  17.609   8.118 -0.2320  0.1468 -0.1979
  112loPI   C1B 1789   5.656  17.390   9.520 -0.0399  0.3525 -0.1200
  112loPI   C2B 1790   5.623  17.763   9.376  0.2117 -0.0464 -0.1126
  112loPI   C3B 1791   5.212  17.843   9.057 -0.0442 -0.1846 -0.0213
  112loPI   C4B 1792   5.022  17.589   8.832  0.3867  0.5048 -0.1612
  113loPI    C1 1793   5.853   1.822  10.250  0.0602 -0.3137 -0.4190
  113loPI    C2 1794   5.589   1.848   9.951  0.0217  0.0070 -0.3610
  113loPI    C3 1795   5.469   1.733  10.314 -0.0381  0.1425 -0.3371
  113loPI   PO4 1796   6.016   1.676  10.173 -0.0505 -0.2268 -0.0733
  113loPI   GL1 1797   5.898   1.527   9.755 -0.0005  0.0249  0.2116
  113loPI   GL2 1798   5.980   1.863   9.691 -0.0568  0.0331 -0.1489
  113loPI   C1A 1799   5.425   1.616   9.483  0.1484  0.2663  0.0244
  113loPI   C2A 1800   5.129   1.497   9.137 -0.3815  0.3608  0.1114
  113loPI   C3A 1801   4.815   1.466   8.778 -0.1691  0.3170 -0.2244
  113loPI   C4A 1802   4.727   1.801   8.545 -0.2735  0.4018 -0.1331
  113loPI   C5A 1803   4.774   2.130   8.225  0.0219  0.2192  0.1515
  113loPI   C6A 1804   5.020   2.427   8.098 -0.3160  0.2580  0.0869
  113loPI   C1B 1805   6.111   2.012   9.340 -0.4015  0.0353 -0.3156
  113loPI   C2B 1806   6.053   1.976   9.019 -0.0592 -0.2309  0.1754
  113loPI   C3B 1807   6.163   1.756   8.678 -0.0822  0.1352 -0.0779
  113loPI   C4B 1808   6.200   1.551   8.300 -0.0644  0.5006  0.0491
  114loPI    C1 1809  11.409   7.608   9.706 -0.1565 -0.0677 -0.1488
  114loPI    C2 1810  11.426   7.998   9.792  0.2317 -0.0650 -0.2240
  114loPI    C3 1811  11.318   7.736  10.074  0.0451  0.0877 -0.1515
  114loPI   PO4 1812  11.628   7.595   9.573 -0.0280  0.1104  0.0525
  114loPI   GL1 1813  11.700   7.407   9.283 -0.0810 -0.0443  0.0095
  114loPI   GL2 1814  11.357   7.205   9.285  0.0504 -0.0490 -0.2550
  114loPI   C1A 1815  11.863   7.323   8.984  0.1511 -0.1333 -0.0043
  114loPI   C2A 1816  11.797   7.277   8.587 -0.3834  0.0993  0.1093
  114loPI   C3A 1817  11.759   7.527   8.165  0.0721 -0.1037  0.0465
  114loPI   C4A 1818  11.702   7.910   7.934 -0.1664 -0.1021  0.4624
  114loPI   C5A 1819  11.605   8.226   7.645  0.3363  0.2650  0.0045
  114loPI   C6A 1820  11.253   8.341   7.443  0.2498 -0.0154 -0.0978
  114loPI   C1B 1821  11.292   7.297   8.902 -0.0603  0.1453 -0.1820
  114loPI   C2B 1822  11.260   7.627   8.637  0.1287 -0.1342  0.0121
  114loPI   C3B 1823  11.195   7.683   8.187 -0.0588 -0.0817 -0.1591
  114loPI   C4B 1824  11.189   8.036   7.924  0.1344 -0.1689  0.3153
  115loPI    C1 1825  14.376  14.648   9.976 -0.1175  0.0508  0.1694
  115loPI    C2 1826  14.476  14.354  10.228  0.1344  0.1145  0.1470
  115loPI    C3 1827  14.202  14.625  10.335  0.3807  0.2553  0.4340
  115loPI   PO4 1828  14.313  14.548   9.762 -0.4215 -0.0215  0.2715
  115loPI   GL1 1829  14.550  14.615   9.436  0.0124 -0.0221  0.0292
  115loPI   GL2 1830  14.740  14.727   9.330  0.0739  0.0727  0.0286
  115loPI   C1A 1831  14.248  14.651   9.112 -0.3533  0.2210  0.1938
  115loPI   C2A 1832  14.129  14.811   8.657 -0.0397  0.0610 -0.0502
  115loPI   C3A 1833  13.958  14.856   8.242  0.1025  0.4768 -0.2221
  115loPI   C4A 1834  13.580  14.821   7.920 -0.0270 -0.0579  0.2748
  115loPI   C5A 1835  13.301  14.844   7.575  0.0502  0.1291 -0.0230
  115loPI   C6A 1836  12.901  15.062   7.438  0.1854  0.1495 -0.0500
  115loPI   C1B 1837  14.622  14.980   9.032  0.0072  0.0735  0.3246
  115loPI   C2B 1838  14.627  15.080   8.619 -0.0958  0.6601 -0.1592
  115loPI   C3B 1839  14.420  15.088   8.227  0.1794 -0.0138 -0.0563
  115loPI   C4B 1840  14.197  15.077   7.830 -0.3590 -0.0857 -0.0228
  116loPI    C1 1841  11.643   5.139  10.017  0.3470  0.2051  0.1144
  116loPI    C2 1842  11.686   5.357  10.350 -0.1981  0.0715  0.2832
  116loPI    C3 1843  11.381   5.429  10.101  0.0244 -0.0384 -0.0281
  116loPI   PO4 1844  11.914   5.126   9.923 -0.0393 -0.2965 -0.0267
  116loPI   GL1 1845  11.881   5.218   9.543 -0.2089  0.0802  0.2145
  116loPI   GL2 1846  11.993   5.535   9.461 -0.2796 -0.0975  0.1435
  116loPI   C1A 1847  11.857   5.220   9.043 -0.4307 -0.0497 -0.1297
  116loPI   C2A 1848  11.534   5.187   8.736  0.1109 -0.1214  0.3767
  116loPI   C3A 1849  11.283   4.998   8.362 -0.1418 -0.2222 -0.0438
  116loPI   C4A 1850  11.151   4.868   7.949  0.1372 -0.1707  0.1356
  116loPI   C5A 1851  10.769   5.128   7.757  0.1688 -0.0263 -0.1311
  116loPI   C6A 1852  10.370   5.416   7.697 -0.0773  0.2492 -0.2408
  116loPI   C1B 1853  11.774   5.787   9.147  0.3256 -0.1857  0.2394
  116loPI   C2B 1854  11.662   5.755   8.709 -0.0121 -0.3124  0.0594
  116loPI   C3B 1855  11.686   5.620   8.354 -0.0789  0.0909 -0.3196
  116loPI   C4B 1856  11.425   5.457   8.061 -0.0940 -0.2529 -0.0351
  117loPI    C1 1857  10.990  14.547  10.338 -0.0999 -0.3366 -0.3629
  117loPI    C2 1858  10.943  14.762  10.005  0.0482 -0.0319 -0.1914
  117loPI    C3 1859  11.310  14.662  10.128  0.0107  0.0807  0.0170
  117loPI   PO4 1860  10.834  14.293  10.250 -0.0830 -0.0823  0.0567
  117loPI   GL1 1861  10.835  14.282   9.879  0.3763  0.1221  0.0878
  117loPI   GL2 1862  10.902  14.154   9.638 -0.3361 -0.1125 -0.1266
  117loPI   C1A 1863  10.751  14.620   9.581  0.1361 -0.1930 -0.1313
  117loPI   C2A 1864  10.755  14.631   9.106 -0.3468 -0.0964  0.0967
  117loPI   C3A 1865  10.707  14.716   8.626  0.0551 -0.0401  0.0859
  117loPI   C4A 1866  10.872  14.881   8.176 -0.1544  0.0433 -0.1497
  117loPI   C5A 1867  10.634  14.818   7.874 -0.4314 -0.1462 -0.0306
  117loPI   C6A 1868  10.513  15.235   7.744 -0.2434  0.2160 -0.2320
  117loPI   C1B 1869  10.966  14.228   9.324 -0.1205 -0.1509 -0.3306
  117loPI   C2B 1870  10.928  14.293   8.782 -0.2083 -0.0888 -0.0592
  117loPI   C3B 1871  10.862  14.305   8.400 -0.2074  0.0042  0.0181
  117loPI   C4B 1872  10.877  14.234   8.000  0.0924 -0.5095  0.0538
  118loPI    C1 1873  18.319  17.875   9.923 -0.1918  0.1846  0.0167
  118loPI    C2 1874  18.647  18.101   9.953 -0.2457  0.2589  0.0475
  118loPI    C3 1875  18.524  17.886  10.267 -0.2816  0.3079  0.0672
  118loPI   PO4 1876  18.172  18.077   9.734 -0.1037 -0.0523 -0.1641
  118loPI   GL1 1877  18.201  18.089   9.351  0.0365  0.0256 -0.1272
  118loPI   GL2 1878  17.934  17.859   9.328  0.0473 -0.0634  0.1162
  118loPI   C1A 1879  18.007  18.387   9.135 -0.1018 -0.0247 -0.0224
  118loPI   C2A 1880  17.935  18.621   8.706 -0.0669 -0.4013  0.0474
  118loPI   C3A 1881  17.964  18.546   8.308  0.2122 -0.1820  0.3531
  118loPI   C4A 1882  17.948  18.490   7.885  0.0379  0.2117  0.0020
  118loPI   C5A 1883  18.138  18.313   7.498  0.2171 -0.2985 -0.3448
  118loPI   C6A 1884  18.223  18.251   7.088  0.0422 -0.4904  0.1181
  118loPI   C1B 1885  17.976  17.767   8.953 -0.1808  0.1167  0.3851
  118loPI   C2B 1886  18.119  17.699   8.557 -0.0714 -0.2419  0.1422
  118loPI   C3B 1887  17.991  17.556   8.141 -0.1941 -0.0989  0.0336
  118loPI   C4B 1888  17.545  17.487   7.814 -0.1882 -0.0443  0.0575
  119loPI    C1 1889   3.601   1.662  10.366 -0.0635 -0.3282 -0.1515
  119loPI    C2 1890   3.743   1.290  10.330  0.3238 -0.2316  0.2772
  119loPI    C3 1891   3.679   1.445  10.693  0.0407  0.0780  0.1009
  119loPI   PO4 1892   3.641   1.754  10.145  0.0041  0.2707  0.0693
  119loPI   GL1 1893   3.733   1.815   9.645  0.0793 -0.1843 -0.0094
  119loPI   GL2 1894   3.766   1.565   9.415  0.4163 -0.3266 -0.3105
  119loPI   C1A 1895   3.993   2.058   9.365  0.1447 -0.0154 -0.3027
  119loPI   C2A 1896   3.761   2.049   8.918  0.0153  0.0627 -0.1934
  119loPI   C3A 1897   3.926   2.033   8.384  0.0388 -0.0326 -0.0733
  119loPI   C4A 1898   4.340   1.839   8.106  0.2568 -0.2429 -0.0217
  119loPI   C5A 1899   4.735   1.605   8.013  0.0316 -0.2391  0.0878
  119loPI   C6A 1900   4.964   1.295   8.326  0.1372  0.2828  0.2934
  119loPI   C1B 1901   3.909   1.511   9.079  0.4867 -0.0046 -0.1466
  119loPI   C2B 1902   3.870   1.222   8.704  0.3632  0.2546 -0.1702
  119loPI   C3B 1903   3.971   1.071   8.285 -0.3705 -0.0659  0.0038
  119loPI   C4B 1904   3.710   0.804   7.983 -0.0370 -0.0946 -0.2395
  120loPI    C1 1905   1.444   3.007  10.157 -0.1409 -0.0389  0.1037
  120loPI    C2 1906   1.481   3.212  10.498  0.0714  0.0583  0.0246
  120loPI    C3 1907   1.130   3.046  10.401  0.0268 -0.0257  0.3202
  120loPI   PO4 1908   1.539   3.288   9.988 -0.0251 -0.1586 -0.0618
  120loPI   GL1 1909   1.391   3.505   9.658 -0.1061  0.2237  0.0133
  120loPI   GL2 1910   1.158   3.688   9.593 -0.3307  0.0262 -0.0298
  120loPI   C1A 1911   1.709   3.558   9.364  0.2621  0.1177 -0.0662
  120loPI   C2A 1912   1.802   3.667   8.861  0.0246 -0.0976 -0.1047
  120loPI   C3A 1913   1.911   3.535   8.552 -0.2300  0.3294  0.2119
  120loPI   C4A 1914   1.802   3.401   8.204 -0.1686  0.0343  0.1786
  120loPI   C5A 1915   1.879   3.105   7.924 -0.0686 -0.3558  0.2312
  120loPI   C6A 1916   2.169   2.943   7.544  0.2163 -0.2813 -0.0528
  120loPI   C1B 1917   1.219   3.860   9.231 -0.1843  0.1630  0.0533
  120loPI   C2B 1918   1.330   3.905   8.896 -0.1070 -0.0195  0.1638
  120loPI   C3B 1919   1.496   3.912   8.524 -0.0877  0.0449 -0.4344
  120loPI   C4B 1920   1.277   4.080   8.096 -0.4114 -0.2740 -0.0900
  121loPI    C1 1921   7.882  12.669   9.935  0.0457  0.2137 -0.2014
  121loPI    C2 1922   7.663  12.625  10.267 -0.0712 -0.0462 -0.3100
  121loPI    C3 1923   8.063  12.617  10.288 -0.0769  0.0200 -0.1658
  121loPI   PO4 1924   7.998  12.951   9.789 -0.2981 -0.1534  0.4072
  121loPI   GL1 1925   8.065  12.913   9.305 -0.0584 -0.0004 -0.0104
  121loPI   GL2 1926   8.033  13.125   9.189  0.2091  0.3652 -0.1894
  121loPI   C1A 1927   7.913  12.605   8.912  0.1779 -0.0006 -0.2770
  121loPI   C2A 1928   7.935  12.692   8.474  0.1871 -0.2972 -0.0008
  121loPI   C3A 1929   7.980  12.936   8.104  0.0677  0.0018 -0.0611
  121loPI   C4A 1930   8.172  12.710   7.790  0.2160 -0.1330 -0.1883
  121loPI   C5A 1931   8.422  12.507   7.535 -0.2858 -0.1349 -0.0017
  121loPI   C6A 1932   8.778  12.275   7.321  0.1145  0.0965  0.1968
  121loPI   C1B 1933   7.918  13.216   8.791  0.0110 -0.2849 -0.0961
  121loPI   C2B 1934   8.071  13.347   8.447  0.1866 -0.1911  0.2993
  121loPI   C3B 1935   8.180  13.381   8.074 -0.2347  0.3206 -0.1079
  121loPI   C4B 1936   8.223  13.738   7.811 -0.0748  0.0757  0.1001
  122loPI    C1 1937   2.047   7.845   9.745 -0.1223  0.2820  0.2366
  122loPI    C2 1938   2.082   7.719  10.123  0.0713  0.3084  0.2283
  122loPI    C3 1939   2.405   7.740   9.888 -0.1104 -0.1263 -0.0743
  122loPI   PO4 1940   2.018   8.135   9.728 -0.1327  0.0677 -0.2214
  122loPI   GL1 1941   1.764   8.261   9.404  0.0542 -0.1147  0.2757
  122loPI   GL2 1942   1.937   8.026   9.257 -0.0846 -0.2002  0.1753
  122loPI   C1A 1943   1.448   8.331   9.090 -0.2064 -0.1467 -0.0805
  122loPI   C2A 1944   1.407   8.283   8.701 -0.1089 -0.1859  0.0468
  122loPI   C3A 1945   1.365   8.137   8.253 -0.1284  0.2418  0.1136
  122loPI   C4A 1946   1.275   8.069   7.756  0.0745 -0.0977 -0.0103
  122loPI   C5A 1947   1.234   7.991   7.344 -0.1985  0.1539 -0.0629
  122loPI   C6A 1948   1.433   7.875   6.998  0.5321  0.2032 -0.1296
  122loPI   C1B 1949   1.805   7.904   8.904  0.1148 -0.2890  0.0760
  122loPI   C2B 1950   1.765   7.932   8.588  0.1296  0.0498  0.0728
  122loPI   C3B 1951   1.709   7.743   8.208 -0.1784  0.0638 -0.2221
  122loPI   C4B 1952   1.762   8.025   8.028 -0.0701  0.1374  0.2801
  123loPI    C1 1953  12.859   2.854  10.113 -0.1342  0.1806 -0.0199
  123loPI    C2 1954  13.050   3.091  10.373  0.1953 -0.3099  0.1991
  123loPI    C3 1955  12.889   3.247  10.042  0.5149  0.1969  0.2710
  123loPI   PO4 1956  13.001   2.641  10.018  0.1736  0.1046  0.0041
  123loPI   GL1 1957  13.015   2.412   9.663 -0.1768 -0.1043 -0.1710
  123loPI   GL2 1958  13.198   2.514   9.481 -0.2431 -0.1441  0.0034
  123loPI   C1A 1959  13.103   1.996   9.324 -0.0851  0.1728  0.0313
  123loPI   C2A 1960  13.129   1.906   8.931 -0.0776  0.0886 -0.2805
  123loPI   C3A 1961  12.823   1.957   8.634  0.0546 -0.0356 -0.1647
  123loPI   C4A 1962  12.496   2.066   8.338 -0.0985  0.2778 -0.4924
  123loPI   C5A 1963  12.012   2.024   8.269  0.1076 -0.1962 -0.0129
  123loPI   C6A 1964  11.913   2.378   7.918 -0.0887 -0.0777 -0.0620
  123loPI   C1B 1965  13.171   2.419   9.088  0.5086 -0.3579 -0.0732
  123loPI   C2B 1966  13.094   2.405   8.713 -0.2772 -0.2681 -0.0199
  123loPI   C3B 1967  13.133   2.286   8.360 -0.0671 -0.0541  0.3121
  123loPI   C4B 1968  12.923   2.176   8.025 -0.1194  0.1328  0.4036
  124loPI    C1 1969  11.339  15.016   9.737 -0.0250  0.0141  0.2933
  124loPI    C2 1970  11.022  15.231   9.852 -0.0346  0.3100 -0.2521
  124loPI    C3 1971  11.007  15.018   9.514  0.2065 -0.0253 -0.0584
  124loPI   PO4 1972  11.607  15.223   9.730  0.0400 -0.2358 -0.5685
  124loPI   GL1 1973  12.007  15.045   9.469 -0.1643 -0.0286  0.2067
  124loPI   GL2 1974  11.781  14.777   9.462  0.1414  0.1364  0.1078
  124loPI   C1A 1975  12.272  15.124   9.130 -0.1049 -0.0704 -0.0193
  124loPI   C2A 1976  12.278  15.301   8.784 -0.3043 -0.1271  0.2432
  124loPI   C3A 1977  12.138  15.240   8.411  0.0375  0.0357 -0.2136
  124loPI   C4A 1978  12.111  15.159   7.984  0.0126  0.1629  0.3151
  124loPI   C5A 1979  12.149  14.911   7.589 -0.1033 -0.0024 -0.0579
  124loPI   C6A 1980  12.467  14.890   7.275 -0.1781 -0.1070 -0.2313
  124loPI   C1B 1981  11.786  14.877   9.080  0.2230 -0.3442  0.2133
  124loPI   C2B 1982  11.636  14.923   8.664 -0.0615 -0.0338  0.1986
  124loPI   C3B 1983  11.711  14.937   8.235 -0.0245 -0.0921  0.1834
  124loPI   C4B 1984  11.698  14.921   7.786 -0.1181  0.2213  0.1474
  125loPI    C1 1985  13.877  11.389   9.928  0.0430 -0.1217  0.1103
  125loPI    C2 1986  13.649  11.712   9.873 -0.2697 -0.3348  0.1309
  125loPI    C3 1987  14.045  11.751   9.906 -0.2906  0.0303 -0.0021
  125loPI   PO4 1988  13.729  11.129   9.686 -0.2665  0.1658  0.1105
  125loPI   GL1 1989  13.884  11.014   9.317 -0.2888  0.1529  0.1562
  125loPI   GL2 1990  14.122  10.837   9.235  0.0120  0.1465  0.2144
  125loPI   C1A 1991  13.862  11.012   8.795 -0.2739  0.0139  0.2523
  125loPI   C2A 1992  13.674  11.284   8.454  0.5673  0.0091  0.3603
  125loPI   C3A 1993  13.843  11.150   7.970  0.2892  0.0419 -0.1410
  125loPI   C4A 1994  13.908  11.452   7.607 -0.1554  0.1280 -0.0429
  125loPI   C5A 1995  14.087  11.758   7.351  0.0400 -0.0935  0.1143
  125loPI   C6A 1996  13.933  11.998   6.997  0.0378  0.0847  0.0466
  125loPI   C1B 1997  13.897  10.517   9.053 -0.0274  0.2385  0.0617
  125loPI   C2B 1998  13.864  10.266   8.683 -0.0798  0.1221  0.2498
  125loPI   C3B 1999  13.902  10.263   8.227 -0.2364  0.1160 -0.4028
  125loPI   C4B 2000  14.110   9.901   8.075  0.0656 -0.4900  0.3933
  126loPI    C1 2001  10.731   2.270  10.065 -0.0473  0.0705  0.1102
  126loPI    C2 2002  10.919   2.610  10.162  0.0804 -0.0367  0.2436
  126loPI    C3 2003  10.567   2.522  10.329 -0.0236  0.0980  0.0989
  126loPI   PO4 2004  10.890   2.059  10.118  0.0784 -0.0934 -0.2451
  126loPI   GL1 2005  11.128   1.964   9.741  0.3453 -0.0202  0.1852
  126loPI   GL2 2006  11.154   2.309   9.768  0.0291  0.1329  0.0629
  126loPI   C1A 2007  11.253   2.014   9.352 -0.2865  0.0287 -0.1733
  126loPI   C2A 2008  11.181   2.148   8.825 -0.1673 -0.1184 -0.1189
  126loPI   C3A 2009  10.979   2.356   8.318  0.2006 -0.1082  0.3053
  126loPI   C4A 2010  10.711   2.364   7.909 -0.1058 -0.0379 -0.2078
  126loPI   C5A 2011  10.489   2.105   7.651  0.0821 -0.1171  0.0704
  126loPI   C6A 2012  10.100   2.043   7.470 -0.0079 -0.1491  0.0980
  126loPI   C1B 2013  11.154   2.508   9.389  0.0524 -0.0854 -0.0334
  126loPI   C2B 2014  11.266   2.832   9.100 -0.0481  0.1416  0.1415
  126loPI   C3B 2015  11.089   3.088   8.746  0.0669  0.1915  0.3236
  126loPI   C4B 2016  10.750   2.996   8.490  0.7163  0.1501 -0.3102
  127loPI    C1 2017   2.365   9.534  10.125  0.1227 -0.1293 -0.2392
  127loPI    C2 2018   2.719   9.572  10.308  0.0540  0.0932 -0.1497
  127loPI    C3 2019   2.438   9.333  10.463  0.1685 -0.0946 -0.2283
  127loPI   PO4 2020   2.520   9.805   9.882 -0.0035  0.0910 -0.0097
  127loPI   GL1 2021   2.418   9.790   9.505  0.0860  0.2088  0.1594
  127loPI   GL2 2022   2.191   9.866   9.373  0.0920 -0.3047 -0.0808
  127loPI   C1A 2023   2.617   9.680   9.184 -0.0794  0.2651  0.1518
  127loPI   C2A 2024   2.587   9.645   8.748  0.1393 -0.2067 -0.0737
  127loPI   C3A 2025   2.798   9.629   8.411 -0.1791 -0.2417  0.2553
  127loPI   C4A 2026   2.754   9.726   8.010 -0.2167  0.2290 -0.1351
  127loPI   C5A 2027   2.681   9.805   7.578  0.3084  0.1826 -0.0942
  127loPI   C6A 2028   2.446   9.605   7.236 -0.1694  0.0262  0.2421
  127loPI   C1B 2029   2.016   9.811   8.920  0.1923 -0.0006  0.1606
  127loPI   C2B 2030   2.018   9.808   8.559  0.3239  0.0515 -0.2292
  127loPI   C3B 2031   2.238   9.942   8.275  0.3209 -0.1041  0.2793
  127loPI   C4B 2032   2.220  10.229   7.990  0.2174  0.1905 -0.1212
  128loPI    C1 2033   6.209  15.438  10.177  0.0191  0.0638 -0.0097
  128loPI    C2 2034   6.118  15.454  10.566  0.1991 -0.0389  0.0378
  128loPI    C3 2035   6.179  15.100  10.389  0.1682  0.0103 -0.0724
  128loPI   PO4 2036   6.003  15.628  10.060  0.2567  0.2544  0.3282
  128loPI   GL1 2037   5.884  15.743   9.676  0.0908 -0.1680  0.0289
  128loPI   GL2 2038   5.742  15.466   9.465  0.1360 -0.2000  0.0845
  128loPI   C1A 2039   6.218  15.751   9.383  0.0555  0.0052  0.0983
  128loPI   C2A 2040   6.292  15.379   9.199  0.0505  0.2495 -0.3017
  128loPI   C3A 2041   6.152  15.148   8.915  0.1530 -0.1199  0.1337
  128loPI   C4A 2042   6.012  14.979   8.539  0.0758 -0.1508 -0.0087
  128loPI   C5A 2043   6.254  14.767   8.187 -0.0094  0.1608  0.1122
  128loPI   C6A 2044   6.662  14.702   8.065  0.1191 -0.1694  0.1934
  128loPI   C1B 2045   5.533  15.676   9.128 -0.2121  0.1219 -0.2395
  128loPI   C2B 2046   5.376  15.549   8.670  0.0536  0.2772  0.0235
  128loPI   C3B 2047   5.505  15.344   8.237 -0.2288 -0.1489  0.0437
  128loPI   C4B 2048   5.796  15.060   8.105  0.0015  0.1407 -0.3395
  129loPI    C1 2049   4.209  18.105  10.360 -0.0084 -0.1725  0.0499
  129loPI    C2 2050   4.412  17.818  10.552  0.0316 -0.0999  0.1168
  129loPI    C3 2051   4.167  18.060  10.755 -0.0321 -0.1115  0.0544
  129loPI   PO4 2052   4.456  18.114  10.052 -0.3757  0.3010  0.0330
  129loPI   GL1 2053   4.676  18.325   9.752 -0.2367 -0.1640  0.0472
  129loPI   GL2 2054   4.825  17.975   9.708 -0.0777  0.0050 -0.0800
  129loPI   C1A 2055   4.750  18.512   9.276  0.0003  0.1614 -0.0449
  129loPI   C2A 2056   4.508  18.493   8.886 -0.3132  0.0171  0.1007
  129loPI   C3A 2057   4.456  18.611   8.476 -0.1173  0.0225  0.2602
  129loPI   C4A 2058   4.450  18.480   8.084  0.3175 -0.3243  0.0600
  129loPI   C5A 2059   4.279  18.121   7.970 -0.0033 -0.1269  0.2114
  129loPI   C6A 2060   4.423  17.686   8.043  0.2383 -0.0180  0.0283
  129loPI   C1B 2061   4.751  17.981   9.256  0.0137  0.1165  0.3765
  129loPI   C2B 2062   4.820  18.137   8.830  0.0219 -0.1841  0.0800
  129loPI   C3B 2063   4.912  18.277   8.362  0.2398 -0.0936 -0.2145
  129loPI   C4B 2064   4.900  18.495   7.935  0.0770 -0.2006 -0.0067
  130loPI    C1 2065   4.084   9.543   9.816 -0.3041 -0.3344 -0.1898
  130loPI    C2 2066   4.241   9.358  10.134 -0.2081 -0.0078 -0.0423
  130loPI    C3 2067   4.478   9.563   9.885 -0.3492  0.1646 -0.0359
  130loPI   PO4 2068   3.960   9.306   9.722 -0.3098 -0.0835  0.1687
  130loPI   GL1 2069   4.286   9.045   9.482  0.1561 -0.2634 -0.3521
  130loPI   GL2 2070   4.502   9.304   9.446 -0.1548 -0.0316 -0.0108
  130loPI   C1A 2071   4.076   8.957   9.159 -0.1834 -0.2869  0.3157
  130loPI   C2A 2072   4.113   8.809   8.697 -0.0428  0.0556 -0.1166
  130loPI   C3A 2073   4.019   8.504   8.240 -0.0143 -0.0172 -0.0600
  130loPI   C4A 2074   4.115   8.149   8.049  0.1741  0.2675  0.1614
  130loPI   C5A 2075   3.972   8.032   7.641 -0.3909  0.3600 -0.1812
  130loPI   C6A 2076   3.893   8.300   7.303  0.0031 -0.2525 -0.2741
  130loPI   C1B 2077   4.726   9.529   9.204  0.0700 -0.2819  0.0540
  130loPI   C2B 2078   4.723   9.705   8.717 -0.1092  0.2112  0.2377
  130loPI   C3B 2079   4.626   9.541   8.278 -0.0298  0.0131 -0.1186
  130loPI   C4B 2080   4.852   9.368   8.002 -0.0911  0.1230  0.1363
  131loPI    C1 2081  17.383   5.408   9.845  0.1442  0.1888 -0.0912
  131loPI    C2 2082  17.397   5.577  10.207 -0.2139  0.0046  0.0141
  131loPI    C3 2083  17.597   5.238  10.136 -0.0490  0.1031  0.0031
  131loPI   PO4 2084  17.500   5.655   9.704 -0.0860 -0.1763  0.2608
  131loPI   GL1 2085  17.465   5.642   9.278 -0.0936 -0.2774 -0.0219
  131loPI   GL2 2086  17.221   5.479   9.033 -0.4912 -0.2263  0.3435
  131loPI   C1A 2087  17.788   5.316   8.921 -0.0664  0.3031  0.2039
  131loPI   C2A 2088  17.970   5.124   8.555 -0.0583 -0.0994 -0.2293
  131loPI   C3A 2089  18.026   4.904   8.284 -0.1651  0.0045  0.1557
  131loPI   C4A 2090  18.382   4.969   8.120  0.1185 -0.0032 -0.0947
  131loPI   C5A 2091  18.439   4.847   7.651  0.1009  0.1123  0.0931
  131loPI   C6A 2092  18.415   5.042   7.233 -0.0174  0.3256 -0.1558
  131loPI   C1B 2093  17.184   5.620   8.651  0.3014 -0.1018 -0.0100
  131loPI   C2B 2094  17.077   5.423   8.284 -0.4212  0.0495 -0.1310
  131loPI   C3B 2095  17.017   5.093   7.992 -0.0637  0.1202 -0.0395
  131loPI   C4B 2096  17.089   4.654   7.970  0.0665  0.3002  0.0022
  132loPI    C1 2097   6.599   1.753  10.114  0.1534 -0.0550 -0.1225
  132loPI    C2 2098   6.415   1.772  10.468  0.0711  0.1160 -0.1733
  132loPI    C3 2099   6.566   1.425  10.339 -0.1621 -0.0132 -0.1040
  132loPI   PO4 2100   6.703   2.033  10.164  0.2284  0.0578 -0.0998
  132loPI   GL1 2101   6.997   2.210   9.781 -0.0591  0.1485  0.0249
  132loPI   GL2 2102   7.162   1.920   9.883  0.0465  0.0563 -0.2846
  132loPI   C1A 2103   6.868   2.058   9.409 -0.3070 -0.1858  0.3083
  132loPI   C2A 2104   6.633   2.148   9.095 -0.1934  0.0223  0.0373
  132loPI   C3A 2105   6.520   2.158   8.681  0.0421  0.1158  0.1192
  132loPI   C4A 2106   6.596   1.843   8.400 -0.2057 -0.2642  0.1126
  132loPI   C5A 2107   6.856   1.908   7.929 -0.0873  0.1424 -0.1418
  132loPI   C6A 2108   7.216   1.698   7.828 -0.2610 -0.1499 -0.3370
  132loPI   C1B 2109   7.444   2.047   9.605  0.2262  0.3630  0.0856
  132loPI   C2B 2110   7.490   1.983   9.193 -0.1848  0.0286  0.3665
  132loPI   C3B 2111   7.491   2.121   8.656  0.2342 -0.1582  0.0083
  132loPI   C4B 2112   7.697   2.334   8.284  0.0857  0.1876  0.2187
  133loPI    C1 2113  13.485   3.622   9.774 -0.0208 -0.0042 -0.1710
  133loPI    C2 2114  13.295   3.943   9.629 -0.3593 -0.0673  0.1195
  133loPI    C3 2115  13.103   3.688   9.870  0.0034 -0.3123  0.1582
  133loPI   PO4 2116  13.639   3.559   9.544  0.3142  0.0801 -0.2553
  133loPI   GL1 2117  13.583   3.365   9.193 -0.0995  0.1903  0.0037
  133loPI   GL2 2118  13.778   2.986   9.455  0.1615  0.0152  0.0126
  133loPI   C1A 2119  13.481   3.356   8.740  0.2826 -0.1366 -0.0954
  133loPI   C2A 2120  13.477   3.706   8.505  0.2733 -0.1113 -0.2483
  133loPI   C3A 2121  13.280   3.751   8.064 -0.0089 -0.0216 -0.1604
  133loPI   C4A 2122  12.834   3.956   7.963 -0.2901  0.0038 -0.0535
  133loPI   C5A 2123  12.469   4.072   8.115 -0.1074  0.2142 -0.1802
  133loPI   C6A 2124  12.194   4.265   8.355  0.2105  0.4135 -0.5436
  133loPI   C1B 2125  13.906   3.065   8.935 -0.1740 -0.0551 -0.1087
  133loPI   C2B 2126  13.889   2.941   8.446  0.0141 -0.2550  0.0090
  133loPI   C3B 2127  13.671   3.287   8.167 -0.0968 -0.0756 -0.1202
  133loPI   C4B 2128  13.333   3.026   7.896  0.1136 -0.0491 -0.1962
  134loPI    C1 2129  19.035   1.210   9.901  0.1560 -0.1186 -0.0881
  134loPI    C2 2130  19.225   1.289  10.244 -0.1321 -0.0691  0.0631
  134loPI    C3 2131  18.959   1.549  10.099 -0.1789 -0.1955 -0.0799
  134loPI   PO4 2132  19.188   1.163   9.729 -0.1254 -0.3247 -0.1751
  134loPI   GL1 2133  19.455   1.315   9.414 -0.0932  0.1049 -0.0468
  134loPI   GL2 2134  19.492   1.652   9.483 -0.1975  0.1482  0.3606
  134loPI   C1A 2135  19.651   1.524   9.016 -0.2482  0.3522 -0.0471
  134loPI   C2A 2136  19.612   1.670   8.512 -0.0234  0.2435  0.1294
  134loPI   C3A 2137  19.629   1.660   8.126  0.0006 -0.0031 -0.0865
  134loPI   C4A 2138  19.556   1.767   7.715  0.0274  0.3023  0.0431
  134loPI   C5A 2139  19.367   1.585   7.279  0.1854  0.3360  0.0637
  134loPI   C6A 2140  19.658   1.354   6.923 -0.3284 -0.0990 -0.0410
  134loPI   C1B 2141  19.185   1.651   9.132 -0.0063  0.1725 -0.0341
  134loPI   C2B 2142  19.050   1.756   8.672 -0.1513 -0.4099 -0.2199
  134loPI   C3B 2143  19.152   1.723   8.254 -0.0009  0.1753 -0.0078
  134loPI   C4B 2144  19.128   1.899   7.907  0.2366 -0.1168 -0.0222
  135loPI    C1 2145  13.651   3.261  10.350 -0.2774  0.1091 -0.2287
  135loPI    C2 2146  13.479   3.021  10.620  0.0030 -0.0660 -0.2018
  135loPI    C3 2147  13.843   3.172  10.689  0.0074  0.0218 -0.4093
  135loPI   PO4 2148  13.426   3.313  10.172  0.1936 -0.0665  0.1015
  135loPI   GL1 2149  13.235   3.080   9.727  0.1802 -0.1505 -0.1247
  135loPI   GL2 2150  12.876   3.052   9.615  0.1165 -0.0299 -0.0174
  135loPI   C1A 2151  13.324   2.952   9.268 -0.2146  0.0200 -0.0867
  135loPI   C2A 2152  13.393   2.835   8.791 -0.0717 -0.4478 -0.1955
  135loPI   C3A 2153  13.427   2.733   8.392 -0.2678  0.4984 -0.1071
  135loPI   C4A 2154  13.759   2.792   7.877 -0.2732 -0.4408 -0.1706
  135loPI   C5A 2155  14.015   2.717   7.633  0.1724 -0.1374 -0.0232
  135loPI   C6A 2156  14.515   2.791   7.556  0.0969 -0.1992 -0.1444
  135loPI   C1B 2157  12.860   2.810   9.320 -0.0509  0.0578  0.0651
  135loPI   C2B 2158  12.814   2.790   8.924  0.0735  0.0039  0.0214
  135loPI   C3B 2159  13.012   2.964   8.563  0.1148 -0.2988 -0.0415
  135loPI   C4B 2160  13.098   3.316   8.383 -0.1416  0.2399  0.4807
  136loPI    C1 2161   8.065  15.658  10.309 -0.1983  0.2434  0.2727
  136loPI    C2 2162   7.965  15.946  10.568  0.0387  0.4533  0.1361
  136loPI    C3 2163   8.278  15.708  10.644 -0.2902  0.0768  0.3576
  136loPI   PO4 2164   8.083  15.643   9.962 -0.0338 -0.2567  0.1359
  136loPI   GL1 2165   8.246  15.806   9.525  0.0332  0.3461 -0.0621
  136loPI   GL2 2166   8.472  15.916   9.323 -0.1629  0.0806 -0.0793
  136loPI   C1A 2167   8.065  15.630   9.110 -0.0341 -0.1231  0.1933
  136loPI   C2A 2168   8.114  15.563   8.712 -0.2508  0.1670 -0.2451
  136loPI   C3A 2169   8.372  15.594   8.331 -0.0912  0.1664 -0.0602
  136loPI   C4A 2170   8.321  15.767   7.916 -0.2293 -0.0507  0.2051
  136loPI   C5A 2171   8.009  15.701   7.579 -0.0352  0.0725 -0.1363
  136loPI   C6A 2172   7.599  15.644   7.518 -0.0221  0.0501  0.2223
  136loPI   C1B 2173   8.543  15.843   8.851 -0.2802 -0.1368  0.1746
  136loPI   C2B 2174   8.503  16.029   8.485  0.4221 -0.0905 -0.0672
  136loPI   C3B 2175   8.169  16.059   8.288 -0.1247  0.3087  0.1700
  136loPI   C4B 2176   7.985  16.119   7.913 -0.4198 -0.1951  0.0366
  137loPI    C1 2177  17.637  16.712   9.778 -0.0669  0.0310  0.0277
  137loPI    C2 2178  17.812  16.394   9.947  0.0924  0.0580 -0.0841
  137loPI    C3 2179  17.910  16.763  10.067 -0.1064  0.0658  0.0591
  137loPI   PO4 2180  17.550  16.576   9.575 -0.1765 -0.4054  0.1878
  137loPI   GL1 2181  17.541  16.870   9.180  0.2566  0.0088 -0.1425
  137loPI   GL2 2182  17.563  16.510   9.028  0.1071  0.1922 -0.1756
  137loPI   C1A 2183  17.463  17.006   8.793 -0.0322 -0.0181  0.0971
  137loPI   C2A 2184  17.493  17.156   8.415  0.0148 -0.0089 -0.3767
  137loPI   C3A 2185  17.543  16.978   8.072  0.1827 -0.0267  0.1744
  137loPI   C4A 2186  17.803  17.101   7.780 -0.0107 -0.0683 -0.1072
  137loPI   C5A 2187  18.009  17.425   7.559  0.0488 -0.2479 -0.1482
  137loPI   C6A 2188  17.666  17.643   7.359  0.1882  0.2442  0.2500
  137loPI   C1B 2189  17.307  16.326   8.779 -0.0317 -0.3145 -0.2435
  137loPI   C2B 2190  17.197  16.139   8.374  0.1510 -0.0964 -0.1190
  137loPI   C3B 2191  16.928  15.901   8.199 -0.1345  0.0429  0.1997
  137loPI   C4B 2192  16.685  15.771   7.871  0.5225  0.0123 -0.2463
  138loPI    C1 2193  15.781  13.773   9.781  0.2194  0.0269 -0.1055
  138loPI    C2 2194  16.015  14.062   9.634 -0.1800  0.3861 -0.0563
  138loPI    C3 2195  15.619  14.113   9.646 -0.2550 -0.1528 -0.0077
  138loPI   PO4 2196  15.797  13.578   9.603 -0.3339  0.1395  0.0571
  138loPI   GL1 2197  16.042  13.327   9.400 -0.4608 -0.1445 -0.1521
  138loPI   GL2 2198  15.771  13.151   9.270  0.2998 -0.0896  0.2600
  138loPI   C1A 2199  16.153  13.367   8.957  0.0093  0.1735 -0.1699
  138loPI   C2A 2200  16.053  13.410   8.526 -0.1158 -0.0403 -0.1604
  138loPI   C3A 2201  15.873  13.418   8.130  0.0620  0.0075  0.0357
  138loPI   C4A 2202  15.757  13.562   7.728  0.0743 -0.1055 -0.4308
  138loPI   C5A 2203  15.316  13.747   7.497  0.0254  0.1427 -0.1155
  138loPI   C6A 2204  14.933  13.726   7.477  0.1574  0.2129 -0.1480
  138loPI   C1B 2205  15.730  13.092   8.803 -0.0652  0.0689  0.0662
  138loPI   C2B 2206  15.741  12.843   8.429 -0.0693  0.1574 -0.0613
  138loPI   C3B 2207  15.451  12.662   8.138 -0.5987 -0.2159 -0.2553
  138loPI   C4B 2208  15.049  12.489   8.255  0.0578 -0.2409  0.1175
  139loPI    C1 2209  15.708  14.539   9.933  0.0528 -0.0122  0.1592
  139loPI    C2 2210  16.104  14.495   9.896  0.0525  0.0865  0.0318
  139loPI    C3 2211  15.937  14.501  10.259  0.1611 -0.0095  0.0840
  139loPI   PO4 2212  15.605  14.708   9.690 -0.2153 -0.0290  0.3261
  139loPI   GL1 2213  15.568  14.786   9.189  0.1001 -0.2166 -0.0515
  139loPI   GL2 2214  15.276  14.910   9.148 -0.0530  0.3089  0.0108
  139loPI   C1A 2215  15.434  14.659   8.738  0.0661 -0.3660 -0.0043
  139loPI   C2A 2216  15.074  14.868   8.493 -0.2235  0.0613 -0.1201
  139loPI   C3A 2217  14.925  15.158   8.231 -0.1846 -0.0753 -0.2811
  139loPI   C4A 2218  14.676  15.304   7.852 -0.0839 -0.0254 -0.0164
  139loPI   C5A 2219  14.510  15.536   7.582  0.3226 -0.0203  0.2006
  139loPI   C6A 2220  14.480  15.750   7.166  0.1095  0.1600 -0.1427
  139loPI   C1B 2221  15.209  15.252   8.793 -0.1423  0.2372 -0.5470
  139loPI   C2B 2222  15.373  15.418   8.395  0.1482  0.0143  0.0387
  139loPI   C3B 2223  15.415  15.357   8.033  0.0539 -0.2761 -0.0092
  139loPI   C4B 2224  15.313  15.105   7.838 -0.0257  0.2112 -0.1793
  140loPI    C1 2225   4.172  12.506   9.832  0.0418 -0.0879  0.1814
  140loPI    C2 2226   4.462  12.531  10.106  0.1994 -0.1994  0.0269
  140loPI    C3 2227   4.185  12.818  10.081  0.1626 -0.2063  0.3249
  140loPI   PO4 2228   4.134  12.243   9.863 -0.2218  0.0462 -0.0984
  140loPI   GL1 2229   4.006  11.990   9.556 -0.0257  0.1586  0.0276
  140loPI   GL2 2230   4.312  12.057   9.333 -0.1551 -0.1258  0.0823
  140loPI   C1A 2231   4.090  11.538   9.366 -0.0962  0.2843 -0.1390
  140loPI   C2A 2232   4.064  11.459   8.857  0.1184  0.2582  0.0463
  140loPI   C3A 2233   4.005  11.472   8.454  0.4089  0.3038 -0.2386
  140loPI   C4A 2234   3.952  11.347   8.010  0.0742  0.1020 -0.1402
  140loPI   C5A 2235   3.793  11.147   7.736 -0.1285 -0.1925 -0.1166
  140loPI   C6A 2236   3.447  11.198   7.491  0.1040  0.0249 -0.3015
  140loPI   C1B 2237   4.161  11.938   8.918 -0.0585 -0.0749  0.0561
  140loPI   C2B 2238   3.983  12.111   8.551  0.1643 -0.2745 -0.0207
  140loPI   C3B 2239   4.014  12.276   8.139 -0.2957 -0.0559 -0.2676
  140loPI   C4B 2240   3.901  12.315   7.708 -0.0297 -0.1297  0.4045
  141loPI    C1 2241  16.335   3.431   9.613  0.3698  0.2919 -0.2023
  141loPI    C2 2242  16.302   3.125   9.357 -0.1409 -0.0447  0.2435
  141loPI    C3 2243  16.522   3.086   9.689  0.0268  0.1781  0.1611
  141loPI   PO4 2244  16.528   3.704   9.626 -0.1781 -0.3147  0.1963
  141loPI   GL1 2245  16.594   3.822   9.257  0.2771 -0.0494 -0.1411
  141loPI   GL2 2246  16.663   3.499   9.059  0.1028  0.1023 -0.2565
  141loPI   C1A 2247  16.203   3.683   8.921 -0.1066  0.1979 -0.3219
  141loPI   C2A 2248  16.343   3.483   8.511  0.0438 -0.1289  0.2356
  141loPI   C3A 2249  16.422   3.457   8.051  0.1617  0.2386  0.2310
  141loPI   C4A 2250  16.148   3.215   7.801  0.0522 -0.0154 -0.1159
  141loPI   C5A 2251  15.760   3.050   7.803 -0.0512 -0.1911  0.0604
  141loPI   C6A 2252  15.390   2.777   7.593 -0.1274 -0.2894 -0.2947
  141loPI   C1B 2253  16.736   3.326   8.804  0.1907 -0.3541 -0.0498
  141loPI   C2B 2254  16.530   3.051   8.475 -0.1209  0.2620  0.0820
  141loPI   C3B 2255  16.501   2.972   7.995  0.3994 -0.0099  0.1277
  141loPI   C4B 2256  16.560   2.797   7.594  0.1269 -0.2678 -0.2684
  142loPI    C1 2257  11.597  17.059  10.039 -0.3553  0.0660  0.0997
  142loPI    C2 2258  11.458  16.740  10.237  0.1743 -0.2118  0.0423
  142loPI    C3 2259  11.637  17.037  10.436 -0.1459 -0.0355  0.0743
  142loPI   PO4 2260  11.358  17.203   9.887  0.0477 -0.1366 -0.1589
  142loPI   GL1 2261  11.376  17.447   9.579 -0.1423  0.1078  0.1473
  142loPI   GL2 2262  11.682  17.583   9.396  0.2842  0.3141  0.0267
  142loPI   C1A 2263  11.272  17.511   9.173  0.0405  0.1684  0.0462
  142loPI   C2A 2264  11.311  17.280   8.803  0.3151  0.1423  0.0166
  142loPI   C3A 2265  11.473  17.025   8.462  0.0578  0.1265  0.0693
  142loPI   C4A 2266  11.757  16.964   8.262 -0.1250 -0.2288 -0.0324
  142loPI   C5A 2267  12.200  16.821   8.374 -0.0662  0.2566 -0.1830
  142loPI   C6A 2268  12.566  16.645   8.249  0.0343 -0.0249  0.0041
  142loPI   C1B 2269  11.782  17.457   8.955 -0.0380  0.1124  0.3069
  142loPI   C2B 2270  11.739  17.427   8.548 -0.0141 -0.3258 -0.0582
  142loPI   C3B 2271  11.737  17.553   8.175  0.3152  0.1130 -0.1461
  142loPI   C4B 2272  11.449  17.732   8.019  0.0307 -0.0044 -0.0505
  143loPI    C1 2273  12.783  12.786  10.091 -0.0588 -0.1579  0.1529
  143loPI    C2 2274  12.830  13.083  10.355  0.2803 -0.1570  0.0965
  143loPI    C3 2275  12.750  13.166   9.972 -0.0888 -0.1549  0.1708
  143loPI   PO4 2276  13.041  12.631  10.103  0.0180 -0.1255  0.3229
  143loPI   GL1 2277  13.124  12.542   9.694 -0.0592 -0.1211 -0.3163
  143loPI   GL2 2278  13.388  12.611   9.410  0.0354  0.1298 -0.3085
  143loPI   C1A 2279  12.959  12.811   9.321 -0.0410  0.0229 -0.2065
  143loPI   C2A 2280  13.308  12.974   9.011  0.0557 -0.1759 -0.1488
  143loPI   C3A 2281  13.506  13.035   8.599 -0.0154  0.0716 -0.2699
  143loPI   C4A 2282  13.725  13.252   8.278 -0.0215 -0.2304 -0.1756
  143loPI   C5A 2283  13.628  13.327   7.763 -0.2412 -0.1404 -0.0624
  143loPI   C6A 2284  13.537  13.264   7.288 -0.0922 -0.0701 -0.1180
  143loPI   C1B 2285  13.124  12.498   8.954 -0.1905  0.2247 -0.0350
  143loPI   C2B 2286  13.242  12.627   8.608 -0.0278 -0.0874 -0.2364
  143loPI   C3B 2287  13.623  12.573   8.363 -0.1419 -0.0405 -0.1382
  143loPI   C4B 2288  13.937  12.651   8.186  0.4001  0.0675  0.0639
  144loPI    C1 2289  10.197  12.316   9.589  0.2695 -0.0298 -0.0094
  144loPI    C2 2290  10.068  12.189   9.946 -0.2002  0.2997 -0.0521
  144loPI    C3 2291   9.923  12.025   9.611  0.1098  0.1121 -0.0990
  144loPI   PO4 2292  10.387  12.247   9.483  0.0720 -0.1526 -0.1024
  144loPI   GL1 2293  10.341  12.044   9.118 -0.1555 -0.1425  0.1706
  144loPI   GL2 2294  10.007  12.093   9.108 -0.0314 -0.2024  0.2064
  144loPI   C1A 2295  10.599  12.082   8.780 -0.0174  0.1709 -0.0074
  144loPI   C2A 2296  10.505  11.993   8.323  0.3749  0.0450  0.4628
  144loPI   C3A 2297  10.324  11.941   7.936 -0.0171  0.3893 -0.0637
  144loPI   C4A 2298  10.203  12.052   7.452  0.0586  0.2955 -0.1974
  144loPI   C5A 2299   9.951  12.274   7.158  0.0326  0.0574  0.2699
  144loPI   C6A 2300   9.750  12.588   6.928 -0.1049 -0.0198 -0.3951
  144loPI   C1B 2301  10.060  11.976   8.707  0.1809  0.1529 -0.0041
  144loPI   C2B 2302   9.861  11.934   8.303  0.1959  0.1421 -0.2711
  144loPI   C3B 2303   9.691  12.023   7.988  0.2157  0.0765 -0.0766
  144loPI   C4B 2304   9.702  11.917   7.515  0.1573  0.0809 -0.0858
  145loPI    C1 2305   4.389  18.600  10.403  0.0519  0.1510 -0.3798
  145loPI    C2 2306   4.729  18.468  10.237  0.2178 -0.0761  0.1200
  145loPI    C3 2307   4.618  18.336  10.598 -0.1312  0.4038  0.1980
  145loPI   PO4 2308   4.176  18.638  10.209  0.0377 -0.5300  0.1581
  145loPI   GL1 2309   4.046  18.807   9.922  0.3991 -0.4167 -0.0472
  145loPI   GL2 2310   4.374  18.751   9.754  0.0870  0.0818  0.2030
  145loPI   C1A 2311   3.860  19.158   9.592  0.2193  0.1043  0.0961
  145loPI   C2A 2312   3.875  19.083   9.208  0.2334 -0.1745 -0.2945
  145loPI   C3A 2313   3.704  18.980   8.767  0.0260 -0.0163  0.0071
  145loPI   C4A 2314   3.719  19.072   8.296 -0.0340  0.0394 -0.0658
  145loPI   C5A 2315   3.453  19.288   7.928  0.1050 -0.0311 -0.0130
  145loPI   C6A 2316   3.054  19.236   7.743  0.1016  0.1543  0.0108
  145loPI   C1B 2317   4.342  19.068   9.419 -0.1503 -0.2429 -0.1212
  145loPI   C2B 2318   4.322  18.959   8.971 -0.1271 -0.3042  0.2187
  145loPI   C3B 2319   4.649  19.164   8.657  0.1407 -0.0726 -0.2110
  145loPI   C4B 2320   4.666  19.425   8.270  0.0318  0.2012 -0.2951
  146loPI    C1 2321  16.468   5.801   9.774 -0.0618 -0.1431 -0.2492
  146loPI    C2 2322  16.117   5.911   9.931  0.0496 -0.0846 -0.0380
  146loPI    C3 2323  16.335   5.624  10.107  0.1690 -0.0287 -0.0931
  146loPI   PO4 2324  16.411   5.734   9.499 -0.2054 -0.2039  0.2545
  146loPI   GL1 2325  16.522   5.922   9.039 -0.0817 -0.3352  0.0556
  146loPI   GL2 2326  16.811   5.863   9.025 -0.1799  0.1635  0.1482
  146loPI   C1A 2327  16.324   5.757   8.748  0.0457  0.1313  0.1124
  146loPI   C2A 2328  15.897   5.928   8.611  0.0192  0.2083  0.0963
  146loPI   C3A 2329  15.788   6.006   8.170  0.5582 -0.3886  0.0344
  146loPI   C4A 2330  15.595   5.857   7.729 -0.1127  0.1867 -0.3356
  146loPI   C5A 2331  15.573   5.452   7.390 -0.1278  0.1252 -0.2757
  146loPI   C6A 2332  16.017   5.270   7.343 -0.2575 -0.0089  0.1411
  146loPI   C1B 2333  16.745   5.867   8.559 -0.1912  0.1702 -0.1956
  146loPI   C2B 2334  16.687   5.758   8.222  0.2299  0.2223 -0.0920
  146loPI   C3B 2335  16.625   5.540   7.892 -0.2094  0.0513 -0.2786
  146loPI   C4B 2336  16.489   5.523   7.450  0.3113 -0.1389 -0.2795
  147loPI    C1 2337  12.396   9.008   9.752 -0.3936 -0.1344 -0.0305
  147loPI    C2 2338  12.119   8.976  10.039 -0.1776 -0.0442  0.1923
  147loPI    C3 2339  12.459   9.175  10.110 -0.1044 -0.0529 -0.1161
  147loPI   PO4 2340  12.435   8.870   9.634  0.0897 -0.0486 -0.0809
  147loPI   GL1 2341  12.480   8.724   9.262  0.2211 -0.1108  0.3192
  147loPI   GL2 2342  12.604   8.487   9.062 -0.3682  0.2055  0.1699
  147loPI   C1A 2343  12.576   8.908   8.770 -0.2309  0.1193 -0.0424
  147loPI   C2A 2344  12.719   9.263   8.516 -0.1720 -0.2784 -0.1741
  147loPI   C3A 2345  12.695   9.399   8.105  0.0792  0.1120  0.4396
  147loPI   C4A 2346  12.680   9.798   7.884  0.0375  0.1512 -0.2783
  147loPI   C5A 2347  12.691  10.142   7.544  0.0125  0.1362 -0.0178
  147loPI   C6A 2348  12.647  10.605   7.473 -0.0861  0.3439 -0.1230
  147loPI   C1B 2349  12.906   8.314   8.797  0.2590 -0.2336  0.0210
  147loPI   C2B 2350  13.186   8.092   8.563 -0.2916  0.0096 -0.3566
  147loPI   C3B 2351  13.445   7.963   8.140 -0.0193 -0.0437  0.1419
  147loPI   C4B 2352  13.796   8.300   8.130  0.1765 -0.1401  0.2863
  148loPI    C1 2353  10.961  10.567  10.115  0.0052  0.1317 -0.1379
  148loPI    C2 2354  11.005  10.170  10.092  0.0737  0.1538 -0.4264
  148loPI    C3 2355  11.219  10.379  10.357 -0.0511 -0.0131 -0.1892
  148loPI   PO4 2356  10.995  10.581   9.824  0.0293 -0.3052  0.0145
  148loPI   GL1 2357  10.772  10.582   9.317  0.0407 -0.1053  0.1421
  148loPI   GL2 2358  10.692  10.317   9.223 -0.0931  0.0784 -0.1525
  148loPI   C1A 2359  11.156  10.805   9.083 -0.1204  0.0172  0.2452
  148loPI   C2A 2360  11.199  10.868   8.693 -0.0610  0.1381  0.1375
  148loPI   C3A 2361  11.097  10.977   8.235  0.0512 -0.0285 -0.0574
  148loPI   C4A 2362  11.354  11.162   7.874  0.1557  0.0557  0.0743
  148loPI   C5A 2363  11.565  10.845   7.594 -0.0476  0.2536 -0.0367
  148loPI   C6A 2364  11.260  10.566   7.373  0.1269  0.1763  0.0018
  148loPI   C1B 2365  10.599  10.574   8.801 -0.2896  0.2657  0.1297
  148loPI   C2B 2366  10.753  10.635   8.368 -0.3756  0.1833 -0.1860
  148loPI   C3B 2367  10.584  10.911   7.954 -0.3222 -0.0884 -0.0650
  148loPI   C4B 2368  10.593  11.123   7.493 -0.1444 -0.3063  0.2679
  149loPI    C1 2369   6.324   6.859   9.565  0.0637  0.1087 -0.0855
  149loPI    C2 2370   6.410   6.753   9.190 -0.0748 -0.1449 -0.0476
  149loPI    C3 2371   6.589   6.568   9.495  0.0050  0.0309  0.0134
  149loPI   PO4 2372   6.036   6.760   9.574  0.1088  0.0983  0.0912
  149loPI   GL1 2373   5.596   6.625   9.365  0.2304  0.2452 -0.0387
  149loPI   GL2 2374   5.563   6.987   9.354  0.0564  0.2698 -0.4287
  149loPI   C1A 2375   5.746   6.656   8.984  0.0072 -0.1271  0.2940
  149loPI   C2A 2376   6.165   6.809   8.765 -0.2454  0.0308 -0.0551
  149loPI   C3A 2377   6.300   6.696   8.337 -0.2594 -0.0438  0.1731
  149loPI   C4A 2378   6.567   6.642   8.005  0.3876  0.1930 -0.0393
  149loPI   C5A 2379   6.894   6.364   7.941  0.2981 -0.0235 -0.1224
  149loPI   C6A 2380   7.295   6.079   7.948 -0.0356 -0.0086  0.0972
  149loPI   C1B 2381   5.485   7.169   8.975  0.0666 -0.3777 -0.4344
  149loPI   C2B 2382   5.744   7.141   8.708 -0.2096  0.0599 -0.2082
  149loPI   C3B 2383   5.836   6.865   8.400  0.0860  0.1561  0.1952
  149loPI   C4B 2384   5.796   6.453   8.278 -0.1388  0.0249  0.2822
  150loPI    C1 2385  12.619  16.038  10.519 -0.0017 -0.1442 -0.0373
  150loPI    C2 2386  12.793  16.397  10.503  0.0322 -0.1625 -0.0854
  150loPI    C3 2387  12.822  16.176  10.835  0.0477 -0.1391 -0.0711
  150loPI   PO4 2388  12.253  16.118  10.390 -0.0676 -0.0229  0.2291
  150loPI   GL1 2389  12.166  16.247   9.969  0.0690  0.1168 -0.0058
  150loPI   GL2 2390  12.084  15.944   9.827  0.1854 -0.1222  0.1029
  150loPI   C1A 2391  12.504  16.104   9.560  0.1000 -0.0517  0.3515
  150loPI   C2A 2392  12.449  16.308   9.085  0.2107 -0.1558 -0.1874
  150loPI   C3A 2393  12.500  16.177   8.652 -0.1187  0.0364 -0.1724
  150loPI   C4A 2394  12.664  16.155   8.234 -0.2505 -0.0784  0.3955
  150loPI   C5A 2395  12.768  15.866   7.926  0.3077  0.1946  0.1925
  150loPI   C6A 2396  12.826  15.581   7.665 -0.5644 -0.0185  0.3129
  150loPI   C1B 2397  12.068  16.041   9.352  0.6444  0.0562 -0.2461
  150loPI   C2B 2398  12.097  15.989   8.982 -0.0712 -0.1648  0.2442
  150loPI   C3B 2399  12.129  15.804   8.584  0.0353  0.0430  0.2917
  150loPI   C4B 2400  12.271  15.842   8.089 -0.1213 -0.2096 -0.0607
  151loPI    C1 2401   0.399  10.204  10.040  0.1099 -0.1641  0.0648
  151loPI    C2 2402   0.075   9.971  10.067 -0.0676  0.0604 -0.0843
  151loPI    C3 2403   0.072  10.337  10.228  0.1841 -0.0098  0.0866
  151loPI   PO4 2404   0.454  10.070   9.676 -0.0867  0.1315 -0.0523
  151loPI   GL1 2405   0.175  10.110   9.314 -0.0166 -0.0240  0.0012
  151loPI   GL2 2406   0.514  10.090   9.172  0.0976  0.2136 -0.0386
  151loPI   C1A 2407   0.009  10.082   8.775  0.3657  0.3230 -0.0580
  151loPI   C2A 2408  -0.045   9.798   8.360  0.6504  0.0427  0.0510
  151loPI   C3A 2409  -0.312   9.716   7.908 -0.0626 -0.3878 -0.3414
  151loPI   C4A 2410  -0.691   9.714   7.897 -0.0319  0.2557 -0.0495
  151loPI   C5A 2411  -1.064  10.019   7.856 -0.1958 -0.1088 -0.3660
  151loPI   C6A 2412  -1.438  10.216   7.687  0.0399 -0.0700  0.0443
  151loPI   C1B 2413   0.521  10.078   8.760 -0.1368  0.1197  0.1166
  151loPI   C2B 2414   0.663  10.031   8.325 -0.2107 -0.2844 -0.0939
  151loPI   C3B 2415   0.820  10.252   7.979  0.0777 -0.0736  0.2285
  151loPI   C4B 2416   0.954  10.180   7.520 -0.2155 -0.1291 -0.1050
  152loPI    C1 2417  14.872  15.918  10.209  0.0660 -0.0337  0.0989
  152loPI    C2 2418  14.707  16.282  10.204  0.0515 -0.0421 -0.1919
  152loPI    C3 2419  14.940  16.172  10.510 -0.0861  0.1465 -0.0168
  152loPI   PO4 2420  15.035  15.712   9.939 -0.0714  0.3623  0.0705
  152loPI   GL1 2421  14.827  15.534   9.674  0.0534 -0.2142  0.1641
  152loPI   GL2 2422  14.988  15.370   9.432 -0.0181  0.1219 -0.0869
  152loPI   C1A 2423  14.479  15.617   9.370  0.0442 -0.1965  0.1956
  152loPI   C2A 2424  14.657  15.476   8.960  0.3313 -0.0394 -0.1243
  152loPI   C3A 2425  14.831  15.519   8.580  0.0970 -0.0115  0.1867
  152loPI   C4A 2426  14.516  15.562   8.353 -0.3075 -0.1469  0.0158
  152loPI   C5A 2427  14.209  15.600   7.981 -0.1907 -0.1040  0.1730
  152loPI   C6A 2428  13.833  15.921   7.933  0.2005  0.0578  0.1463
  152loPI   C1B 2429  15.078  15.619   9.126  0.0834  0.1765 -0.3243
  152loPI   C2B 2430  15.106  15.860   8.771 -0.1681  0.0832  0.2899
  152loPI   C3B 2431  15.128  15.796   8.239  0.0146 -0.0495  0.0394
  152loPI   C4B 2432  14.768  15.815   7.921 -0.4263  0.0918  0.3591
  153loPI    C1 2433   2.234  15.696   9.864  0.0116  0.1829  0.0331
  153loPI    C2 2434   1.969  15.919  10.065 -0.1695  0.1005 -0.1117
  153loPI    C3 2435   2.066  15.555  10.199 -0.1686  0.1100 -0.0866
  153loPI   PO4 2436   2.067  15.692   9.596 -0.0728 -0.0818 -0.2242
  153loPI   GL1 2437   2.077  15.463   9.287  0.2219  0.1882 -0.3232
  153loPI   GL2 2438   1.788  15.428   9.190  0.0802  0.0718  0.2449
  153loPI   C1A 2439   2.322  15.312   8.912 -0.2232  0.1869 -0.1573
  153loPI   C2A 2440   2.512  15.232   8.385  0.1438 -0.0038 -0.0931
  153loPI   C3A 2441   2.609  15.464   7.985 -0.1886 -0.0869  0.2083
  153loPI   C4A 2442   2.682  15.796   7.775  0.1126  0.0125  0.3132
  153loPI   C5A 2443   2.653  16.136   7.517  0.1023  0.0830  0.2715
  153loPI   C6A 2444   2.906  16.459   7.464  0.1551 -0.1254  0.1782
  153loPI   C1B 2445   1.894  15.421   8.731 -0.1830  0.1454  0.0702
  153loPI   C2B 2446   2.029  15.179   8.320  0.0304  0.2132 -0.0043
  153loPI   C3B 2447   1.965  15.277   7.891  0.0210  0.1757 -0.0436
  153loPI   C4B 2448   2.344  15.252   7.561 -0.0825  0.1591 -0.1349
  154loPI    C1 2449   9.057  11.481   9.840  0.2822  0.0462 -0.0741
  154loPI    C2 2450   9.005  11.825  10.037  0.0982  0.0192 -0.0745
  154loPI    C3 2451   9.356  11.634  10.058  0.1124  0.0670  0.1469
  154loPI   PO4 2452   9.016  11.539   9.587 -0.0567 -0.0294  0.0064
  154loPI   GL1 2453   9.210  11.549   9.196 -0.0371 -0.0051  0.2125
  154loPI   GL2 2454   9.133  11.903   9.140  0.1011  0.2071  0.0067
  154loPI   C1A 2455   9.376  11.220   9.014  0.0865  0.3881 -0.1733
  154loPI   C2A 2456   9.302  11.091   8.614 -0.0743 -0.4030  0.0735
  154loPI   C3A 2457   9.157  10.990   8.323  0.3528  0.3116 -0.0533
  154loPI   C4A 2458   8.916  10.944   7.972 -0.1217  0.2154 -0.0271
  154loPI   C5A 2459   8.828  10.902   7.542  0.0689  0.3153  0.3296
  154loPI   C6A 2460   8.671  10.716   7.195  0.2616 -0.0169  0.0855
  154loPI   C1B 2461   9.047  11.996   8.755  0.1651  0.0440 -0.1569
  154loPI   C2B 2462   8.919  11.947   8.335 -0.1126  0.3465  0.3923
  154loPI   C3B 2463   9.121  11.952   7.957 -0.0349 -0.2733  0.3047
  154loPI   C4B 2464   9.270  12.117   7.601 -0.0474  0.0433 -0.0292
  155loPI    C1 2465   3.123  13.660   9.793 -0.0384 -0.1066 -0.2169
  155loPI    C2 2466   3.229  14.034   9.888  0.1896 -0.2156 -0.0298
  155loPI    C3 2467   3.118  13.779  10.175  0.3186 -0.3775 -0.1227
  155loPI   PO4 2468   3.305  13.578   9.670 -0.2382 -0.2445  0.0116
  155loPI   GL1 2469   3.404  13.418   9.238  0.0844  0.0595  0.0469
  155loPI   GL2 2470   3.600  13.722   9.206  0.0497  0.0553  0.2991
  155loPI   C1A 2471   3.389  13.109   8.822 -0.2843 -0.3766 -0.0340
  155loPI   C2A 2472   3.367  13.015   8.398  0.3269 -0.1013 -0.0071
  155loPI   C3A 2473   3.472  13.180   7.988 -0.2724 -0.1791  0.1246
  155loPI   C4A 2474   3.279  13.444   7.568  0.1617 -0.0557 -0.0411
  155loPI   C5A 2475   3.125  13.744   7.253  0.0807  0.0029 -0.0556
  155loPI   C6A 2476   3.278  14.183   7.116  0.5235 -0.2014  0.2513
  155loPI   C1B 2477   3.732  13.475   8.745  0.0380 -0.1999 -0.3468
  155loPI   C2B 2478   3.728  13.467   8.309 -0.0171 -0.0404 -0.2458
  155loPI   C3B 2479   3.609  13.724   7.877 -0.2851  0.0539 -0.0087
  155loPI   C4B 2480   3.336  14.122   7.720 -0.1290  0.0186 -0.2753
  156loPI    C1 2481   7.101   6.725  10.021  0.2187 -0.0394  0.3339
  156loPI    C2 2482   7.037   6.385   9.820 -0.2516  0.2255  0.0164
  156loPI    C3 2483   6.892   6.429  10.190 -0.0121  0.0088  0.1389
  156loPI   PO4 2484   7.233   6.926   9.875 -0.1590 -0.0473 -0.1296
  156loPI   GL1 2485   7.328   6.974   9.409 -0.0408  0.2367  0.2603
  156loPI   GL2 2486   7.076   6.773   9.416 -0.2839 -0.0062  0.2375
  156loPI   C1A 2487   7.254   7.169   9.095 -0.1859 -0.0948 -0.1915
  156loPI   C2A 2488   7.182   7.085   8.663  0.3918 -0.0841 -0.2056
  156loPI   C3A 2489   7.311   6.710   8.379  0.2682 -0.0186  0.1934
  156loPI   C4A 2490   7.411   6.262   8.406  0.0790  0.2022 -0.4302
  156loPI   C5A 2491   7.799   6.125   8.211  0.0084 -0.0571 -0.0085
  156loPI   C6A 2492   7.981   6.182   7.807 -0.0916 -0.2429  0.0344
  156loPI   C1B 2493   7.081   6.693   8.978  0.1888 -0.1979 -0.2329
  156loPI   C2B 2494   6.938   6.431   8.649  0.0564  0.0475 -0.2780
  156loPI   C3B 2495   6.506   6.258   8.406 -0.4035 -0.1951 -0.0082
  156loPI   C4B 2496   6.321   6.172   8.024 -0.1395  0.3688  0.3110
  157loPI    C1 2497   9.357   6.666  10.170 -0.0779 -0.0689  0.0037
  157loPI    C2 2498   9.728   6.806  10.113  0.0105 -0.1745  0.3057
  157loPI    C3 2499   9.522   6.911  10.440 -0.2665 -0.0363  0.0908
  157loPI   PO4 2500   9.240   6.663   9.770  0.1142  0.1728  0.1275
  157loPI   GL1 2501   9.690   6.787   9.573  0.2220 -0.0016 -0.1405
  157loPI   GL2 2502   9.914   6.775   9.323 -0.2053 -0.1258 -0.1826
  157loPI   C1A 2503   9.486   6.826   9.218  0.1971  0.0923 -0.1562
  157loPI   C2A 2504   9.109   6.887   8.966  0.0385  0.2558  0.0426
  157loPI   C3A 2505   8.918   6.872   8.481 -0.1964 -0.0764  0.3418
  157loPI   C4A 2506   8.950   6.744   8.067  0.0971 -0.0304 -0.4236
  157loPI   C5A 2507   9.114   6.654   7.634 -0.3425  0.3650 -0.0224
  157loPI   C6A 2508   9.462   6.393   7.551  0.0548  0.0653 -0.0535
  157loPI   C1B 2509   9.981   6.755   8.851  0.0904 -0.0607 -0.1567
  157loPI   C2B 2510   9.879   6.743   8.558 -0.1121  0.1123  0.3842
  157loPI   C3B 2511  10.022   6.747   8.122  0.0472 -0.2637  0.1714
  157loPI   C4B 2512  10.079   6.539   7.667 -0.2359 -0.1678  0.0247
  158loPI    C1 2513  10.285  10.181   9.701 -0.0605  0.1255  0.1512
  158loPI    C2 2514  10.684  10.151   9.713 -0.0593 -0.0126 -0.1395
  158loPI    C3 2515  10.483  10.285  10.033  0.2045 -0.1085  0.0699
  158loPI   PO4 2516  10.232  10.271   9.415  0.3386  0.2649  0.3712
  158loPI   GL1 2517  10.169  10.516   9.040 -0.2644  0.1981  0.0425
  158loPI   GL2 2518   9.941  10.696   9.103 -0.0908  0.0183  0.0618
  158loPI   C1A 2519  10.280  10.179   8.829 -0.1803  0.1035 -0.3637
  158loPI   C2A 2520  10.626   9.833   8.794  0.3063  0.0325 -0.2006
  158loPI   C3A 2521  10.886   9.489   8.767  0.0422 -0.1845  0.0503
  158loPI   C4A 2522  11.073   9.058   8.783 -0.3141 -0.3652 -0.0895
  158loPI   C5A 2523  11.256   8.633   9.004 -0.2118  0.0405  0.3122
  158loPI   C6A 2524  11.324   8.488   8.631  0.0095 -0.0533  0.0465
  158loPI   C1B 2525   9.946  10.465   8.573 -0.3529  0.1358 -0.2974
  158loPI   C2B 2526  10.203  10.149   8.269  0.0874 -0.0418  0.0854
  158loPI   C3B 2527  10.206   9.991   7.873  0.2630 -0.4696  0.0858
  158loPI   C4B 2528  10.158   9.863   7.464  0.0454 -0.0806  0.2916
  159loPI    C1 2529   6.655   9.377   9.705 -0.1755 -0.1659  0.0809
  159loPI    C2 2530   6.961   9.538   9.504 -0.2800 -0.0926 -0.0207
  159loPI    C3 2531   7.017   9.208   9.723 -0.1265 -0.0742 -0.0310
  159loPI   PO4 2532   6.487   9.654   9.820  0.1906 -0.1584 -0.2039
  159loPI   GL1 2533   6.231   9.750   9.557 -0.1278 -0.1442  0.0246
  159loPI   GL2 2534   6.005   9.871   9.383 -0.1333  0.1160  0.0206
  159loPI   C1A 2535   6.249   9.432   9.169  0.2639  0.1765  0.3430
  159loPI   C2A 2536   6.156   9.512   8.737 -0.0241 -0.0559  0.3463
  159loPI   C3A 2537   6.259   9.548   8.212  0.1805 -0.2495  0.4937
  159loPI   C4A 2538   6.318   9.622   7.644 -0.1757  0.0166 -0.2133
  159loPI   C5A 2539   6.386   9.463   7.251  0.2489  0.0802 -0.0547
  159loPI   C6A 2540   6.272   9.447   6.790 -0.0730  0.1582  0.1408
  159loPI   C1B 2541   6.131   9.932   8.946 -0.4328 -0.3278 -0.1637
  159loPI   C2B 2542   6.420   9.947   8.532 -0.0891  0.0098  0.0937
  159loPI   C3B 2543   6.469   9.950   8.236  0.1866 -0.1515  0.2535
  159loPI   C4B 2544   6.678  10.202   8.134 -0.0769 -0.2784 -0.0989
  160loPI    C1 2545   3.204  10.608  10.020  0.2016  0.2382  0.0528
  160loPI    C2 2546   3.076  10.401  10.337  0.2085  0.1737  0.0138
  160loPI    C3 2547   3.453  10.359  10.210  0.1892  0.1564 -0.0376
  160loPI   PO4 2548   3.028  10.626   9.850 -0.1133 -0.0361 -0.2337
  160loPI   GL1 2549   2.956  10.422   9.476  0.1587  0.1860  0.2950
  160loPI   GL2 2550   2.938  10.092   9.333 -0.0961 -0.1263 -0.0353
  160loPI   C1A 2551   2.880  10.558   9.076 -0.0713  0.4109  0.3954
  160loPI   C2A 2552   2.908  10.867   8.756 -0.1969  0.0330  0.1933
  160loPI   C3A 2553   3.047  10.929   8.414  0.2636 -0.1860 -0.0816
  160loPI   C4A 2554   3.045  11.084   8.013  0.0673 -0.0895  0.1071
  160loPI   C5A 2555   2.887  11.203   7.646  0.2158 -0.0454  0.1380
  160loPI   C6A 2556   2.780  11.039   7.259 -0.1940  0.1601 -0.0345
  160loPI   C1B 2557   3.030  10.116   8.947  0.2326 -0.0005 -0.1576
  160loPI   C2B 2558   3.169   9.819   8.721  0.0955 -0.3757  0.2590
  160loPI   C3B 2559   3.213   9.371   8.618 -0.2777  0.1764  0.1200
  160loPI   C4B 2560   3.096   9.181   8.254  0.1199 -0.0693 -0.1657
  161loPI    C1 2561   1.624   5.065  10.396 -0.1347  0.0797 -0.0861
  161loPI    C2 2562   1.668   4.867  10.740  0.1023 -0.0406 -0.1836
  161loPI    C3 2563   1.826   5.232  10.698 -0.0018  0.0102 -0.1359
  161loPI   PO4 2564   1.667   4.911  10.235 -0.2576  0.1547  0.3138
  161loPI   GL1 2565   1.906   4.835   9.879  0.2868  0.0879 -0.0221
  161loPI   GL2 2566   2.065   5.002   9.678 -0.3122  0.0463  0.0292
  161loPI   C1A 2567   1.739   4.672   9.547  0.4661 -0.2552 -0.1773
  161loPI   C2A 2568   1.614   4.627   9.175 -0.1575  0.1989  0.1403
  161loPI   C3A 2569   1.399   4.932   8.835  0.0751  0.1899  0.1303
  161loPI   C4A 2570   1.248   5.222   8.508 -0.0057  0.2765  0.0805
  161loPI   C5A 2571   1.474   5.209   8.048  0.0941 -0.2252  0.0220
  161loPI   C6A 2572   1.722   5.352   7.775 -0.0258  0.1111  0.2349
  161loPI   C1B 2573   1.852   5.072   9.240 -0.2035  0.0223 -0.0037
  161loPI   C2B 2574   1.949   5.025   8.801 -0.3327  0.0670  0.1880
  161loPI   C3B 2575   1.808   4.998   8.316  0.2076 -0.1223  0.2106
  161loPI   C4B 2576   1.906   4.821   7.849  0.4011 -0.2975 -0.0073
  162loPI    C1 2577   7.329  10.825   9.867  0.0604  0.0203 -0.3354
  162loPI    C2 2578   7.426  11.207   9.935  0.1248 -0.0351 -0.1101
  162loPI    C3 2579   7.072  11.065  10.057  0.1357 -0.0691 -0.1181
  162loPI   PO4 2580   7.455  10.798   9.657 -0.5521  0.2738 -0.0190
  162loPI   GL1 2581   7.433  10.741   9.251 -0.0404  0.1013 -0.0747
  162loPI   GL2 2582   7.436  10.438   9.287  0.0632 -0.0998 -0.0662
  162loPI   C1A 2583   7.639  10.613   8.878 -0.1162 -0.2302  0.1164
  162loPI   C2A 2584   7.778  10.288   8.591 -0.0558 -0.0999 -0.4406
  162loPI   C3A 2585   7.474   9.900   8.561 -0.3934  0.2219 -0.1680
  162loPI   C4A 2586   7.018   9.922   8.369  0.0292 -0.0789  0.0369
  162loPI   C5A 2587   7.059   9.880   7.907 -0.0970 -0.2715  0.2288
  162loPI   C6A 2588   7.266   9.911   7.568  0.0532  0.0746 -0.3642
  162loPI   C1B 2589   7.373  10.188   8.895 -0.3081  0.1356  0.0530
  162loPI   C2B 2590   7.305  10.344   8.487 -0.0101  0.2651 -0.2749
  162loPI   C3B 2591   7.176  10.392   8.134  0.2219  0.0458  0.0544
  162loPI   C4B 2592   6.966  10.288   7.730  0.1874 -0.2015  0.1947
  163loPI    C1 2593  12.122  14.458   9.948 -0.0276  0.0264  0.0387
  163loPI    C2 2594  11.732  14.535   9.906  0.0130  0.1970 -0.0353
  163loPI    C3 2595  11.977  14.818  10.045  0.1110  0.0901  0.0113
  163loPI   PO4 2596  12.177  14.395   9.673 -0.1354  0.0573 -0.1227
  163loPI   GL1 2597  11.893  14.281   9.385  0.0036  0.2966 -0.2122
  163loPI   GL2 2598  12.013  14.154   9.236 -0.1583  0.3861 -0.1297
  163loPI   C1A 2599  11.805  14.403   8.888 -0.1933  0.1882 -0.2713
  163loPI   C2A 2600  11.704  14.484   8.400 -0.0315  0.0053 -0.0201
  163loPI   C3A 2601  11.837  14.496   7.982 -0.1843 -0.1249 -0.3002
  163loPI   C4A 2602  12.144  14.506   7.817 -0.0972  0.0128 -0.0003
  163loPI   C5A 2603  12.269  14.434   7.381  0.1010  0.0368  0.0430
  163loPI   C6A 2604  12.521  14.389   7.091  0.0532  0.5293  0.0052
  163loPI   C1B 2605  11.789  13.922   8.918  0.0089  0.3729 -0.0497
  163loPI   C2B 2606  11.747  13.889   8.496  0.1280  0.0244  0.0409
  163loPI   C3B 2607  11.852  14.004   8.069  0.0135 -0.1252  0.0087
  163loPI   C4B 2608  11.999  14.059   7.620  0.1147 -0.4438 -0.0624
  164loPI    C1 2609   8.481   5.844   9.993  0.0494  0.0393 -0.2259
  164loPI    C2 2610   8.419   6.128  10.268 -0.1368 -0.0673 -0.1564
  164loPI    C3 2611   8.776   5.950  10.242 -0.0278  0.1518 -0.1814
  164loPI   PO4 2612   8.388   5.970   9.749 -0.0261  0.0726 -0.0176
  164loPI   GL1 2613   8.561   6.295   9.542  0.0390  0.0056 -0.2171
  164loPI   GL2 2614   8.414   6.577   9.432 -0.0294 -0.0322 -0.0557
  164loPI   C1A 2615   8.467   6.131   9.084  0.1306 -0.4070  0.0178
  164loPI   C2A 2616   8.566   5.996   8.694 -0.1225 -0.3354  0.2631
  164loPI   C3A 2617   8.791   5.782   8.242  0.0097  0.1308 -0.1700
  164loPI   C4A 2618   9.110   5.698   8.131 -0.2491 -0.2513 -0.2942
  164loPI   C5A 2619   9.453   5.486   7.807  0.1056 -0.1270 -0.0239
  164loPI   C6A 2620   9.424   5.036   7.706 -0.0903 -0.1629 -0.0197
  164loPI   C1B 2621   8.617   6.768   9.087 -0.3960  0.2924  0.1911
  164loPI   C2B 2622   8.854   6.484   8.743  0.0408 -0.1674 -0.1675
  164loPI   C3B 2623   8.819   6.282   8.308  0.1889  0.0338 -0.3809
  164loPI   C4B 2624   8.885   6.247   7.866  0.1849 -0.0653 -0.1481
  165loPI    C1 2625   4.480   2.799  10.333 -0.0874  0.0988  0.0167
  165loPI    C2 2626   4.139   2.662  10.492 -0.0264  0.0689  0.1230
  165loPI    C3 2627   4.198   3.056  10.453 -0.1084  0.0719  0.0250
  165loPI   PO4 2628   4.462   2.679  10.061  0.1601  0.1181 -0.3515
  165loPI   GL1 2629   4.573   2.753   9.720 -0.2873 -0.2065  0.1883
  165loPI   GL2 2630   4.871   3.003   9.753  0.1749 -0.2316 -0.1956
  165loPI   C1A 2631   4.550   2.847   9.275 -0.2176  0.1657  0.0441
  165loPI   C2A 2632   4.725   2.774   8.914 -0.0689 -0.3784 -0.3198
  165loPI   C3A 2633   4.924   2.743   8.477  0.2103 -0.0009  0.4770
  165loPI   C4A 2634   5.025   2.895   8.017 -0.0866  0.2065 -0.3410
  165loPI   C5A 2635   5.389   2.795   7.828 -0.0601  0.0460 -0.2105
  165loPI   C6A 2636   5.757   2.745   7.833  0.0364 -0.2205  0.1302
  165loPI   C1B 2637   4.999   3.127   9.375  0.1059 -0.1444 -0.1081
  165loPI   C2B 2638   5.156   3.543   9.237 -0.0424 -0.2279 -0.0097
  165loPI   C3B 2639   4.972   4.000   9.039  0.0996  0.0560 -0.0861
  165loPI   C4B 2640   5.001   4.463   8.876  0.1464 -0.2229 -0.0336
  166loPI    C1 2641  18.875  14.542  10.291  0.0433  0.1093 -0.2615
  166loPI    C2 2642  18.603  14.253  10.250  0.1762 -0.0546 -0.0152
  166loPI    C3 2643  18.719  14.367  10.615  0.1516  0.2870 -0.1110
  166loPI   PO4 2644  19.109  14.467  10.024 -0.0370 -0.3155 -0.1178
  166loPI   GL1 2645  19.470  14.349   9.788 -0.2136 -0.1785 -0.1727
  166loPI   GL2 2646  19.197  14.156   9.646  0.0644  0.0876  0.0702
  166loPI   C1A 2647  19.526  14.283   9.313 -0.0266  0.2007 -0.1814
  166loPI   C2A 2648  19.586  14.207   8.881 -0.0134 -0.0286  0.0001
  166loPI   C3A 2649  19.325  14.013   8.513 -0.0662 -0.2220 -0.1202
  166loPI   C4A 2650  19.205  14.069   8.105 -0.0671  0.0288 -0.2723
  166loPI   C5A 2651  19.196  14.232   7.699 -0.0531  0.0573 -0.3574
  166loPI   C6A 2652  19.407  14.074   7.343 -0.1734  0.0478 -0.3039
  166loPI   C1B 2653  19.038  14.009   9.252  0.4338  0.2186 -0.3866
  166loPI   C2B 2654  19.049  14.278   8.986  0.3316  0.2131  0.1340
  166loPI   C3B 2655  18.816  14.212   8.518 -0.1080  0.1948  0.1172
  166loPI   C4B 2656  18.416  14.294   8.417 -0.1760 -0.0651  0.0768
  167loPI    C1 2657   3.589   4.073  10.027 -0.2202 -0.2701 -0.0903
  167loPI    C2 2658   3.708   4.085  10.408 -0.1204 -0.0548 -0.1266
  167loPI    C3 2659   3.695   3.736  10.213  0.0069 -0.1412  0.0176
  167loPI   PO4 2660   3.770   4.310   9.909  0.0492  0.0284 -0.1813
  167loPI   GL1 2661   4.044   4.514   9.694  0.0905 -0.1779  0.0657
  167loPI   GL2 2662   3.923   4.702   9.609  0.0031 -0.1470 -0.0289
  167loPI   C1A 2663   4.031   4.363   9.169  0.0578  0.1211 -0.3629
  167loPI   C2A 2664   4.082   4.367   8.700 -0.0463  0.4865  0.1290
  167loPI   C3A 2665   3.935   4.469   8.215  0.2429  0.2707  0.5434
  167loPI   C4A 2666   3.773   4.932   8.062 -0.0896  0.0124 -0.0647
  167loPI   C5A 2667   3.800   5.242   8.194  0.1251 -0.0089  0.1936
  167loPI   C6A 2668   4.115   5.467   8.138 -0.0471 -0.0202 -0.2106
  167loPI   C1B 2669   4.005   4.847   9.184 -0.0396  0.0056 -0.0439
  167loPI   C2B 2670   3.889   5.274   8.907 -0.3001 -0.2123  0.0379
  167loPI   C3B 2671   3.469   5.358   8.832  0.0340 -0.2363  0.2956
  167loPI   C4B 2672   3.160   5.296   8.573  0.0414 -0.0912 -0.0441
  168loPI    C1 2673  14.289   2.111  10.432  0.1331 -0.0143 -0.3028
  168loPI    C2 2674  14.587   2.372  10.489  0.1767 -0.0798 -0.2296
  168loPI    C3 2675  14.207   2.489  10.534  0.2113 -0.1857  0.4551
  168loPI   PO4 2676  14.309   1.916  10.219  0.1657  0.1805  0.3026
  168loPI   GL1 2677  14.363   1.983   9.759  0.0316  0.4068 -0.0685
  168loPI   GL2 2678  14.684   1.938   9.602  0.3541 -0.0932  0.0845
  168loPI   C1A 2679  14.079   1.972   9.374  0.0337 -0.2448 -0.0729
  168loPI   C2A 2680  14.168   2.180   8.911  0.0839 -0.1967  0.1402
  168loPI   C3A 2681  14.161   2.197   8.391 -0.3159  0.1643  0.2925
  168loPI   C4A 2682  14.006   2.374   8.105  0.2573  0.1393 -0.3043
  168loPI   C5A 2683  13.582   2.378   8.078  0.1154 -0.1283 -0.0233
  168loPI   C6A 2684  13.225   2.527   7.826  0.0865 -0.0242  0.1179
  168loPI   C1B 2685  14.550   1.633   9.331  0.2199 -0.1510  0.1999
  168loPI   C2B 2686  14.278   1.631   8.954  0.0695 -0.0628 -0.1081
  168loPI   C3B 2687  14.074   1.355   8.706  0.2819 -0.3172  0.1309
  168loPI   C4B 2688  13.817   1.494   8.367  0.1911 -0.1907 -0.0708
  169loPI    C1 2689  14.089   5.241   9.553 -0.1030 -0.2131  0.0950
  169loPI    C2 2690  14.153   5.615   9.425  0.0323 -0.2817 -0.0402
  169loPI    C3 2691  14.332   5.485   9.758 -0.0716 -0.2038  0.0466
  169loPI   PO4 2692  13.769   5.220   9.592  0.1289  0.4850 -0.0253
  169loPI   GL1 2693  13.487   5.025   9.249  0.0730  0.0184 -0.0684
  169loPI   GL2 2694  13.224   5.174   9.265  0.1217  0.0125 -0.1182
  169loPI   C1A 2695  13.587   5.025   8.783  0.1230 -0.1332  0.0657
  169loPI   C2A 2696  13.580   5.036   8.343 -0.1146 -0.1889 -0.0606
  169loPI   C3A 2697  13.446   4.721   8.095 -0.1338 -0.0913  0.1953
  169loPI   C4A 2698  13.116   4.514   8.059 -0.1128 -0.2342  0.0140
  169loPI   C5A 2699  12.818   4.516   7.850 -0.0414  0.4954  0.1442
  169loPI   C6A 2700  12.457   4.296   7.664 -0.0519  0.2292  0.3675
  169loPI   C1B 2701  13.077   5.344   8.833 -0.0123  0.0705  0.0415
  169loPI   C2B 2702  13.209   5.390   8.407 -0.0552 -0.2731 -0.0789
  169loPI   C3B 2703  13.395   5.413   7.979 -0.0196 -0.1110  0.1365
  169loPI   C4B 2704  13.557   5.476   7.594  0.0180  0.1023  0.1114
  170loPI    C1 2705   7.389  14.130   9.907 -0.1704 -0.0155  0.1017
  170loPI    C2 2706   7.543  14.460  10.072  0.1042 -0.0161 -0.1446
  170loPI    C3 2707   7.661  14.099  10.198 -0.1552 -0.0235  0.0865
  170loPI   PO4 2708   7.395  14.085   9.707  0.0840 -0.0383 -0.1295
  170loPI   GL1 2709   7.382  14.008   9.418 -0.0597 -0.0424 -0.1918
  170loPI   GL2 2710   7.446  13.678   9.327 -0.1118  0.1537 -0.0322
  170loPI   C1A 2711   7.325  14.077   8.959  0.2030  0.0382  0.0464
  170loPI   C2A 2712   7.437  14.083   8.485  0.0923 -0.0334 -0.0190
  170loPI   C3A 2713   7.484  14.100   8.107 -0.1413 -0.0403 -0.1205
  170loPI   C4A 2714   7.213  13.880   7.827 -0.0626 -0.0167 -0.1812
  170loPI   C5A 2715   6.968  13.993   7.424 -0.0118  0.2481 -0.2137
  170loPI   C6A 2716   7.126  13.976   6.981  0.3285  0.2182 -0.0043
  170loPI   C1B 2717   7.498  13.509   8.925 -0.2508 -0.1264  0.0160
  170loPI   C2B 2718   7.169  13.320   8.733 -0.2407  0.0064 -0.1057
  170loPI   C3B 2719   7.078  13.078   8.389  0.2054  0.0184  0.0908
  170loPI   C4B 2720   7.144  12.946   7.935 -0.2818  0.2646  0.1107
  171loPI    C1 2721  13.536   9.858   9.919 -0.1094  0.1088 -0.0279
  171loPI    C2 2722  13.623  10.249   9.922  0.1699  0.0487  0.0331
  171loPI    C3 2723  13.742  10.015  10.224  0.2738 -0.1404 -0.1514
  171loPI   PO4 2724  13.677   9.772   9.598  0.1236  0.1513 -0.0231
  171loPI   GL1 2725  14.022   9.687   9.370  0.0651  0.1697  0.3345
  171loPI   GL2 2726  14.023   9.988   9.261  0.2565 -0.2807  0.0037
  171loPI   C1A 2727  13.804   9.580   8.974 -0.3137  0.1280 -0.1308
  171loPI   C2A 2728  13.543   9.439   8.624 -0.3367  0.0552 -0.2940
  171loPI   C3A 2729  13.250   9.263   8.298 -0.0182  0.2016  0.0391
  171loPI   C4A 2730  12.939   9.033   7.902  0.2110 -0.0741  0.1064
  171loPI   C5A 2731  12.646   9.003   7.713  0.2658  0.1389 -0.1983
  171loPI   C6A 2732  12.426   8.620   7.615  0.1287  0.4336  0.0537
  171loPI   C1B 2733  14.267  10.156   8.993 -0.2241  0.0134  0.0576
  171loPI   C2B 2734  14.300  10.300   8.519 -0.1993 -0.0517 -0.1954
  171loPI   C3B 2735  14.455  10.272   8.131 -0.0613 -0.2232 -0.2405
  171loPI   C4B 2736  14.489   9.915   7.766 -0.0670 -0.2057  0.0912
  172loPI    C1 2737   7.013   8.691  10.107  0.2481  0.0157  0.0087
  172loPI    C2 2738   7.149   9.060  10.177 -0.0125  0.1327 -0.0917
  172loPI    C3 2739   6.926   8.873  10.452  0.0903  0.0633 -0.0552
  172loPI   PO4 2740   6.972   8.706   9.812 -0.3904  0.0660 -0.1962
  172loPI   GL1 2741   7.116   8.777   9.309 -0.0668 -0.1267 -0.2011
  172loPI   GL2 2742   7.238   8.921   9.381 -0.0488 -0.2441 -0.3554
  172loPI   C1A 2743   7.387   8.742   8.847 -0.1015 -0.2075 -0.0326
  172loPI   C2A 2744   7.520   8.630   8.554 -0.0867  0.0381  0.2320
  172loPI   C3A 2745   7.517   8.725   8.198  0.0706  0.0178  0.2842
  172loPI   C4A 2746   7.488   8.619   7.786  0.0189 -0.1159  0.0362
  172loPI   C5A 2747   7.803   8.751   7.598 -0.0312 -0.5686 -0.2640
  172loPI   C6A 2748   7.750   8.710   7.149  0.0721 -0.3349  0.1098
  172loPI   C1B 2749   7.400   9.147   9.053 -0.1348 -0.1166 -0.1943
  172loPI   C2B 2750   7.463   9.194   8.619 -0.0826  0.0955  0.0580
  172loPI   C3B 2751   7.788   9.035   8.457  0.3250  0.0131 -0.0106
  172loPI   C4B 2752   8.034   8.796   8.062 -0.1054 -0.2849 -0.0198
  173loPI    C1 2753   2.676   0.342  10.157  0.3793 -0.0191 -0.1629
  173loPI    C2 2754   2.885   0.126  10.420  0.1942  0.0511  0.0453
  173loPI    C3 2755   2.898   0.526  10.433  0.0084  0.0565  0.0933
  173loPI   PO4 2756   2.665   0.276   9.960  0.4238  0.1716 -0.0216
  173loPI   GL1 2757   2.844   0.131   9.648  0.0796  0.0490 -0.1786
  173loPI   GL2 2758   2.859   0.389   9.373 -0.1365  0.0372 -0.3602
  173loPI   C1A 2759   2.641  -0.087   9.318 -0.0153  0.1719 -0.0242
  173loPI   C2A 2760   2.348   0.058   9.015  0.0412 -0.1084  0.0215
  173loPI   C3A 2761   2.512   0.154   8.596  0.1287 -0.3742  0.0704
  173loPI   C4A 2762   2.856   0.392   8.557 -0.2671 -0.1498 -0.2004
  173loPI   C5A 2763   2.898   0.728   8.496  0.3007 -0.0002 -0.0962
  173loPI   C6A 2764   2.951   1.029   8.195  0.0332 -0.2481 -0.2140
  173loPI   C1B 2765   2.956   0.172   8.991  0.0056 -0.1290 -0.2929
  173loPI   C2B 2766   3.146  -0.077   8.791 -0.2691 -0.0634 -0.0989
  173loPI   C3B 2767   3.276  -0.370   8.443 -0.0429 -0.3406 -0.1062
  173loPI   C4B 2768   3.317  -0.306   7.946  0.4633  0.2431 -0.1613
  174loPI    C1 2769  17.627  13.776   9.894 -0.0600  0.1567 -0.0452
  174loPI    C2 2770  17.398  13.534   9.673 -0.0242  0.1522 -0.0773
  174loPI    C3 2771  17.305  13.603  10.055  0.0969 -0.0992  0.0004
  174loPI   PO4 2772  17.884  13.674   9.865  0.2414  0.1577 -0.0653
  174loPI   GL1 2773  17.937  13.904   9.560 -0.0386 -0.0064 -0.0611
  174loPI   GL2 2774  17.699  13.954   9.420 -0.0149  0.2142  0.1954
  174loPI   C1A 2775  18.211  13.797   9.253  0.2303 -0.1152 -0.2020
  174loPI   C2A 2776  18.659  13.662   9.137 -0.0788  0.1521 -0.0187
  174loPI   C3A 2777  18.886  13.744   8.784 -0.0006  0.0451 -0.1857
  174loPI   C4A 2778  18.830  13.759   8.361 -0.0947  0.0242  0.3535
  174loPI   C5A 2779  18.888  13.539   7.996  0.0987  0.1794 -0.1231
  174loPI   C6A 2780  18.572  13.430   7.686  0.0244  0.0015 -0.1899
  174loPI   C1B 2781  17.771  13.783   9.019  0.1143  0.2149 -0.1251
  174loPI   C2B 2782  17.671  13.710   8.523  0.0755 -0.1566 -0.2633
  174loPI   C3B 2783  17.510  13.876   8.071  0.4220  0.2595 -0.3268
  174loPI   C4B 2784  17.292  13.633   7.788  0.2026  0.0847  0.0573
  175loPI    C1 2785   4.523  16.087  10.072 -0.0040 -0.0729 -0.0080
  175loPI    C2 2786   4.373  16.009   9.710  0.0666  0.1498 -0.0867
  175loPI    C3 2787   4.127  16.057  10.022  0.0129 -0.1949 -0.0720
  175loPI   PO4 2788   4.865  16.041   9.932  0.4434 -0.2430  0.1957
  175loPI   GL1 2789   4.856  16.171   9.575  0.2319 -0.1658 -0.2419
  175loPI   GL2 2790   4.757  16.492   9.707  0.1254  0.4074  0.0566
  175loPI   C1A 2791   4.824  16.144   9.153 -0.0176 -0.1829  0.1547
  175loPI   C2A 2792   4.957  16.262   8.754 -0.0070  0.1143 -0.2562
  175loPI   C3A 2793   4.873  16.165   8.303 -0.0513  0.0645 -0.0829
  175loPI   C4A 2794   4.606  15.892   8.039 -0.2342 -0.0937  0.1108
  175loPI   C5A 2795   4.377  15.521   8.103 -0.3416 -0.1659  0.0149
  175loPI   C6A 2796   4.043  15.362   8.217 -0.1880 -0.0733 -0.5056
  175loPI   C1B 2797   4.902  16.658   9.372  0.1792 -0.1395  0.1355
  175loPI   C2B 2798   5.084  16.663   8.999 -0.1389  0.1474  0.1681
  175loPI   C3B 2799   5.384  16.394   8.846 -0.0485 -0.0768  0.0147
  175loPI   C4B 2800   5.325  15.996   8.807 -0.0434  0.1255 -0.1394
  176loPI    C1 2801  11.956  17.581  10.001 -0.0365  0.1304 -0.0385
  176loPI    C2 2802  11.664  17.558  10.273 -0.0391 -0.1470 -0.0617
  176loPI    C3 2803  11.843  17.908  10.200 -0.2426 -0.0116  0.0812
  176loPI   PO4 2804  11.878  17.434   9.844 -0.0301 -0.0184  0.2903
  176loPI   GL1 2805  12.093  17.238   9.660 -0.1994  0.1433 -0.1523
  176loPI   GL2 2806  11.783  17.060   9.502  0.4086 -0.0067 -0.0180
  176loPI   C1A 2807  12.244  17.359   9.203 -0.2897  0.0536 -0.1358
  176loPI   C2A 2808  12.570  17.405   8.929  0.0642  0.1126  0.4334
  176loPI   C3A 2809  12.633  17.386   8.570 -0.0152 -0.0848  0.1139
  176loPI   C4A 2810  12.861  17.155   8.337  0.3331  0.1197 -0.0147
  176loPI   C5A 2811  13.103  16.910   8.164 -0.3387  0.0330 -0.0151
  176loPI   C6A 2812  13.243  16.753   7.754 -0.1410  0.1450  0.1863
  176loPI   C1B 2813  11.774  16.976   9.115 -0.3063 -0.2126  0.2978
  176loPI   C2B 2814  11.798  16.937   8.772 -0.3687  0.1710 -0.2672
  176loPI   C3B 2815  12.152  17.178   8.763  0.3063  0.1620  0.0388
  176loPI   C4B 2816  12.203  17.387   8.394 -0.2003 -0.1906  0.0130
  177loPI    C1 2817  14.693   3.850   9.824 -0.1195 -0.1360  0.1102
  177loPI    C2 2818  14.815   4.102  10.109 -0.1676  0.0264 -0.0110
  177loPI    C3 2819  14.879   3.709  10.149  0.1642  0.0832  0.0471
  177loPI   PO4 2820  14.552   3.991   9.713  0.0222  0.1776 -0.0141
  177loPI   GL1 2821  14.318   4.095   9.335 -0.0207 -0.1805  0.0031
  177loPI   GL2 2822  14.148   4.384   9.328  0.0366 -0.3882 -0.1823
  177loPI   C1A 2823  14.496   4.006   8.877  0.0148  0.0678  0.0919
  177loPI   C2A 2824  14.563   3.988   8.407  0.2019  0.1722  0.1173
  177loPI   C3A 2825  14.618   4.063   7.912 -0.2729 -0.0016  0.1915
  177loPI   C4A 2826  14.750   4.327   7.600  0.1962 -0.0501 -0.2303
  177loPI   C5A 2827  14.986   4.418   7.198 -0.1722  0.0341 -0.2076
  177loPI   C6A 2828  14.957   4.583   6.863  0.1495  0.0852  0.0560
  177loPI   C1B 2829  14.073   4.385   8.848  0.1671  0.0270  0.1634
  177loPI   C2B 2830  14.300   4.459   8.512  0.3456  0.0676  0.0616
  177loPI   C3B 2831  14.446   4.538   8.096 -0.0464  0.1672  0.0138
  177loPI   C4B 2832  14.364   4.933   7.906  0.5556 -0.1985 -0.1168
  178loPI    C1 2833   1.306   1.824   9.762 -0.0395  0.0884 -0.2346
  178loPI    C2 2834   1.594   2.090   9.842  0.1278 -0.1509 -0.0254
  178loPI    C3 2835   1.490   1.818  10.117 -0.1746 -0.1816 -0.1662
  178loPI   PO4 2836   1.049   1.996   9.559  0.3073  0.3316  0.0482
  178loPI   GL1 2837   0.611   2.128   9.574 -0.0214 -0.0160 -0.1602
  178loPI   GL2 2838   0.742   2.211   9.267  0.2595  0.2544  0.2523
  178loPI   C1A 2839   0.213   2.259   9.281  0.1336 -0.2738  0.4139
  178loPI   C2A 2840  -0.127   2.057   9.086 -0.1385 -0.0741  0.1668
  178loPI   C3A 2841  -0.395   2.041   8.834  0.0079  0.5622 -0.2503
  178loPI   C4A 2842  -0.350   1.958   8.378 -0.3357 -0.1367  0.0875
  178loPI   C5A 2843  -0.367   2.068   7.957  0.1789 -0.0413  0.0801
  178loPI   C6A 2844  -0.274   2.146   7.595  0.1823  0.1450  0.1373
  178loPI   C1B 2845   0.486   2.003   8.993 -0.0100  0.0670  0.2633
  178loPI   C2B 2846   0.184   2.215   8.591  0.1839  0.1502  0.3047
  178loPI   C3B 2847   0.061   2.252   8.192 -0.3216  0.1483 -0.1527
  178loPI   C4B 2848  -0.185   2.553   7.842  0.2302  0.0327 -0.4663
  179loPI    C1 2849  18.462   7.267   9.737 -0.0066  0.1335  0.0439
  179loPI    C2 2850  18.662   7.258  10.084 -0.0279  0.0783  0.0548
  179loPI    C3 2851  18.667   6.940   9.841 -0.0960  0.0794  0.0515
  179loPI   PO4 2852  18.481   7.485   9.628 -0.0492  0.3479  0.2512
  179loPI   GL1 2853  18.783   7.424   9.253 -0.0105  0.1274 -0.0234
  179loPI   GL2 2854  18.626   7.084   9.249  0.1281  0.1180 -0.1318
  179loPI   C1A 2855  18.813   7.377   8.796  0.0202  0.3339  0.1847
  179loPI   C2A 2856  18.786   7.264   8.389  0.0744 -0.2775 -0.1027
  179loPI   C3A 2857  18.851   7.191   7.931 -0.1210  0.2687  0.0379
  179loPI   C4A 2858  18.626   7.310   7.634  0.1788  0.2965 -0.1725
  179loPI   C5A 2859  18.437   7.274   7.200 -0.3132  0.2631 -0.3581
  179loPI   C6A 2860  18.004   7.087   7.090  0.0257 -0.2090 -0.2265
  179loPI   C1B 2861  18.360   7.133   8.737  0.0020  0.1319  0.1487
  179loPI   C2B 2862  18.319   7.137   8.335 -0.1311 -0.1413  0.4138
  179loPI   C3B 2863  18.384   6.949   7.981 -0.0321 -0.1419 -0.0495
  179loPI   C4B 2864  18.432   6.874   7.604 -0.0433  0.0325  0.1406
  180loPI    C1 2865  12.097  11.748   9.808  0.0504  0.1885  0.0820
  180loPI    C2 2866  12.056  12.130   9.917 -0.0992  0.1794  0.0598
  180loPI    C3 2867  12.207  11.863  10.175 -0.2382  0.2021  0.1660
  180loPI   PO4 2868  12.043  11.810   9.516  0.0910  0.0735  0.0729
  180loPI   GL1 2869  11.707  11.846   9.140  0.0340  0.2243 -0.0971
  180loPI   GL2 2870  11.370  11.641   9.128 -0.3587 -0.0915 -0.3014
  180loPI   C1A 2871  11.896  11.748   8.763  0.1445  0.1070 -0.6325
  180loPI   C2A 2872  11.871  11.666   8.422  0.0934 -0.2102  0.2090
  180loPI   C3A 2873  11.660  11.634   8.048  0.0549 -0.0506 -0.0380
  180loPI   C4A 2874  11.437  11.662   7.619  0.2774 -0.0793  0.0684
  180loPI   C5A 2875  11.287  11.737   7.197 -0.0350 -0.1715 -0.0887
  180loPI   C6A 2876  11.162  11.552   6.785  0.1858  0.1489 -0.1977
  180loPI   C1B 2877  11.538  11.348   8.813  0.1781 -0.4547 -0.0673
  180loPI   C2B 2878  11.603  11.245   8.468 -0.1436  0.0754  0.2289
  180loPI   C3B 2879  11.805  11.173   8.081  0.0142 -0.1382  0.1475
  180loPI   C4B 2880  11.830  11.242   7.685 -0.0549  0.0620 -0.1403
  181loPI    C1 2881   4.016  13.008   9.694  0.1115 -0.2598  0.4554
  181loPI    C2 2882   3.671  13.189   9.605  0.2138 -0.3058 -0.0664
  181loPI    C3 2883   3.870  13.291   9.937 -0.0899  0.0177  0.0236
  181loPI   PO4 2884   4.033  12.874   9.444  0.1856 -0.0602 -0.0743
  181loPI   GL1 2885   4.276  12.597   9.189  0.1753  0.1500 -0.1418
  181loPI   GL2 2886   4.490  12.806   9.163  0.4249 -0.3497 -0.1291
  181loPI   C1A 2887   4.185  12.494   8.795 -0.0696  0.3996  0.1642
  181loPI   C2A 2888   4.240  12.645   8.399  0.0383 -0.2054 -0.3186
  181loPI   C3A 2889   4.179  12.769   7.995  0.0056  0.4098  0.2350
  181loPI   C4A 2890   4.317  12.638   7.658 -0.2041 -0.0727 -0.1262
  181loPI   C5A 2891   4.564  12.861   7.326  0.1731  0.2120 -0.1319
  181loPI   C6A 2892   4.527  12.965   6.863  0.0643 -0.0332 -0.0501
  181loPI   C1B 2893   4.392  12.944   8.799 -0.2177  0.0309 -0.2364
  181loPI   C2B 2894   4.451  13.104   8.477  0.0430 -0.2665 -0.1183
  181loPI   C3B 2895   4.477  13.240   8.154  0.1300  0.3163 -0.1469
  181loPI   C4B 2896   4.438  13.206   7.744  0.0942  0.0604 -0.1827
  182loPI    C1 2897   6.176  14.223   9.463  0.2086 -0.2100 -0.0892
  182loPI    C2 2898   6.505  14.391   9.616  0.1774 -0.2434  0.0157
  182loPI    C3 2899   6.272  14.161   9.846  0.0873 -0.2300 -0.0612
  182loPI   PO4 2900   6.086  14.364   9.354  0.2370  0.0778  0.0625
  182loPI   GL1 2901   6.053  14.283   8.959  0.0972  0.4375 -0.1079
  182loPI   GL2 2902   6.189  14.613   8.884 -0.1056  0.1731 -0.1696
  182loPI   C1A 2903   5.679  14.110   8.886 -0.0829  0.0202  0.3264
  182loPI   C2A 2904   5.563  13.978   8.541  0.1077 -0.1276 -0.2123
  182loPI   C3A 2905   5.585  14.146   8.150 -0.2121 -0.0996 -0.1535
  182loPI   C4A 2906   5.460  14.210   7.788 -0.3039 -0.1320  0.2546
  182loPI   C5A 2907   5.205  13.935   7.609 -0.0003 -0.2404  0.1654
  182loPI   C6A 2908   5.274  13.624   7.250 -0.0145 -0.0140 -0.1403
  182loPI   C1B 2909   6.157  14.366   8.511 -0.1365 -0.3797 -0.2887
  182loPI   C2B 2910   6.261  14.319   7.962 -0.2214  0.0772 -0.0332
  182loPI   C3B 2911   6.220  13.919   7.713  0.0508 -0.2730  0.0049
  182loPI   C4B 2912   5.925  13.618   7.874 -0.0398 -0.0805 -0.2293
  183loPI    C1 2913  13.876  18.551   9.825  0.0671  0.1989 -0.1417
  183loPI    C2 2914  13.963  18.838   9.561 -0.0321  0.3375 -0.0259
  183loPI    C3 2915  14.076  18.877   9.943  0.2721  0.0536 -0.0821
  183loPI   PO4 2916  13.627  18.508   9.730  0.0936 -0.0358 -0.4088
  183loPI   GL1 2917  13.282  18.542   9.372  0.0048 -0.2204 -0.0931
  183loPI   GL2 2918  13.564  18.776   9.287 -0.3380 -0.0584  0.3304
  183loPI   C1A 2919  13.244  18.127   9.216 -0.2335  0.0966  0.1582
  183loPI   C2A 2920  13.312  17.959   8.800 -0.0093  0.0857 -0.0762
  183loPI   C3A 2921  13.058  17.699   8.554  0.0007  0.0161 -0.0225
  183loPI   C4A 2922  12.880  17.623   8.174  0.0991 -0.1961 -0.1119
  183loPI   C5A 2923  12.563  17.364   8.013 -0.2344 -0.0119  0.0853
  183loPI   C6A 2924  12.178  17.102   7.914 -0.1631  0.4466 -0.2314
  183loPI   C1B 2925  13.417  18.912   8.808  0.3740 -0.0236 -0.0943
  183loPI   C2B 2926  13.361  19.112   8.375  0.0267  0.3767  0.0564
  183loPI   C3B 2927  13.398  18.908   8.089 -0.1443  0.1379  0.1252
  183loPI   C4B 2928  13.710  19.012   7.828  0.0315 -0.2317  0.0556
  184loPI    C1 2929   0.007  15.330   9.720  0.0528 -0.1564  0.0477
  184loPI    C2 2930   0.264  15.597   9.569  0.0550 -0.1532  0.0571
  184loPI    C3 2931   0.328  15.440   9.931  0.0647 -0.1823  0.0428
  184loPI   PO4 2932  -0.019  15.215   9.519 -0.2676 -0.1389  0.0566
  184loPI   GL1 2933   0.251  15.110   9.162  0.1872 -0.0718 -0.0739
  184loPI   GL2 2934  -0.065  14.980   8.998 -0.4610  0.2085 -0.0714
  184loPI   C1A 2935   0.367  14.700   9.001 -0.3317  0.1328  0.0234
  184loPI   C2A 2936   0.311  14.537   8.565  0.2873 -0.4473 -0.1649
  184loPI   C3A 2937   0.352  14.547   8.160  0.0248 -0.1501 -0.1258
  184loPI   C4A 2938   0.155  14.777   7.920 -0.0427  0.2371 -0.0606
  184loPI   C5A 2939   0.304  14.639   7.598 -0.0092 -0.1283  0.2752
  184loPI   C6A 2940   0.612  14.848   7.288 -0.1422  0.1039  0.1122
  184loPI   C1B 2941   0.134  15.051   8.614 -0.3058 -0.2531 -0.2044
  184loPI   C2B 2942  -0.003  15.264   8.174 -0.1357 -0.0727 -0.0366
  184loPI   C3B 2943  -0.177  15.084   7.803 -0.5177 -0.0908 -0.0494
  184loPI   C4B 2944  -0.472  14.960   7.557 -0.0528  0.0120  0.2034
  185loPI    C1 2945   6.211   8.668  10.214  0.0740 -0.0605 -0.0947
  185loPI    C2 2946   6.518   8.914  10.140 -0.1388  0.0991 -0.4811
  185loPI    C3 2947   6.344   8.913  10.500  0.3920 -0.0884 -0.2147
  185loPI   PO4 2948   6.089   8.736  10.013 -0.1411  0.4697  0.1866
  185loPI   GL1 2949   6.065   8.761   9.529  0.0729  0.3250  0.1084
  185loPI   GL2 2950   6.364   8.527   9.241 -0.2542  0.0621  0.1580
  185loPI   C1A 2951   6.200   8.971   9.184  0.0496  0.0378  0.3306
  185loPI   C2A 2952   6.304   9.048   8.776 -0.0124  0.3841  0.1845
  185loPI   C3A 2953   6.429   9.101   8.366 -0.0601 -0.1870  0.2250
  185loPI   C4A 2954   6.461   8.740   8.214  0.1648  0.3906 -0.1882
  185loPI   C5A 2955   6.794   8.540   8.082  0.2682  0.1915  0.0850
  185loPI   C6A 2956   6.682   8.217   7.843  0.0411  0.0532  0.0217
  185loPI   C1B 2957   6.643   8.709   8.997  0.1579  0.1810 -0.0287
  185loPI   C2B 2958   6.736   8.602   8.705  0.4060 -0.1771  0.0681
  185loPI   C3B 2959   7.082   8.438   8.489 -0.1620  0.0973  0.3827
  185loPI   C4B 2960   7.236   8.305   8.056 -0.2004 -0.2285 -0.1976
  186loPI    C1 2961   5.835  10.288   9.693  0.1402 -0.0079 -0.0459
  186loPI    C2 2962   5.801  10.299  10.092  0.1063  0.0873 -0.0512
  186loPI    C3 2963   6.135  10.159   9.923  0.1012  0.0010  0.0102
  186loPI   PO4 2964   5.651  10.205   9.626 -0.1920  0.0506 -0.0906
  186loPI   GL1 2965   5.569  10.124   9.214 -0.1566 -0.0347 -0.0478
  186loPI   GL2 2966   5.841  10.327   9.154 -0.1774  0.1373  0.0661
  186loPI   C1A 2967   5.601   9.788   8.905  0.1744  0.1391  0.0099
  186loPI   C2A 2968   5.743   9.744   8.548 -0.1677 -0.2915  0.2067
  186loPI   C3A 2969   5.951   9.973   8.225  0.2114  0.0415 -0.0343
  186loPI   C4A 2970   6.092  10.173   7.750  0.0810 -0.0826 -0.2925
  186loPI   C5A 2971   6.465  10.127   7.655 -0.0195  0.0881  0.0871
  186loPI   C6A 2972   6.743   9.960   7.493  0.1435 -0.0038  0.2850
  186loPI   C1B 2973   5.699  10.216   8.684  0.0543 -0.2908  0.3087
  186loPI   C2B 2974   5.541  10.350   8.240  0.0183  0.0333 -0.2771
  186loPI   C3B 2975   5.547  10.004   7.998  0.0462  0.0448 -0.3695
  186loPI   C4B 2976   5.800   9.626   7.900 -0.0365  0.2078 -0.0264
  187loPI    C1 2977   6.134   6.015   9.662 -0.1412  0.0333 -0.2869
  187loPI    C2 2978   5.819   6.042   9.907  0.1143  0.0511  0.0465
  187loPI    C3 2979   5.852   6.292   9.597 -0.0002  0.3162  0.2430
  187loPI   PO4 2980   6.176   5.715   9.648 -0.1643 -0.0064  0.1305
  187loPI   GL1 2981   6.422   5.340   9.378 -0.0214 -0.0377  0.4360
  187loPI   GL2 2982   6.689   5.116   9.383  0.1853 -0.0614  0.1641
  187loPI   C1A 2983   6.303   5.437   8.937 -0.0138  0.3238  0.1616
  187loPI   C2A 2984   6.388   5.649   8.574  0.0036 -0.0778  0.0352
  187loPI   C3A 2985   6.569   5.708   8.244 -0.2670  0.2040 -0.0858
  187loPI   C4A 2986   6.745   5.830   7.876 -0.0440  0.2656  0.1269
  187loPI   C5A 2987   6.490   5.668   7.664  0.0192  0.1364  0.0950
  187loPI   C6A 2988   6.279   5.296   7.370  0.0864 -0.3990 -0.2752
  187loPI   C1B 2989   6.646   5.046   8.978 -0.0582  0.0089  0.0444
  187loPI   C2B 2990   6.795   4.823   8.606  0.2206  0.1753 -0.2247
  187loPI   C3B 2991   6.765   4.868   8.157 -0.0310 -0.3324 -0.2157
  187loPI   C4B 2992   6.728   5.217   7.726 -0.0048 -0.1572 -0.0850
  188loPI    C1 2993  10.441  17.045  10.349  0.0497  0.0883 -0.1638
  188loPI    C2 2994  10.669  16.923  10.654 -0.2242 -0.1551 -0.0515
  188loPI    C3 2995  10.701  17.298  10.518  0.0212 -0.0951  0.1636
  188loPI   PO4 2996  10.507  16.823  10.123 -0.2570 -0.0497  0.0436
  188loPI   GL1 2997  10.847  16.727   9.771 -0.0596 -0.4162  0.2164
  188loPI   GL2 2998  10.644  16.661   9.693  0.1502 -0.2909  0.1176
  188loPI   C1A 2999  11.047  16.558   9.302 -0.1819 -0.0098 -0.3142
  188loPI   C2A 3000  11.045  16.249   8.935 -0.0178 -0.1563 -0.1951
  188loPI   C3A 3001  11.120  16.213   8.588 -0.1082  0.0103 -0.1423
  188loPI   C4A 3002  11.306  16.342   8.121  0.1374  0.1104 -0.0406
  188loPI   C5A 3003  11.414  16.710   7.790  0.3525 -0.3596  0.2970
  188loPI   C6A 3004  11.788  16.783   7.799  0.1033 -0.2053  0.2145
  188loPI   C1B 3005  10.593  16.318   9.317  0.0430 -0.1490  0.0539
  188loPI   C2B 3006  10.464  16.370   8.895  0.3566  0.0763 -0.1893
  188loPI   C3B 3007  10.642  16.322   8.556 -0.1020 -0.1628 -0.0607
  188loPI   C4B 3008  10.810  16.227   8.170  0.2894  0.2286  0.0882
  189loPI    C1 3009  12.084  18.977  10.195 -0.1478 -0.1010  0.0192
  189loPI    C2 3010  12.320  19.087  10.499  0.1736  0.1692 -0.3183
  189loPI    C3 3011  12.371  18.730  10.325 -0.3354 -0.2006  0.2509
  189loPI   PO4 3012  12.008  19.237  10.029 -0.0545 -0.2304  0.0319
  189loPI   GL1 3013  12.242  19.348   9.633 -0.3509  0.2226 -0.0143
  189loPI   GL2 3014  12.482  19.097   9.512  0.0533 -0.3980 -0.3419
  189loPI   C1A 3015  12.045  19.006   9.365  0.3245  0.0450 -0.1294
  189loPI   C2A 3016  12.093  18.778   8.892 -0.0709 -0.2103  0.1995
  189loPI   C3A 3017  12.336  18.641   8.545  0.0024  0.0612  0.1369
  189loPI   C4A 3018  12.476  18.412   8.237  0.3863  0.0367 -0.0259
  189loPI   C5A 3019  12.611  18.111   8.025  0.0334 -0.2680 -0.1204
  189loPI   C6A 3020  12.735  17.836   7.708 -0.0242  0.2617 -0.2469
  189loPI   C1B 3021  12.331  19.282   9.116  0.3030 -0.1300  0.2417
  189loPI   C2B 3022  12.223  19.206   8.709 -0.1750  0.1890  0.2587
  189loPI   C3B 3023  12.287  19.098   8.415  0.0893 -0.2818 -0.1915
  189loPI   C4B 3024  12.120  19.012   8.075 -0.1838 -0.0453  0.2162
  190loPI    C1 3025   9.817  17.658  10.338  0.1331  0.0012 -0.1770
  190loPI    C2 3026   9.561  17.863  10.567 -0.0210 -0.1398 -0.2212
  190loPI    C3 3027   9.955  17.900  10.625 -0.0580 -0.1682  0.0621
  190loPI   PO4 3028   9.589  17.705  10.024 -0.1639  0.2860  0.1161
  190loPI   GL1 3029   9.589  17.730   9.608  0.0529  0.4310  0.0606
  190loPI   GL2 3030   9.291  17.591   9.560 -0.3069  0.0924  0.1806
  190loPI   C1A 3031   9.860  17.685   9.182  0.0408  0.2264 -0.0211
  190loPI   C2A 3032   9.839  17.836   8.738  0.0108  0.3004 -0.2747
  190loPI   C3A 3033   9.793  18.079   8.400 -0.1260 -0.1713  0.5078
  190loPI   C4A 3034  10.014  18.422   8.230 -0.1865  0.1124 -0.1835
  190loPI   C5A 3035  10.025  18.833   7.971 -0.1020 -0.1993 -0.0478
  190loPI   C6A 3036   9.811  19.232   7.705 -0.0922  0.2713  0.0961
  190loPI   C1B 3037   9.360  17.614   9.106 -0.3380 -0.0802  0.1003
  190loPI   C2B 3038   9.368  17.739   8.743 -0.2100 -0.0652  0.0355
  190loPI   C3B 3039   9.479  17.711   8.349 -0.0115  0.0245  0.0949
  190loPI   C4B 3040   9.223  17.909   8.005 -0.2808 -0.1233 -0.4684
  191loPI    C1 3041  14.353   9.558   9.738 -0.0220 -0.1333  0.1417
  191loPI    C2 3042  14.684   9.444   9.932  0.0868 -0.2722 -0.1202
  191loPI    C3 3043  14.710   9.697   9.623 -0.0921  0.0013  0.0838
  191loPI   PO4 3044  14.188   9.345   9.656  0.2015  0.1129  0.1775
  191loPI   GL1 3045  14.225   9.251   9.243  0.1787 -0.1279 -0.1581
  191loPI   GL2 3046  14.105   9.042   9.093  0.0187  0.2268  0.0071
  191loPI   C1A 3047  14.336   9.628   8.940  0.0871  0.2399 -0.0003
  191loPI   C2A 3048  14.206   9.747   8.557  0.1065  0.1377  0.2379
  191loPI   C3A 3049  13.818   9.822   8.451 -0.0184  0.2050 -0.1177
  191loPI   C4A 3050  13.492   9.713   8.184 -0.0316  0.2384  0.3370
  191loPI   C5A 3051  13.139   9.524   7.953  0.3112 -0.0859  0.3874
  191loPI   C6A 3052  12.902   9.407   7.600 -0.1638 -0.0687 -0.1932
  191loPI   C1B 3053  13.991   9.204   8.650 -0.0456  0.2599  0.0626
  191loPI   C2B 3054  13.900   9.370   8.216 -0.0549  0.2138  0.0257
  191loPI   C3B 3055  13.552   9.228   7.883 -0.1372  0.2417 -0.1285
  191loPI   C4B 3056  13.288   9.142   7.512 -0.2251  0.3405  0.0191
  192loPI    C1 3057   4.892   0.662  10.084 -0.1407 -0.0189  0.1590
  192loPI    C2 3058   5.166   0.587  10.365 -0.1281  0.1088  0.1818
  192loPI    C3 3059   5.233   0.871  10.092 -0.1379 -0.0181  0.0460
  192loPI   PO4 3060   4.737   0.431   9.933  0.1054 -0.0357 -0.0435
  192loPI   GL1 3061   4.738   0.268   9.549 -0.0475  0.1426 -0.2170
  192loPI   GL2 3062   4.886   0.540   9.401  0.1112  0.1618  0.2284
  192loPI   C1A 3063   4.811   0.018   9.217 -0.1712  0.1834  0.0445
  192loPI   C2A 3064   4.930  -0.200   8.962 -0.1375  0.2599  0.0842
  192loPI   C3A 3065   4.944  -0.257   8.553 -0.1828  0.1508 -0.0378
  192loPI   C4A 3066   4.702  -0.089   8.105  0.0073 -0.0032 -0.3286
  192loPI   C5A 3067   4.538  -0.292   7.719  0.3196 -0.1482  0.1867
  192loPI   C6A 3068   4.611  -0.674   7.543 -0.2625  0.0452  0.3296
  192loPI   C1B 3069   5.235   0.560   9.176  0.4274  0.0168  0.1670
  192loPI   C2B 3070   5.217   0.511   8.771  0.0991 -0.3331 -0.1314
  192loPI   C3B 3071   5.181   0.457   8.366  0.2075  0.4044 -0.0023
  192loPI   C4B 3072   5.348   0.521   8.057 -0.0876 -0.1093 -0.1794
  193loPI    C1 3073   1.909   4.106  10.263 -0.0070  0.0299 -0.0287
  193loPI    C2 3074   1.921   4.496  10.353  0.0037  0.0424 -0.0842
  193loPI    C3 3075   1.944   4.222  10.644  0.1940  0.0810 -0.0618
  193loPI   PO4 3076   1.996   3.946  10.095 -0.1588 -0.0523 -0.1250
  193loPI   GL1 3077   2.324   3.923   9.789 -0.1258  0.1777 -0.0164
  193loPI   GL2 3078   2.162   4.236   9.715 -0.1063 -0.1063  0.3754
  193loPI   C1A 3079   2.201   3.948   9.323 -0.1709  0.3603 -0.4160
  193loPI   C2A 3080   2.149   4.045   8.910 -0.0050  0.2858 -0.3616
  193loPI   C3A 3081   2.021   4.034   8.540  0.1503 -0.0263  0.3100
  193loPI   C4A 3082   1.797   3.979   8.116 -0.1199  0.1579 -0.0917
  193loPI   C5A 3083   1.894   3.779   7.785 -0.1384  0.1242 -0.2042
  193loPI   C6A 3084   2.232   3.864   7.508  0.0706 -0.0159 -0.0088
  193loPI   C1B 3085   2.062   4.439   9.278 -0.1948 -0.0728 -0.0084
  193loPI   C2B 3086   2.159   4.560   8.900 -0.2419  0.0051  0.0041
  193loPI   C3B 3087   2.133   4.568   8.492 -0.1197 -0.0915  0.0982
  193loPI   C4B 3088   2.137   4.321   8.125 -0.3681  0.2869  0.3625
  194loPI    C1 3089  14.931   7.001   9.526 -0.0095 -0.3550 -0.2239
  194loPI    C2 3090  15.055   6.670   9.713  0.1374 -0.2454 -0.1246
  194loPI    C3 3091  14.704   6.672   9.521 -0.0532 -0.3375  0.2149
  194loPI   PO4 3092  15.147   7.068   9.398 -0.1067  0.2688  0.0188
  194loPI   GL1 3093  15.488   7.088   9.083  0.0057  0.2609 -0.0017
  194loPI   GL2 3094  15.436   7.421   9.142 -0.0418 -0.0798 -0.1677
  194loPI   C1A 3095  15.720   7.242   8.699  0.3851 -0.1836  0.2562
  194loPI   C2A 3096  15.736   7.371   8.216  0.1598 -0.0712  0.4538
  194loPI   C3A 3097  15.559   7.458   7.842  0.3350  0.0035  0.0083
  194loPI   C4A 3098  15.809   7.621   7.493 -0.0270 -0.2399 -0.0997
  194loPI   C5A 3099  16.215   7.872   7.430  0.0526 -0.1313  0.1639
  194loPI   C6A 3100  16.636   7.884   7.376  0.1246 -0.1106 -0.0475
  194loPI   C1B 3101  14.970   7.506   8.955  0.1320  0.1271  0.1673
  194loPI   C2B 3102  14.752   7.407   8.561  0.1812 -0.0680  0.0975
  194loPI   C3B 3103  14.767   7.188   8.184  0.0930 -0.1504 -0.0593
  194loPI   C4B 3104  14.602   6.804   7.958  0.2390  0.0180 -0.1077
  195loPI    C1 3105  14.674  12.285   9.907  0.0384 -0.0269 -0.0772
  195loPI    C2 3106  14.326  12.119  10.014  0.0737  0.1650  0.3604
  195loPI    C3 3107  14.523  12.354  10.271  0.4836  0.1349  0.0849
  195loPI   PO4 3108  14.917  12.096   9.847  0.1102  0.0188  0.0641
  195loPI   GL1 3109  14.972  11.806   9.489 -0.0590 -0.0804  0.0647
  195loPI   GL2 3110  15.149  11.535   9.438 -0.0485  0.2672 -0.0650
  195loPI   C1A 3111  15.007  11.880   9.042 -0.0636  0.0411 -0.2990
  195loPI   C2A 3112  14.968  12.026   8.568  0.1654  0.0495  0.2784
  195loPI   C3A 3113  15.086  11.743   8.193  0.1940 -0.1921  0.0857
  195loPI   C4A 3114  14.833  11.686   7.840 -0.3204  0.3619 -0.0658
  195loPI   C5A 3115  14.510  11.618   7.535 -0.3438  0.1400  0.0491
  195loPI   C6A 3116  14.361  11.232   7.380  0.0357 -0.0024  0.3932
  195loPI   C1B 3117  15.625  11.577   9.411  0.4598 -0.2117  0.3973
  195loPI   C2B 3118  15.948  11.836   9.401 -0.0316 -0.1918 -0.0009
  195loPI   C3B 3119  16.327  11.774   9.207 -0.1338  0.0014  0.1437
  195loPI   C4B 3120  16.365  11.613   8.793 -0.2464 -0.4089  0.2856
  196loPI    C1 3121  14.179  13.124   9.948 -0.2004  0.0129  0.0314
  196loPI    C2 3122  14.310  13.376  10.229  0.0448  0.0018 -0.0705
  196loPI    C3 3123  14.565  13.227   9.960 -0.2726  0.4186 -0.6254
  196loPI   PO4 3124  13.888  13.097   9.976  0.2749 -0.0934  0.3145
  196loPI   GL1 3125  13.684  13.150   9.576 -0.1321 -0.1022  0.3012
  196loPI   GL2 3126  13.949  13.272   9.501  0.1477 -0.2881  0.4544
  196loPI   C1A 3127  13.763  12.886   9.187  0.0289 -0.1415  0.2507
  196loPI   C2A 3128  13.699  12.564   8.838  0.1096  0.1270 -0.1553
  196loPI   C3A 3129  14.001  12.293   8.671 -0.2990  0.0004  0.0869
  196loPI   C4A 3130  14.028  12.128   8.299 -0.3436  0.0646 -0.4308
  196loPI   C5A 3131  14.005  12.187   7.864  0.0187 -0.0433 -0.0729
  196loPI   C6A 3132  13.731  11.976   7.675 -0.0107 -0.5411 -0.0286
  196loPI   C1B 3133  14.073  13.632   9.179 -0.0963  0.0346  0.1442
  196loPI   C2B 3134  14.280  13.819   8.864 -0.1467 -0.0610  0.0029
  196loPI   C3B 3135  14.231  13.752   8.393  0.4630 -0.1272 -0.0132
  196loPI   C4B 3136  14.009  13.624   8.074 -0.0777 -0.0650  0.0118
  197loPI    C1 3137   8.790  14.641   9.859  0.0277  0.0771  0.0195
  197loPI    C2 3138   8.472  14.566  10.089 -0.0099  0.2228  0.0159
  197loPI    C3 3139   8.839  14.555  10.246 -0.0268  0.2011  0.0542
  197loPI   PO4 3140   8.762  14.527   9.669 -0.3222 -0.1922  0.0305
  197loPI   GL1 3141   8.778  14.527   9.243 -0.3379 -0.1722 -0.0057
  197loPI   GL2 3142   9.121  14.572   9.324 -0.0522  0.4594  0.1701
  197loPI   C1A 3143   8.936  14.656   8.692  0.1153  0.1225 -0.2791
  197loPI   C2A 3144   9.068  14.750   8.214  0.5819 -0.0731  0.0627
  197loPI   C3A 3145   9.062  14.931   7.764  0.0378 -0.1386  0.1758
  197loPI   C4A 3146   8.937  15.213   7.427 -0.1163  0.0756  0.1162
  197loPI   C5A 3147   9.177  15.477   7.141  0.0136  0.0971 -0.2382
  197loPI   C6A 3148   9.435  15.655   6.818  0.0336  0.0657  0.0821
  197loPI   C1B 3149   9.350  14.409   8.808 -0.0105  0.3554 -0.1364
  197loPI   C2B 3150   9.407  14.431   8.425 -0.0223 -0.1478  0.2090
  197loPI   C3B 3151   9.504  14.526   7.978 -0.2004  0.1246 -0.1879
  197loPI   C4B 3152   9.669  14.860   7.708  0.0127  0.0938 -0.1662
  198loPI    C1 3153   2.493  11.895   9.831 -0.0829 -0.2145 -0.1001
  198loPI    C2 3154   2.855  12.050   9.901 -0.0925 -0.2977  0.1433
  198loPI    C3 3155   2.533  12.286   9.906 -0.0725 -0.2713  0.2050
  198loPI   PO4 3156   2.462  11.708   9.597  0.3530 -0.0686  0.2792
  198loPI   GL1 3157   2.318  11.754   9.150 -0.1591 -0.0727 -0.0272
  198loPI   GL2 3158   2.659  11.794   9.162  0.2266 -0.1997  0.0395
  198loPI   C1A 3159   2.191  11.450   8.824 -0.3526  0.0186  0.1169
  198loPI   C2A 3160   2.135  11.509   8.336  0.2689 -0.4381  0.1414
  198loPI   C3A 3161   2.275  11.701   7.922 -0.2888  0.4492  0.1325
  198loPI   C4A 3162   2.534  11.852   7.587  0.1440 -0.0150  0.0760
  198loPI   C5A 3163   2.944  12.055   7.337  0.0536  0.1748 -0.0725
  198loPI   C6A 3164   3.294  12.425   7.394 -0.0660  0.2401  0.1746
  198loPI   C1B 3165   2.664  12.110   8.882  0.1232 -0.1626  0.2415
  198loPI   C2B 3166   2.730  12.284   8.493 -0.1614 -0.4015  0.4354
  198loPI   C3B 3167   2.623  12.623   8.162  0.1145 -0.5169  0.2138
  198loPI   C4B 3168   2.650  12.931   8.185 -0.1581  0.1351  0.0263
  199loPI    C1 3169  11.852  10.010   9.518 -0.1133  0.1524 -0.1921
  199loPI    C2 3170  11.874  10.397   9.619  0.0779  0.0385  0.2263
  199loPI    C3 3171  11.814  10.120   9.901 -0.0814 -0.2384 -0.0727
  199loPI   PO4 3172  11.583  10.091   9.318 -0.0534 -0.0388 -0.2609
  199loPI   GL1 3173  11.497  10.378   9.122 -0.2216 -0.1991  0.0683
  199loPI   GL2 3174  11.240  10.320   9.004  0.0225  0.1837 -0.4787
  199loPI   C1A 3175  11.600  10.305   8.637  0.1033 -0.0369  0.2906
  199loPI   C2A 3176  11.664  10.269   8.174 -0.0160  0.2806 -0.0802
  199loPI   C3A 3177  11.814  10.330   7.742 -0.0990  0.1564 -0.2476
  199loPI   C4A 3178  12.030   9.962   7.592 -0.3745  0.1983 -0.1132
  199loPI   C5A 3179  12.233   9.595   7.787 -0.2496  0.1564 -0.0776
  199loPI   C6A 3180  12.459   9.464   7.480 -0.1016 -0.2059  0.2487
  199loPI   C1B 3181  11.105  10.399   8.585  0.2157 -0.0037  0.3857
  199loPI   C2B 3182  11.205  10.175   8.248 -0.1806  0.4301  0.2732
  199loPI   C3B 3183  11.194  10.133   7.838  0.2855 -0.1255 -0.1626
  199loPI   C4B 3184  10.976  10.147   7.369 -0.2620 -0.2689  0.0377
  200loPI    C1 3185   7.032  18.443  10.590  0.0796  0.0649  0.0951
  200loPI    C2 3186   6.689  18.284  10.459  0.2144  0.0510 -0.2543
  200loPI    C3 3187   6.988  18.046  10.576  0.1873  0.0598 -0.1665
  200loPI   PO4 3188   7.112  18.541  10.439  0.2006 -0.2002  0.1232
  200loPI   GL1 3189   6.987  18.528  10.043 -0.3122  0.1698 -0.2351
  200loPI   GL2 3190   7.017  18.815   9.823 -0.0759 -0.1320  0.0991
  200loPI   C1A 3191   7.110  18.250   9.651 -0.0625 -0.1832  0.0418
  200loPI   C2A 3192   6.965  18.171   9.238 -0.2814  0.3096 -0.0327
  200loPI   C3A 3193   6.705  18.327   8.850 -0.1383  0.1375 -0.2118
  200loPI   C4A 3194   6.610  18.269   8.367 -0.1872  0.2909 -0.2766
  200loPI   C5A 3195   6.744  18.018   8.003  0.3782  0.0645  0.1234
  200loPI   C6A 3196   7.053  17.850   7.889 -0.4161 -0.2603 -0.4769
  200loPI   C1B 3197   7.213  18.649   9.359 -0.2264  0.2740  0.1128
  200loPI   C2B 3198   7.154  18.585   8.952  0.2338 -0.1334  0.0014
  200loPI   C3B 3199   7.122  18.253   8.608 -0.2438 -0.0039 -0.2311
  200loPI   C4B 3200   7.343  17.990   8.314  0.0746  0.1595  0.1016
  201loPI    C1 3201   9.486   9.246   9.688  0.0199 -0.1079  0.0596
  201loPI    C2 3202   9.124   9.163   9.835 -0.0590  0.0799 -0.0262
  201loPI    C3 3203   9.292   9.518   9.907 -0.0895  0.1673 -0.3685
  201loPI   PO4 3204   9.398   9.160   9.380 -0.5749  0.0875  0.0322
  201loPI   GL1 3205   9.302   9.393   9.007 -0.1044  0.0538  0.1944
  201loPI   GL2 3206   9.400   9.056   8.847 -0.3783 -0.1379 -0.1448
  201loPI   C1A 3207   9.066   9.850   8.911 -0.4554  0.0826 -0.0720
  201loPI   C2A 3208   9.180  10.268   8.720 -0.2288  0.1559  0.0915
  201loPI   C3A 3209   9.005  10.528   8.420 -0.2477  0.0913 -0.0236
  201loPI   C4A 3210   8.645  10.456   8.080 -0.2174  0.1554 -0.0528
  201loPI   C5A 3211   8.467  10.482   7.642  0.0127  0.4076 -0.1662
  201loPI   C6A 3212   8.157  10.317   7.236  0.1733  0.3098  0.0007
  201loPI   C1B 3213   9.643   9.005   8.556 -0.2032  0.1116 -0.4864
  201loPI   C2B 3214   9.751   8.800   8.217  0.0415 -0.3272 -0.1162
  201loPI   C3B 3215  10.012   8.937   7.902 -0.0558 -0.0120 -0.2928
  201loPI   C4B 3216  10.351   8.926   7.941 -0.0363 -0.1933 -0.0133
  202loPI    C1 3217  16.041   1.757  10.002 -0.1245 -0.1445 -0.1826
  202loPI    C2 3218  15.915   1.840  10.373 -0.0431 -0.2115 -0.1396
  202loPI    C3 3219  15.678   1.638  10.121 -0.1197 -0.1191 -0.1421
  202loPI   PO4 3220  16.173   1.886   9.943 -0.1977 -0.0098  0.3870
  202loPI   GL1 3221  16.155   2.269   9.618  0.2882 -0.1420 -0.0158
  202loPI   GL2 3222  16.301   1.965   9.468 -0.2703  0.0131  0.1190
  202loPI   C1A 3223  15.888   2.154   9.333 -0.0769 -0.0018  0.0631
  202loPI   C2A 3224  15.450   2.003   9.278 -0.1265  0.0318  0.6164
  202loPI   C3A 3225  15.165   2.028   8.966  0.0349 -0.0527  0.1866
  202loPI   C4A 3226  15.229   2.023   8.547 -0.0969  0.0871  0.1506
  202loPI   C5A 3227  15.171   2.402   8.171  0.2166  0.0275 -0.0786
  202loPI   C6A 3228  14.982   2.750   8.111 -0.0817 -0.1468 -0.1201
  202loPI   C1B 3229  16.045   1.769   9.052  0.0782 -0.3278 -0.1139
  202loPI   C2B 3230  15.986   1.491   8.718  0.4150 -0.0738 -0.0939
  202loPI   C3B 3231  16.221   1.170   8.396 -0.0956 -0.0142 -0.2167
  202loPI   C4B 3232  16.219   0.868   8.164  0.2797  0.4074  0.2001
  203loPI    C1 3233   7.489   9.789   9.953 -0.4492  0.1315 -0.1075
  203loPI    C2 3234   7.419   9.400   9.892  0.0725  0.0268 -0.0899
  203loPI    C3 3235   7.332   9.566  10.245 -0.0816 -0.0890 -0.0722
  203loPI   PO4 3236   7.399   9.872   9.712  0.0790 -0.2713 -0.0344
  203loPI   GL1 3237   7.389   9.657   9.299 -0.1379  0.1173 -0.1100
  203loPI   GL2 3238   7.633   9.467   9.357  0.3224  0.1018  0.2708
  203loPI   C1A 3239   7.209   9.611   8.828  0.2673  0.1693 -0.1016
  203loPI   C2A 3240   7.263   9.514   8.340  0.3672 -0.0655 -0.0013
  203loPI   C3A 3241   7.388   9.204   8.102  0.0596  0.0134 -0.0411
  203loPI   C4A 3242   7.523   9.134   7.758 -0.3040 -0.3601  0.2319
  203loPI   C5A 3243   7.317   8.932   7.408 -0.5645 -0.1125 -0.1546
  203loPI   C6A 3244   6.884   9.039   7.303 -0.1131 -0.1836 -0.1476
  203loPI   C1B 3245   7.697   9.529   8.942  0.2218 -0.2173  0.5487
  203loPI   C2B 3246   7.783   9.571   8.474  0.0452 -0.0530 -0.0318
  203loPI   C3B 3247   7.926   9.564   8.005  0.3671 -0.0902  0.0483
  203loPI   C4B 3248   8.212   9.732   7.745  0.1305  0.1516 -0.3177
  204loPI    C1 3249   4.278  14.627   9.782  0.1828 -0.1693  0.0015
  204loPI    C2 3250   4.175  14.987   9.644 -0.0997 -0.2590 -0.0276
  204loPI    C3 3251   4.322  14.950  10.014 -0.0312 -0.1097 -0.0389
  204loPI   PO4 3252   4.039  14.530   9.635  0.0540 -0.3786 -0.1210
  204loPI   GL1 3253   3.874  14.580   9.282  0.1770  0.0995 -0.1291
  204loPI   GL2 3254   3.654  14.266   9.250  0.3440 -0.1334  0.1287
  204loPI   C1A 3255   3.865  14.794   8.931 -0.0446 -0.3977 -0.0320
  204loPI   C2A 3256   4.011  14.891   8.515 -0.1963 -0.1941  0.2681
  204loPI   C3A 3257   4.053  14.665   8.097 -0.2614  0.1799  0.0440
  204loPI   C4A 3258   3.650  14.692   7.822 -0.1695 -0.1177 -0.2837
  204loPI   C5A 3259   3.209  14.685   7.649  0.0297  0.2139  0.2944
  204loPI   C6A 3260   2.835  14.850   7.739 -0.2475 -0.1443 -0.1409
  204loPI   C1B 3261   3.758  14.033   8.846  0.1369  0.0816 -0.4356
  204loPI   C2B 3262   3.684  13.974   8.442 -0.1781  0.2548  0.1633
  204loPI   C3B 3263   3.371  14.061   8.247  0.0561  0.1812 -0.3056
  204loPI   C4B 3264   3.119  13.713   8.003  0.1353 -0.2853 -0.2609
  205loPI    C1 3265   4.498   6.035  10.146  0.0019 -0.1168  0.2303
  205loPI    C2 3266   4.630   5.670  10.242  0.4247  0.0236  0.2035
  205loPI    C3 3267   4.563   5.941  10.529 -0.2319 -0.1771  0.2570
  205loPI   PO4 3268   4.476   5.941   9.851 -0.4575  0.1841  0.5952
  205loPI   GL1 3269   4.318   5.809   9.365  0.0256  0.0296 -0.0172
  205loPI   GL2 3270   4.097   5.705   9.322  0.0021  0.0397  0.3541
  205loPI   C1A 3271   4.522   5.847   9.032 -0.1283 -0.3976  0.3008
  205loPI   C2A 3272   4.546   5.993   8.621  0.3496  0.2129 -0.0569
  205loPI   C3A 3273   4.466   6.075   8.177 -0.5317  0.1198  0.0120
  205loPI   C4A 3274   4.160   6.392   7.940  0.0076 -0.1308  0.0689
  205loPI   C5A 3275   4.103   6.832   7.790 -0.0654 -0.0869  0.0717
  205loPI   C6A 3276   4.111   7.336   7.832 -0.0967 -0.1713  0.1004
  205loPI   C1B 3277   4.027   5.768   8.754 -0.3779 -0.0978  0.0675
  205loPI   C2B 3278   3.936   6.015   8.408 -0.2099 -0.3978  0.0269
  205loPI   C3B 3279   3.884   5.879   7.990  0.3154  0.1262 -0.1458
  205loPI   C4B 3280   3.644   5.507   7.809 -0.1541 -0.2971 -0.1952
  206loPI    C1 3281  15.243   0.515   9.955 -0.0004  0.0809  0.0808
  206loPI    C2 3282  15.397   0.605  10.313 -0.1055 -0.0484  0.1594
  206loPI    C3 3283  15.000   0.583  10.266 -0.0946  0.0461  0.0153
  206loPI   PO4 3284  15.452   0.461   9.828  0.0545  0.0344  0.1675
  206loPI   GL1 3285  15.504   0.436   9.458 -0.2302 -0.2611 -0.4652
  206loPI   GL2 3286  15.663   0.319   9.172 -0.1310  0.2999 -0.0326
  206loPI   C1A 3287  15.619   0.764   9.051  0.2923  0.2851  0.1450
  206loPI   C2A 3288  15.639   1.127   8.707  0.1690  0.1984  0.1083
  206loPI   C3A 3289  15.756   1.305   8.286  0.1168 -0.4169 -0.1655
  206loPI   C4A 3290  15.768   1.640   7.909 -0.0100 -0.0620  0.2015
  206loPI   C5A 3291  15.557   1.810   7.611  0.1233 -0.3560  0.0727
  206loPI   C6A 3292  15.082   1.906   7.506 -0.2029  0.1167  0.0631
  206loPI   C1B 3293  15.502   0.348   8.729  0.0904  0.5886 -0.0220
  206loPI   C2B 3294  15.394   0.091   8.314 -0.0981 -0.1665  0.0690
  206loPI   C3B 3295  15.053   0.232   7.958 -0.2270 -0.3189 -0.1047
  206loPI   C4B 3296  14.603   0.266   7.767 -0.1366  0.1285 -0.0879
  207loPI    C1 3297  18.631   2.949  10.210 -0.0325  0.2361 -0.1890
  207loPI    C2 3298  18.246   2.861  10.270  0.0160  0.0203 -0.1863
  207loPI    C3 3299  18.454   3.051  10.554 -0.0426 -0.0188 -0.1165
  207loPI   PO4 3300  18.580   2.887   9.937 -0.2776  0.2651  0.2206
  207loPI   GL1 3301  18.360   2.744   9.564 -0.0491 -0.4012 -0.1144
  207loPI   GL2 3302  18.506   2.877   9.249 -0.4014 -0.1629 -0.2271
  207loPI   C1A 3303  18.430   2.409   9.161 -0.0129  0.1868 -0.3496
  207loPI   C2A 3304  18.485   2.453   8.693  0.0098 -0.0983  0.0946
  207loPI   C3A 3305  18.463   2.484   8.213  0.2365  0.0001 -0.1028
  207loPI   C4A 3306  18.360   2.610   7.924 -0.3936  0.0177  0.0538
  207loPI   C5A 3307  18.541   2.543   7.410 -0.1540 -0.0048 -0.1481
  207loPI   C6A 3308  18.417   2.371   7.034  0.0622  0.3220  0.2398
  207loPI   C1B 3309  18.579   2.909   8.792 -0.0848  0.1240  0.2097
  207loPI   C2B 3310  18.466   3.074   8.419  0.0226  0.2123 -0.1303
  207loPI   C3B 3311  18.459   3.068   8.041  0.0324 -0.1212  0.1357
  207loPI   C4B 3312  18.260   2.948   7.581  0.0108  0.2621  0.0255
  208loPI    C1 3313   3.509  11.734  10.241  0.1166 -0.5648 -0.0666
  208loPI    C2 3314   3.772  11.934  10.016 -0.1172 -0.2712 -0.0848
  208loPI    C3 3315   3.901  11.703  10.316  0.1560 -0.0327 -0.0137
  208loPI   PO4 3316   3.360  11.524  10.058 -0.1787 -0.0272  0.2695
  208loPI   GL1 3317   3.412  11.116   9.757 -0.1666 -0.0214  0.1399
  208loPI   GL2 3318   3.151  11.137   9.692 -0.0955  0.2380 -0.1467
  208loPI   C1A 3319   3.533  11.190   9.324 -0.0609  0.3262  0.0129
  208loPI   C2A 3320   3.618  11.247   8.983  0.1937  0.0586 -0.1697
  208loPI   C3A 3321   3.612  11.045   8.618 -0.0800 -0.1293  0.1532
  208loPI   C4A 3322   3.466  10.941   8.169  0.0583  0.0428  0.2734
  208loPI   C5A 3323   3.414  10.791   7.771 -0.1423 -0.0524  0.3035
  208loPI   C6A 3324   3.095  10.720   7.487  0.0335  0.0542 -0.3981
  208loPI   C1B 3325   3.089  11.026   9.271  0.1465  0.1991 -0.0903
  208loPI   C2B 3326   3.421  10.777   8.999 -0.2539  0.2083 -0.1456
  208loPI   C3B 3327   3.322  10.532   8.674  0.2727  0.0423  0.1702
  208loPI   C4B 3328   2.973  10.373   8.522  0.0109 -0.0635 -0.3505
  209loPI    C1 3329  14.738   8.405  10.000  0.1008 -0.0402 -0.0735
  209loPI    C2 3330  14.976   8.278  10.295 -0.0601 -0.1508  0.0102
  209loPI    C3 3331  14.583   8.209  10.312 -0.0913 -0.0197 -0.1549
  209loPI   PO4 3332  14.855   8.459   9.779 -0.0935  0.2295  0.2518
  209loPI   GL1 3333  14.624   8.516   9.328  0.1293  0.1821 -0.0283
  209loPI   GL2 3334  14.588   8.764   9.297  0.0828  0.2025 -0.0461
  209loPI   C1A 3335  14.903   8.355   9.017  0.0324  0.2051 -0.3232
  209loPI   C2A 3336  14.712   8.410   8.605 -0.0200  0.0463 -0.0142
  209loPI   C3A 3337  14.520   8.572   8.234  0.2083  0.0612 -0.0304
  209loPI   C4A 3338  14.272   8.464   7.877  0.0353 -0.1691  0.0468
  209loPI   C5A 3339  14.314   8.591   7.504 -0.1101 -0.0118 -0.0355
  209loPI   C6A 3340  14.031   8.942   7.559  0.2058  0.2484  0.0818
  209loPI   C1B 3341  14.456   8.746   8.925  0.1759  0.0336 -0.0112
  209loPI   C2B 3342  14.316   8.878   8.563  0.3154  0.1693 -0.0520
  209loPI   C3B 3343  14.385   9.085   8.269 -0.2024 -0.1624 -0.0921
  209loPI   C4B 3344  14.596   8.961   7.816  0.1019 -0.2507  0.1665
  210loPI    C1 3345  18.988  12.792   9.877 -0.1317 -0.0263 -0.0524
  210loPI    C2 3346  18.762  12.483   9.992 -0.0796 -0.0856 -0.1091
  210loPI    C3 3347  19.105  12.563  10.183 -0.2086  0.0796  0.0576
  210loPI   PO4 3348  18.854  12.886   9.614 -0.0322  0.1214 -0.0647
  210loPI   GL1 3349  19.000  13.095   9.254  0.0407 -0.2634 -0.1343
  210loPI   GL2 3350  18.667  12.923   9.134 -0.1557 -0.3642  0.2494
  210loPI   C1A 3351  19.057  13.179   8.794  0.1855 -0.0178 -0.1321
  210loPI   C2A 3352  19.090  13.185   8.386 -0.2335  0.1027 -0.1175
  210loPI   C3A 3353  19.228  13.175   8.018 -0.3078  0.1019  0.5158
  210loPI   C4A 3354  19.565  13.271   7.666 -0.2343 -0.3941 -0.2195
  210loPI   C5A 3355  19.859  13.265   7.393  0.0740 -0.3319 -0.2752
  210loPI   C6A 3356  20.240  13.379   7.138  0.1579  0.0397 -0.1540
  210loPI   C1B 3357  18.418  12.606   8.904  0.0180  0.1156  0.0434
  210loPI   C2B 3358  18.380  12.417   8.468 -0.0248 -0.0384 -0.1716
  210loPI   C3B 3359  18.511  12.505   8.136 -0.3201  0.0538  0.0521
  210loPI   C4B 3360  18.614  12.522   7.705  0.3052  0.0596 -0.1374
  211loPI    C1 3361  13.695   6.160  10.025 -0.3264  0.2023  0.2788
  211loPI    C2 3362  14.034   6.180  10.235 -0.1014  0.1768 -0.0726
  211loPI    C3 3363  13.703   6.356  10.374  0.0592  0.2259  0.2616
  211loPI   PO4 3364  13.787   6.246   9.795 -0.2122  0.2576  0.1322
  211loPI   GL1 3365  13.947   6.320   9.401  0.0849  0.3665 -0.1245
  211loPI   GL2 3366  13.806   5.979   9.305 -0.1734 -0.1596  0.0513
  211loPI   C1A 3367  13.890   6.499   9.014  0.0297 -0.1887  0.3454
  211loPI   C2A 3368  13.931   6.483   8.665  0.2072  0.2271 -0.2112
  211loPI   C3A 3369  13.922   6.352   8.226 -0.1066  0.2060  0.0618
  211loPI   C4A 3370  13.716   6.317   7.794  0.0211  0.3483  0.0650
  211loPI   C5A 3371  13.944   6.376   7.411  0.0352  0.1328  0.0359
  211loPI   C6A 3372  13.790   6.189   7.024  0.0581 -0.1305 -0.1342
  211loPI   C1B 3373  13.738   6.009   8.740  0.6592 -0.1304  0.1285
  211loPI   C2B 3374  13.435   5.855   8.295  0.1336  0.2346 -0.2263
  211loPI   C3B 3375  13.319   5.969   7.823 -0.1561  0.1224 -0.2960
  211loPI   C4B 3376  13.594   5.970   7.425  0.1009 -0.0622 -0.3249
  212loPI    C1 3377  16.766   8.928   9.750  0.1388 -0.0916  0.1915
  212loPI    C2 3378  16.402   9.089   9.705  0.0135 -0.3697  0.1866
  212loPI    C3 3379  16.729   9.311   9.642 -0.1550 -0.1866 -0.0618
  212loPI   PO4 3380  16.726   8.713   9.537 -0.1313  0.3611  0.1011
  212loPI   GL1 3381  16.816   8.750   9.121 -0.0906 -0.0387  0.0532
  212loPI   GL2 3382  16.509   9.044   9.210  0.2523 -0.3285 -0.0372
  212loPI   C1A 3383  16.850   8.520   8.674  0.0875  0.1286  0.1089
  212loPI   C2A 3384  16.883   8.485   8.289  0.1388 -0.2931 -0.0808
  212loPI   C3A 3385  16.878   8.287   7.919  0.1661 -0.0005  0.1544
  212loPI   C4A 3386  17.054   8.158   7.591  0.3176  0.1567 -0.1977
  212loPI   C5A 3387  17.096   8.015   7.162 -0.3263  0.0981 -0.0518
  212loPI   C6A 3388  17.170   7.733   6.775  0.1077 -0.3147  0.1723
  212loPI   C1B 3389  16.412   8.952   8.732 -0.0790 -0.0989  0.0806
  212loPI   C2B 3390  16.496   8.782   8.317 -0.3628  0.0410 -0.0418
  212loPI   C3B 3391  16.553   8.763   7.925  0.1267 -0.1128  0.1471
  212loPI   C4B 3392  16.524   8.916   7.403 -0.1665  0.2296 -0.1497
  213loPI    C1 3393  10.356   4.131   9.942  0.0439 -0.0098 -0.0767
  213loPI    C2 3394  10.516   3.956  10.264 -0.4876 -0.0850  0.1558
  213loPI    C3 3395  10.584   3.805   9.901 -0.1871 -0.2207  0.2655
  213loPI   PO4 3396  10.332   4.435  10.076 -0.0196 -0.1683  0.0262
  213loPI   GL1 3397  10.128   4.702   9.791 -0.0402 -0.0220 -0.3120
  213loPI   GL2 3398  10.071   4.378   9.629 -0.1541 -0.3587  0.1529
  213loPI   C1A 3399  10.118   4.963   9.401 -0.2020 -0.2283 -0.1749
  213loPI   C2A 3400  10.038   4.874   8.990 -0.1519  0.1487  0.3005
  213loPI   C3A 3401   9.876   4.735   8.578  0.1675 -0.2068 -0.0463
  213loPI   C4A 3402   9.859   4.661   8.132 -0.3804  0.0174  0.0902
  213loPI   C5A 3403   9.640   4.608   7.738 -0.0743  0.5020 -0.2296
  213loPI   C6A 3404   9.449   4.681   7.356 -0.0559 -0.3876  0.4567
  213loPI   C1B 3405   9.845   4.427   9.207 -0.0651  0.0274 -0.1545
  213loPI   C2B 3406   9.741   4.278   8.814  0.1325 -0.2238 -0.1019
  213loPI   C3B 3407   9.715   4.263   8.374 -0.0247  0.1695 -0.0246
  213loPI   C4B 3408   9.784   4.049   7.891 -0.0476  0.1523  0.0134
  214loPI    C1 3409   8.865   8.161   9.789 -0.1732  0.0668 -0.0272
  214loPI    C2 3410   8.737   8.386  10.093  0.0706 -0.2171  0.2932
  214loPI    C3 3411   8.959   8.549   9.804 -0.0467  0.0258  0.3373
  214loPI   PO4 3412   8.617   8.033   9.714  0.1156  0.3200  0.4645
  214loPI   GL1 3413   8.566   7.652   9.535  0.2693  0.1006 -0.2969
  214loPI   GL2 3414   8.700   7.431   9.446 -0.3564 -0.0457 -0.1631
  214loPI   C1A 3415   8.426   7.748   9.089  0.1622 -0.0262 -0.1699
  214loPI   C2A 3416   8.386   7.613   8.812  0.0306 -0.1936 -0.0163
  214loPI   C3A 3417   8.220   7.420   8.525  0.2802  0.0447  0.1183
  214loPI   C4A 3418   8.081   7.135   8.288 -0.2363 -0.1318 -0.1204
  214loPI   C5A 3419   7.931   7.214   7.920 -0.1334 -0.0816  0.2916
  214loPI   C6A 3420   7.585   7.400   7.819 -0.1189 -0.3159 -0.3227
  214loPI   C1B 3421   8.765   7.266   9.017  0.0183 -0.1719 -0.1210
  214loPI   C2B 3422   8.679   7.294   8.547 -0.3538 -0.3026  0.0102
  214loPI   C3B 3423   8.663   7.170   8.176 -0.3762  0.1099 -0.0222
  214loPI   C4B 3424   8.517   6.952   7.902  0.0668 -0.0862 -0.0161
  215loPI    C1 3425   7.990   9.942   9.888 -0.1054  0.2356 -0.1478
  215loPI    C2 3426   8.125  10.311   9.815  0.0565  0.2134  0.0302
  215loPI    C3 3427   8.263  10.107  10.130  0.0385 -0.0358 -0.1209
  215loPI   PO4 3428   7.934   9.827   9.725  0.1189  0.1334 -0.2617
  215loPI   GL1 3429   8.032  10.051   9.406 -0.0082  0.3044 -0.0133
  215loPI   GL2 3430   7.694  10.050   9.294 -0.0156  0.2335 -0.1531
  215loPI   C1A 3431   8.344  10.320   9.147  0.0539 -0.1515 -0.0326
  215loPI   C2A 3432   8.204  10.695   8.864  0.2731  0.0102 -0.1060
  215loPI   C3A 3433   7.930  10.725   8.387  0.4004 -0.1476 -0.2782
  215loPI   C4A 3434   7.652  10.488   8.152  0.3296 -0.0345  0.2696
  215loPI   C5A 3435   7.453  10.383   7.677  0.3347  0.2515 -0.3968
  215loPI   C6A 3436   7.245  10.299   7.246  0.0444 -0.2091 -0.0242
  215loPI   C1B 3437   8.046   9.880   8.896  0.2365 -0.0848 -0.0580
  215loPI   C2B 3438   8.271   9.768   8.486  0.4039  0.0865  0.2844
  215loPI   C3B 3439   8.454   9.959   8.097 -0.2003 -0.0842 -0.0604
  215loPI   C4B 3440   8.613  10.019   7.724 -0.0500 -0.1196  0.2580
  216loPI    C1 3441  11.119  16.380  10.003 -0.2581 -0.1723  0.0296
  216loPI    C2 3442  11.188  16.327  10.393  0.1793  0.1443  0.0018
  216loPI    C3 3443  10.861  16.523  10.273  0.0002 -0.0259  0.2023
  216loPI   PO4 3444  11.266  16.278   9.906 -0.0471  0.1325  0.2362
  216loPI   GL1 3445  11.503  16.292   9.583  0.2034  0.2619  0.0006
  216loPI   GL2 3446  11.766  16.357   9.629 -0.2200  0.1141  0.0413
  216loPI   C1A 3447  11.450  16.262   9.228  0.2081  0.0766 -0.4506
  216loPI   C2A 3448  11.509  16.114   8.823 -0.1386  0.0502  0.3350
  216loPI   C3A 3449  11.641  15.947   8.529  0.0027 -0.3934  0.0198
  216loPI   C4A 3450  11.715  15.999   8.081 -0.3069  0.0708  0.0069
  216loPI   C5A 3451  11.953  16.005   7.669 -0.0662 -0.0282 -0.0848
  216loPI   C6A 3452  12.344  16.260   7.490  0.2169  0.0635  0.1701
  216loPI   C1B 3453  11.940  16.460   9.222  0.0057 -0.2173  0.2058
  216loPI   C2B 3454  11.970  16.369   8.727  0.1015  0.2277  0.0511
  216loPI   C3B 3455  12.161  16.311   8.378  0.0409  0.1448 -0.3377
  216loPI   C4B 3456  12.198  16.331   7.963  0.0183 -0.1866 -0.0420
  217loPI    C1 3457   3.398  17.785  10.055  0.0479 -0.2210 -0.0574
  217loPI    C2 3458   3.096  17.983  10.229 -0.0403 -0.2100 -0.2214
  217loPI    C3 3459   3.291  17.697  10.431  0.0409 -0.0070 -0.0082
  217loPI   PO4 3460   3.565  17.988   9.977 -0.0983  0.2081  0.2829
  217loPI   GL1 3461   3.516  18.258   9.736 -0.3807  0.0616 -0.2198
  217loPI   GL2 3462   3.559  18.469   9.747 -0.0400  0.0430 -0.1920
  217loPI   C1A 3463   3.532  18.231   9.279  0.1292 -0.3981 -0.1259
  217loPI   C2A 3464   3.229  17.910   8.981  0.1532 -0.3393 -0.1917
  217loPI   C3A 3465   3.304  17.660   8.513  0.0741  0.1236  0.0787
  217loPI   C4A 3466   3.457  17.576   8.076 -0.1999  0.0098  0.0388
  217loPI   C5A 3467   3.501  17.811   7.595  0.3093 -0.2700 -0.4722
  217loPI   C6A 3468   3.322  18.222   7.542  0.5316 -0.1293  0.0182
  217loPI   C1B 3469   3.903  18.558   9.490 -0.2049  0.0447 -0.1044
  217loPI   C2B 3470   4.279  18.377   9.294 -0.2046  0.2327 -0.1077
  217loPI   C3B 3471   4.256  18.026   8.960 -0.0749 -0.0362  0.1459
  217loPI   C4B 3472   4.046  17.667   9.214  0.0758 -0.2458  0.1681
  218loPI    C1 3473  14.800  14.977   9.928  0.2965 -0.1240  0.1085
  218loPI    C2 3474  14.878  14.590   9.866  0.2213 -0.1134 -0.0588
  218loPI    C3 3475  14.843  14.730  10.239  0.0971 -0.2982  0.0004
  218loPI   PO4 3476  14.623  15.065   9.705 -0.2886 -0.1159 -0.1829
  218loPI   GL1 3477  14.280  15.175   9.442  0.1859 -0.1519 -0.0779
  218loPI   GL2 3478  14.038  14.955   9.579  0.0717 -0.0424  0.0371
  218loPI   C1A 3479  14.232  15.299   9.088  0.1607 -0.0057  0.1872
  218loPI   C2A 3480  14.150  15.342   8.658  0.1507  0.1794  0.1704
  218loPI   C3A 3481  13.874  15.340   8.350  0.4720  0.1440 -0.0688
  218loPI   C4A 3482  13.718  15.418   7.926 -0.0319 -0.3095 -0.0671
  218loPI   C5A 3483  13.992  15.661   7.495 -0.0423  0.2103  0.1063
  218loPI   C6A 3484  14.114  15.268   7.212  0.2771  0.1482 -0.3718
  218loPI   C1B 3485  13.809  14.928   9.088  0.0805 -0.1186  0.1070
  218loPI   C2B 3486  13.609  14.880   8.617  0.1626  0.2358 -0.1594
  218loPI   C3B 3487  13.412  14.985   8.331 -0.1979  0.1435 -0.0327
  218loPI   C4B 3488  13.078  15.124   7.912 -0.1140  0.1189  0.1326
  219loPI    C1 3489   2.461  14.776  10.002 -0.1040 -0.4106  0.3217
  219loPI    C2 3490   2.803  14.639  10.157  0.0752 -0.1032  0.2070
  219loPI    C3 3491   2.706  15.025  10.197 -0.0661 -0.1038 -0.1039
  219loPI   PO4 3492   2.368  14.643   9.834  0.0559  0.2657 -0.2450
  219loPI   GL1 3493   2.413  14.833   9.473 -0.0675 -0.0940  0.1979
  219loPI   GL2 3494   2.106  14.994   9.420  0.2446  0.0974 -0.0570
  219loPI   C1A 3495   2.472  14.583   9.116  0.4621 -0.1482 -0.0975
  219loPI   C2A 3496   2.603  14.393   8.739  0.0089  0.1269 -0.3367
  219loPI   C3A 3497   2.538  14.219   8.323 -0.0283  0.0650 -0.1263
  219loPI   C4A 3498   2.624  13.966   8.036 -0.0373 -0.1747  0.0403
  219loPI   C5A 3499   2.590  13.860   7.615 -0.0070  0.1529 -0.1157
  219loPI   C6A 3500   2.675  13.496   7.459 -0.1321 -0.1636 -0.2725
  219loPI   C1B 3501   2.020  14.890   8.972  0.0375  0.0231 -0.1096
  219loPI   C2B 3502   1.802  14.837   8.625 -0.0203 -0.0933 -0.1244
  219loPI   C3B 3503   1.823  14.753   8.145  0.0742  0.1016  0.0768
  219loPI   C4B 3504   1.775  14.752   7.687  0.0727  0.4314  0.1226
  220loPI    C1 3505   3.618   6.864   9.783 -0.0536 -0.0075  0.0527
  220loPI    C2 3506   3.661   7.034  10.142  0.1790  0.0844 -0.0175
  220loPI    C3 3507   3.811   7.212   9.816  0.1676 -0.1096 -0.1304
  220loPI   PO4 3508   3.387   6.776   9.807  0.2118  0.2733 -0.2730
  220loPI   GL1 3509   3.267   6.602   9.517  0.0526  0.1181  0.1773
  220loPI   GL2 3510   3.134   6.303   9.472 -0.2228  0.3191 -0.1026
  220loPI   C1A 3511   3.433   6.627   9.087  0.1082  0.0111  0.0144
  220loPI   C2A 3512   3.432   6.470   8.623 -0.2629  0.3612 -0.2692
  220loPI   C3A 3513   3.329   6.277   8.298  0.1832  0.0007 -0.2577
  220loPI   C4A 3514   3.379   5.998   7.943 -0.1304 -0.1927 -0.1828
  220loPI   C5A 3515   3.114   5.879   7.604  0.0691  0.1138  0.1376
  220loPI   C6A 3516   2.987   5.947   7.175  0.1646  0.3896  0.0329
  220loPI   C1B 3517   3.069   6.171   9.102 -0.1214 -0.2260  0.0286
  220loPI   C2B 3518   3.009   6.145   8.670 -0.1885 -0.2328 -0.0955
  220loPI   C3B 3519   3.002   5.914   8.442 -0.0725 -0.0681 -0.0406
  220loPI   C4B 3520   3.153   5.605   8.139 -0.1385  0.0974 -0.1278
  221loPI    C1 3521  16.964  18.727   9.232  0.0948 -0.2292  0.1015
  221loPI    C2 3522  16.794  18.762   9.592  0.2302  0.0384  0.1417
  221loPI    C3 3523  17.059  19.035   9.469  0.1954 -0.0589 -0.1560
  221loPI   PO4 3524  16.878  18.431   9.204 -0.1551 -0.0727  0.2157
  221loPI   GL1 3525  17.068  18.053   9.066 -0.4209  0.1281 -0.3509
  221loPI   GL2 3526  17.167  17.850   9.140 -0.1783 -0.1236 -0.0712
  221loPI   C1A 3527  16.738  18.159   8.651  0.2604  0.2637  0.4085
  221loPI   C2A 3528  16.789  18.410   8.241  0.1349 -0.2833 -0.1722
  221loPI   C3A 3529  17.024  18.745   8.143 -0.0011 -0.2615  0.0218
  221loPI   C4A 3530  16.844  19.009   7.768  0.3164  0.0844 -0.0142
  221loPI   C5A 3531  16.976  19.504   7.667  0.0308  0.0992 -0.1790
  221loPI   C6A 3532  17.088  19.979   7.802 -0.2709  0.1187 -0.1357
  221loPI   C1B 3533  17.161  17.812   8.638  0.1379 -0.0656  0.0442
  221loPI   C2B 3534  17.105  18.087   8.254 -0.0200 -0.1194 -0.1029
  221loPI   C3B 3535  17.045  17.845   7.892 -0.0736 -0.4046  0.2670
  221loPI   C4B 3536  17.337  17.913   7.651 -0.1085  0.1292 -0.0063
  222loPI    C1 3537  16.833   4.445   9.863 -0.0713 -0.0157  0.0532
  222loPI    C2 3538  16.512   4.646   9.993 -0.0044  0.0583  0.1046
  222loPI    C3 3539  16.840   4.845   9.879 -0.0799 -0.0024 -0.2260
  222loPI   PO4 3540  16.672   4.291   9.652 -0.0368  0.0510  0.3632
  222loPI   GL1 3541  16.877   4.194   9.339  0.1105 -0.2699  0.2065
  222loPI   GL2 3542  16.696   4.508   9.144 -0.1212 -0.1531 -0.1051
  222loPI   C1A 3543  16.989   4.026   8.981  0.3801  0.2048  0.2617
  222loPI   C2A 3544  16.811   3.778   8.652 -0.2965  0.0502 -0.0545
  222loPI   C3A 3545  16.754   3.731   8.204  0.2770  0.0913  0.1294
  222loPI   C4A 3546  16.687   3.805   7.739  0.2146 -0.1503  0.0082
  222loPI   C5A 3547  16.529   3.792   7.325 -0.2642 -0.0769  0.1502
  222loPI   C6A 3548  16.298   3.756   7.025 -0.0544  0.1390 -0.1854
  222loPI   C1B 3549  16.770   4.417   8.693  0.0830  0.2907 -0.1801
  222loPI   C2B 3550  17.002   4.267   8.368  0.1293  0.3913  0.1065
  222loPI   C3B 3551  16.728   4.247   8.048  0.0709 -0.1200 -0.1890
  222loPI   C4B 3552  16.730   4.312   7.638 -0.0535  0.1041 -0.0172
  223loPI    C1 3553  14.898   1.075  10.150  0.2773  0.3294 -0.0028
  223loPI    C2 3554  15.185   1.030  10.425  0.2154 -0.5413 -0.0552
  223loPI    C3 3555  14.802   0.964  10.522  0.1347 -0.3290 -0.2228
  223loPI   PO4 3556  14.958   0.959   9.947 -0.1378  0.1775 -0.0306
  223loPI   GL1 3557  15.043   1.157   9.495  0.0384  0.1838  0.2588
  223loPI   GL2 3558  14.964   1.414   9.697 -0.1768 -0.2610 -0.2479
  223loPI   C1A 3559  15.182   1.084   9.073  0.0528 -0.0429  0.0312
  223loPI   C2A 3560  15.172   1.061   8.607  0.1996  0.2107  0.2885
  223loPI   C3A 3561  15.260   1.017   8.102 -0.0136 -0.1354 -0.1183
  223loPI   C4A 3562  15.303   0.785   7.802  0.2137  0.0789  0.0347
  223loPI   C5A 3563  15.387   0.410   7.612 -0.0652  0.2015 -0.1079
  223loPI   C6A 3564  15.390  -0.070   7.734 -0.1801 -0.0316  0.1515
  223loPI   C1B 3565  15.050   1.603   9.283  0.0230  0.1570  0.1660
  223loPI   C2B 3566  15.159   1.495   8.800 -0.1818 -0.0099 -0.0582
  223loPI   C3B 3567  15.186   1.497   8.338 -0.0197  0.0504 -0.3750
  223loPI   C4B 3568  15.295   1.459   7.867 -0.2338 -0.0727 -0.1644
  224loPI    C1 3569   8.392   2.001  10.067  0.0709 -0.0114  0.0149
  224loPI    C2 3570   8.209   2.113  10.405  0.3085  0.1693  0.0869
  224loPI    C3 3571   8.477   1.816  10.412  0.2774  0.1401  0.0474
  224loPI   PO4 3572   8.521   2.296   9.986  0.0595 -0.0079  0.0731
  224loPI   GL1 3573   8.484   2.546   9.768  0.1056 -0.1765 -0.0422
  224loPI   GL2 3574   8.680   2.802   9.920  0.1692 -0.1237  0.3788
  224loPI   C1A 3575   8.426   2.389   9.372  0.3386 -0.1135 -0.0339
  224loPI   C2A 3576   8.395   2.463   8.937 -0.1946  0.1067  0.3502
  224loPI   C3A 3577   8.414   2.592   8.520 -0.0880  0.0219  0.0336
  224loPI   C4A 3578   8.083   2.756   8.259  0.1383  0.1858 -0.2894
  224loPI   C5A 3579   7.816   3.060   8.026 -0.0103  0.0470  0.1733
  224loPI   C6A 3580   7.435   3.240   7.795 -0.0042  0.2890  0.0704
  224loPI   C1B 3581   8.735   2.913   9.471  0.5394 -0.1388  0.0449
  224loPI   C2B 3582   8.614   2.965   9.002 -0.3248  0.1045 -0.1133
  224loPI   C3B 3583   8.811   2.959   8.627  0.2355 -0.0375  0.1491
  224loPI   C4B 3584   8.806   2.831   8.283  0.1098  0.0287  0.0774
  225loPI    C1 3585  11.167   0.602  10.378 -0.2249 -0.0260  0.1629
  225loPI    C2 3586  11.317   0.382  10.676 -0.0990  0.0295  0.1410
  225loPI    C3 3587  10.992   0.607  10.737 -0.0816  0.0300  0.2326
  225loPI   PO4 3588  11.172   0.444  10.188 -0.0455  0.0479 -0.1034
  225loPI   GL1 3589  11.264   0.683   9.829 -0.1663 -0.0463 -0.0013
  225loPI   GL2 3590  11.442   0.890   9.905 -0.2508  0.5029 -0.1014
  225loPI   C1A 3591  11.011   0.551   9.402  0.0838  0.0558  0.0571
  225loPI   C2A 3592  10.930   0.638   8.998  0.2154  0.0405 -0.0453
  225loPI   C3A 3593  10.899   0.943   8.691  0.0376 -0.1233 -0.1736
  225loPI   C4A 3594  10.692   0.951   8.387 -0.0170 -0.1162 -0.0824
  225loPI   C5A 3595  10.371   0.898   8.026 -0.0741 -0.0708 -0.1134
  225loPI   C6A 3596  10.039   0.632   7.873  0.1080  0.1767 -0.0487
  225loPI   C1B 3597  11.375   1.031   9.438 -0.2019  0.3100  0.3012
  225loPI   C2B 3598  11.417   0.740   9.137 -0.1223 -0.1754 -0.0213
  225loPI   C3B 3599  11.372   0.657   8.790 -0.3971 -0.0721 -0.1623
  225loPI   C4B 3600  11.543   0.648   8.325  0.0758 -0.1366 -0.0099
  226loPI    C1 3601   0.732  16.780   9.635  0.2831  0.2453 -0.2132
  226loPI    C2 3602   0.736  16.938  10.002  0.1620 -0.0237 -0.0932
  226loPI    C3 3603   0.926  16.593   9.931 -0.0208 -0.0993 -0.2237
  226loPI   PO4 3604   0.815  16.937   9.505  0.2335  0.0691 -0.1405
  226loPI   GL1 3605   0.794  17.229   9.137 -0.0380 -0.2311  0.1705
  226loPI   GL2 3606   0.903  16.957   9.012  0.0824 -0.0820 -0.4079
  226loPI   C1A 3607   0.454  17.128   8.887 -0.2224  0.0873 -0.3362
  226loPI   C2A 3608   0.342  17.075   8.526 -0.0021  0.2462 -0.1807
  226loPI   C3A 3609   0.234  17.161   8.138  0.2240 -0.2784  0.1331
  226loPI   C4A 3610  -0.178  17.101   7.908  0.1573  0.2932  0.1049
  226loPI   C5A 3611  -0.315  17.319   7.455  0.0553  0.2231  0.4274
  226loPI   C6A 3612  -0.601  17.596   7.385 -0.5219 -0.3115 -0.1035
  226loPI   C1B 3613   0.717  16.746   8.711 -0.0556  0.2903  0.0987
  226loPI   C2B 3614   0.692  16.746   8.245  0.0778  0.0739 -0.0352
  226loPI   C3B 3615   0.732  16.538   7.848  0.3401  0.1573 -0.1160
  226loPI   C4B 3616   0.977  16.426   7.615 -0.0696  0.0927 -0.2348
  227loPI    C1 3617   2.561   5.327   9.990  0.0423 -0.0036 -0.0061
  227loPI    C2 3618   2.655   5.149  10.336  0.2013  0.0142 -0.0396
  227loPI    C3 3619   2.845   5.483  10.225  0.1316  0.0238 -0.1316
  227loPI   PO4 3620   2.554   5.151   9.841 -0.1513  0.3036 -0.1458
  227loPI   GL1 3621   2.827   5.212   9.570 -0.1333  0.2901  0.0566
  227loPI   GL2 3622   2.558   5.554   9.506  0.2313 -0.1811 -0.2895
  227loPI   C1A 3623   2.553   4.900   9.228 -0.1765  0.3354  0.0537
  227loPI   C2A 3624   2.425   5.002   8.813  0.0958 -0.3607 -0.0456
  227loPI   C3A 3625   2.463   4.961   8.421  0.0268 -0.1503  0.0234
  227loPI   C4A 3626   2.331   4.788   8.116 -0.0494  0.0679 -0.2295
  227loPI   C5A 3627   2.412   4.621   7.852 -0.3255  0.1712  0.0057
  227loPI   C6A 3628   2.088   4.337   7.624 -0.1058 -0.0335  0.1177
  227loPI   C1B 3629   2.702   5.431   9.154 -0.0134  0.2831  0.2116
  227loPI   C2B 3630   2.650   5.495   8.639  0.0033 -0.0175  0.0661
  227loPI   C3B 3631   2.761   5.276   8.215 -0.0242  0.0159 -0.1099
  227loPI   C4B 3632   2.671   5.113   7.898 -0.0184 -0.2302 -0.0216
  228loPI    C1 3633   7.421  16.007  10.600  0.3480 -0.1663 -0.2106
  228loPI    C2 3634   7.198  15.684  10.678  0.2433 -0.1035 -0.2460
  228loPI    C3 3635   7.165  16.010  10.908  0.2256 -0.0585 -0.3119
  228loPI   PO4 3636   7.508  15.945  10.359  0.3601  0.4179  0.1300
  228loPI   GL1 3637   7.552  15.687   9.944  0.0166 -0.0512  0.0237
  228loPI   GL2 3638   7.682  15.682   9.669  0.0390 -0.1982 -0.1762
  228loPI   C1A 3639   7.286  15.971   9.628  0.0791  0.1201 -0.0533
  228loPI   C2A 3640   7.252  16.205   9.335  0.2570 -0.3942 -0.0610
  228loPI   C3A 3641   7.458  16.318   8.962 -0.0141  0.3721  0.0783
  228loPI   C4A 3642   7.631  16.375   8.545  0.0563  0.3045  0.1829
  228loPI   C5A 3643   7.601  16.289   8.273 -0.1377  0.0643 -0.1087
  228loPI   C6A 3644   7.516  16.323   7.826  0.0419  0.2803 -0.3114
  228loPI   C1B 3645   7.660  15.910   9.235 -0.2562  0.0277  0.2973
  228loPI   C2B 3646   7.689  15.941   8.789 -0.0668 -0.1281  0.0400
  228loPI   C3B 3647   7.769  15.791   8.420  0.1380  0.1398 -0.2666
  228loPI   C4B 3648   7.870  15.552   8.068  0.1714  0.0581  0.1680
  229loPI    C1 3649  18.547  18.547   9.806  0.1827  0.1059  0.0475
  229loPI    C2 3650  18.362  18.899   9.757  0.0897  0.0716  0.1461
  229loPI    C3 3651  18.726  18.886   9.922  0.1371  0.1306  0.0469
  229loPI   PO4 3652  18.472  18.445   9.578  0.0832  0.3965 -0.1512
  229loPI   GL1 3653  18.530  18.362   9.177 -0.1795 -0.0488  0.0544
  229loPI   GL2 3654  18.850  18.322   9.238 -0.0356 -0.1477 -0.0040
  229loPI   C1A 3655  18.748  18.471   8.752 -0.2729 -0.0597 -0.1321
  229loPI   C2A 3656  18.801  18.704   8.340  0.1204 -0.0519 -0.0844
  229loPI   C3A 3657  18.776  18.650   7.944  0.0392 -0.2530  0.3107
  229loPI   C4A 3658  19.043  18.550   7.606 -0.0629 -0.0693 -0.3213
  229loPI   C5A 3659  19.025  18.349   7.160  0.0374 -0.3413  0.1505
  229loPI   C6A 3660  18.737  18.032   7.117 -0.1280  0.0774 -0.4119
  229loPI   C1B 3661  19.129  18.533   9.206  0.1177  0.2937  0.1749
  229loPI   C2B 3662  19.320  18.407   8.838 -0.0581 -0.0507  0.0076
  229loPI   C3B 3663  19.245  18.618   8.505 -0.2550  0.0508  0.2779
  229loPI   C4B 3664  19.247  18.706   8.070 -0.6415 -0.0210  0.2312
  230loPI    C1 3665  14.693   0.101   9.795 -0.1269 -0.1503 -0.0235
  230loPI    C2 3666  14.555   0.298  10.114  0.2133 -0.0381  0.0581
  230loPI    C3 3667  14.746   0.496   9.824  0.0039 -0.1567 -0.1639
  230loPI   PO4 3668  14.423   0.051   9.622  0.0231 -0.0393 -0.1207
  230loPI   GL1 3669  14.238  -0.072   9.178  0.1901 -0.0739 -0.1872
  230loPI   GL2 3670  14.478   0.059   8.913  0.2323  0.2343  0.0824
  230loPI   C1A 3671  13.903  -0.186   8.916  0.4510 -0.1632 -0.1799
  230loPI   C2A 3672  13.794  -0.392   8.501  0.0891  0.1176 -0.1303
  230loPI   C3A 3673  13.459  -0.598   8.204  0.3233 -0.0151  0.1993
  230loPI   C4A 3674  13.442  -0.460   7.769 -0.0103 -0.1730  0.1732
  230loPI   C5A 3675  13.420  -0.250   7.383 -0.3679  0.0446  0.2939
  230loPI   C6A 3676  13.443   0.065   7.109  0.2214  0.1103  0.2464
  230loPI   C1B 3677  14.345   0.340   8.551 -0.0813 -0.1621 -0.2233
  230loPI   C2B 3678  14.358   0.444   8.160  0.0414  0.1101  0.0575
  230loPI   C3B 3679  14.206   0.800   7.860 -0.0909 -0.0635 -0.1151
  230loPI   C4B 3680  14.420   1.164   7.658  0.1033 -0.0921  0.0349
  231loPI    C1 3681  12.933   8.108   9.963  0.2349 -0.0965 -0.2389
  231loPI    C2 3682  12.936   8.378  10.257  0.2981 -0.1609 -0.1801
  231loPI    C3 3683  12.627   8.126  10.220  0.3015 -0.1689 -0.1539
  231loPI   PO4 3684  13.183   8.301   9.754 -0.0652  0.1487  0.1463
  231loPI   GL1 3685  13.129   8.439   9.291  0.0030  0.2377  0.2839
  231loPI   GL2 3686  13.325   8.220   9.321 -0.2169  0.0792  0.0053
  231loPI   C1A 3687  13.430   8.570   8.997  0.2352  0.0439 -0.0027
  231loPI   C2A 3688  13.612   8.834   8.749  0.2991  0.1943 -0.1690
  231loPI   C3A 3689  13.662   8.957   8.323 -0.4036 -0.1235  0.0235
  231loPI   C4A 3690  13.912   8.816   8.032 -0.1324 -0.0601  0.2415
  231loPI   C5A 3691  13.687   8.552   7.643 -0.1528  0.0812 -0.0882
  231loPI   C6A 3692  13.389   8.334   7.831  0.2252 -0.2359 -0.3196
  231loPI   C1B 3693  13.487   8.092   9.006 -0.0410 -0.1223  0.1188
  231loPI   C2B 3694  13.645   8.232   8.621 -0.0792  0.1326  0.0130
  231loPI   C3B 3695  13.353   8.480   8.383 -0.0442  0.1653  0.1515
  231loPI   C4B 3696  13.329   8.773   7.977  0.1718 -0.1686 -0.2190
  232loPI    C1 3697   0.915   5.355  10.173  0.0179  0.0666 -0.1660
  232loPI    C2 3698   1.062   5.046  10.380 -0.1725  0.2514  0.2586
  232loPI    C3 3699   1.251   5.398  10.386  0.1741  0.0956 -0.4138
  232loPI   PO4 3700   0.899   5.333   9.901 -0.0572  0.0484  0.2148
  232loPI   GL1 3701   1.110   5.340   9.557 -0.0886 -0.0756  0.2908
  232loPI   GL2 3702   0.814   5.147   9.414 -0.4537  0.0257 -0.0046
  232loPI   C1A 3703   1.354   5.242   9.199 -0.3603  0.5124 -0.0699
  232loPI   C2A 3704   1.659   5.393   8.882  0.1202 -0.2302 -0.0706
  232loPI   C3A 3705   1.641   5.505   8.410 -0.0090 -0.1662 -0.0190
  232loPI   C4A 3706   1.409   5.737   8.123  0.0009  0.0112  0.3075
  232loPI   C5A 3707   1.391   6.132   7.883 -0.1983 -0.2149 -0.0802
  232loPI   C6A 3708   1.019   6.386   7.783  0.1093  0.0273  0.0192
  232loPI   C1B 3709   0.898   5.002   8.932 -0.0492  0.0572  0.2886
  232loPI   C2B 3710   0.758   5.106   8.465  0.1808 -0.2218  0.0281
  232loPI   C3B 3711   0.893   5.155   8.006 -0.3251 -0.3222  0.1343
  232loPI   C4B 3712   1.055   5.531   7.755  0.4143 -0.2670  0.1023
  233loPI    C1 3713  14.588  17.412  10.069  0.0968 -0.1420  0.0360
  233loPI    C2 3714  14.947  17.457  10.240  0.1385  0.0548 -0.0997
  233loPI    C3 3715  14.711  17.776  10.181 -0.0320 -0.0645 -0.0699
  233loPI   PO4 3716  14.575  17.315   9.870 -0.0916 -0.3535 -0.3782
  233loPI   GL1 3717  14.558  16.948   9.650  0.1623 -0.0618  0.0472
  233loPI   GL2 3718  14.753  16.759   9.648 -0.0014  0.0896 -0.0640
  233loPI   C1A 3719  14.392  17.009   9.208  0.1202  0.0040 -0.0124
  233loPI   C2A 3720  14.365  17.031   8.733  0.2944  0.4387 -0.1243
  233loPI   C3A 3721  14.256  16.888   8.250 -0.2554  0.2156 -0.3101
  233loPI   C4A 3722  14.333  16.860   7.717 -0.0386  0.2597  0.0223
  233loPI   C5A 3723  14.725  16.677   7.600 -0.0426 -0.1020  0.1746
  233loPI   C6A 3724  14.800  16.517   7.183  0.5347 -0.1531  0.3671
  233loPI   C1B 3725  14.637  16.515   9.204  0.0921 -0.0955 -0.1428
  233loPI   C2B 3726  14.450  16.458   8.861 -0.1320  0.4344  0.2851
  233loPI   C3B 3727  14.295  16.346   8.508  0.1613 -0.0229  0.5384
  233loPI   C4B 3728  14.073  16.448   8.116 -0.0877  0.1117 -0.0035
  234loPI    C1 3729   7.956  11.333   9.920 -0.1449  0.0652 -0.2097
  234loPI    C2 3730   7.805  11.504  10.248 -0.0302  0.1672 -0.2090
  234loPI    C3 3731   8.139  11.285  10.272 -0.1065  0.0471 -0.2321
  234loPI   PO4 3732   7.865  11.393   9.713 -0.0132  0.1268 -0.1790
  234loPI   GL1 3733   8.001  11.642   9.362 -0.1319  0.1778 -0.1313
  234loPI   GL2 3734   7.753  11.921   9.352 -0.1662  0.1299  0.1516
  234loPI   C1A 3735   8.273  11.616   9.070 -0.2575 -0.0229 -0.0086
  234loPI   C2A 3736   8.376  11.814   8.648 -0.1273 -0.3579 -0.2401
  234loPI   C3A 3737   8.414  11.788   8.219  0.1020  0.1189 -0.1606
  234loPI   C4A 3738   8.299  11.814   7.828  0.0896  0.1862  0.4289
  234loPI   C5A 3739   8.262  12.028   7.393 -0.3434  0.1262  0.4021
  234loPI   C6A 3740   8.322  12.165   7.035 -0.0668 -0.1881 -0.0066
  234loPI   C1B 3741   7.684  12.131   8.891  0.5376  0.0529 -0.1264
  234loPI   C2B 3742   7.582  12.318   8.591 -0.1293 -0.1616  0.1918
  234loPI   C3B 3743   7.517  12.123   8.176  0.1652 -0.2977 -0.0207
  234loPI   C4B 3744   7.473  12.091   7.772  0.0076 -0.3090 -0.0514
  235loPI    C1 3745  18.008   0.901   9.830 -0.1071  0.1534 -0.1181
  235loPI    C2 3746  18.041   0.574  10.058 -0.0254  0.1326 -0.1593
  235loPI    C3 3747  18.068   0.937  10.224 -0.2311  0.1205 -0.0958
  235loPI   PO4 3748  17.883   0.870   9.704  0.1130 -0.6022  0.2217
  235loPI   GL1 3749  17.850   0.791   9.301 -0.1459  0.2183  0.0532
  235loPI   GL2 3750  18.112   0.672   9.219  0.1085 -0.0396 -0.3103
  235loPI   C1A 3751  17.725   0.674   8.856  0.0240  0.1180 -0.0671
  235loPI   C2A 3752  17.767   0.658   8.462 -0.0366 -0.0300 -0.0316
  235loPI   C3A 3753  17.763   0.828   8.152 -0.2148  0.0035  0.0354
  235loPI   C4A 3754  17.766   0.955   7.805  0.3668  0.1446  0.2528
  235loPI   C5A 3755  17.657   1.011   7.380  0.0014 -0.1365  0.1629
  235loPI   C6A 3756  17.614   1.067   6.954  0.1323 -0.1940  0.0988
  235loPI   C1B 3757  18.196   0.648   8.761 -0.0223  0.0208  0.0269
  235loPI   C2B 3758  18.352   0.675   8.352 -0.0876  0.3191  0.0215
  235loPI   C3B 3759  18.495   0.530   7.938  0.1000  0.2578  0.2130
  235loPI   C4B 3760  18.391   0.213   7.550  0.1996  0.2473  0.3011
  236loPI    C1 3761  15.359   4.645   9.832  0.2083 -0.2167  0.0541
  236loPI    C2 3762  15.418   5.031   9.918 -0.0842 -0.1754  0.0789
  236loPI    C3 3763  15.479   4.752  10.198  0.0009 -0.1363  0.0998
  236loPI   PO4 3764  15.239   4.602   9.728  0.3751  0.3016 -0.2088
  236loPI   GL1 3765  15.069   4.433   9.258 -0.3878  0.1357 -0.1018
  236loPI   GL2 3766  15.386   4.357   9.257  0.0322 -0.0388 -0.2338
  236loPI   C1A 3767  14.975   4.037   8.958 -0.1118  0.1507  0.4642
  236loPI   C2A 3768  15.054   3.880   8.568 -0.2057  0.1488 -0.0939
  236loPI   C3A 3769  14.977   3.687   8.164 -0.0357 -0.2480  0.0775
  236loPI   C4A 3770  15.195   3.438   7.810 -0.0776  0.0136 -0.1689
  236loPI   C5A 3771  15.327   3.394   7.434 -0.0594  0.0049 -0.2670
  236loPI   C6A 3772  15.381   3.718   7.122  0.3701  0.0982 -0.1620
  236loPI   C1B 3773  15.281   4.397   8.781 -0.0206  0.0009 -0.1070
  236loPI   C2B 3774  15.370   4.626   8.359  0.2465 -0.1021 -0.1309
  236loPI   C3B 3775  15.352   4.603   7.911 -0.1780  0.0277  0.0453
  236loPI   C4B 3776  15.502   4.437   7.602 -0.0231 -0.1244 -0.2214
  237loPI    C1 3777  15.179   9.455   9.901  0.1100  0.0207  0.3516
  237loPI    C2 3778  15.226   9.852   9.924 -0.0765  0.0666  0.0095
  237loPI    C3 3779  15.040   9.655  10.218 -0.0613  0.2443  0.1395
  237loPI   PO4 3780  15.146   9.451   9.697 -0.2597  0.1064 -0.1431
  237loPI   GL1 3781  15.207   9.452   9.342  0.0509  0.1715  0.0762
  237loPI   GL2 3782  15.418   9.184   9.275  0.2654  0.0016 -0.1487
  237loPI   C1A 3783  15.407   9.690   8.958  0.0826 -0.1365  0.2075
  237loPI   C2A 3784  15.387   9.781   8.546 -0.1488 -0.0032 -0.0212
  237loPI   C3A 3785  15.296   9.811   8.100 -0.1438  0.0282 -0.0233
  237loPI   C4A 3786  15.359   9.943   7.623  0.0231  0.0027 -0.0990
  237loPI   C5A 3787  15.370   9.848   7.271 -0.2013  0.2217  0.2159
  237loPI   C6A 3788  15.129   9.585   6.880  0.1982 -0.2691 -0.1626
  237loPI   C1B 3789  15.461   9.059   8.966  0.0589 -0.1280 -0.0253
  237loPI   C2B 3790  15.517   9.096   8.720  0.3011 -0.5222 -0.1372
  237loPI   C3B 3791  15.626   9.309   8.284  0.2580  0.4300 -0.0815
  237loPI   C4B 3792  15.405   9.326   7.866  0.0062 -0.0528 -0.2683
  238loPI    C1 3793   2.098  18.439  10.183  0.0169 -0.1663 -0.1500
  238loPI    C2 3794   1.963  18.815  10.168  0.0312 -0.1492  0.1038
  238loPI    C3 3795   1.705  18.512  10.204  0.0330 -0.1483  0.1249
  238loPI   PO4 3796   2.317  18.413  10.011  0.0969 -0.0854  0.1378
  238loPI   GL1 3797   2.354  18.343   9.569 -0.0038 -0.0698 -0.0029
  238loPI   GL2 3798   2.056  18.165   9.394  0.1016 -0.2206 -0.4167
  238loPI   C1A 3799   2.427  18.399   9.132  0.1641  0.2481  0.2913
  238loPI   C2A 3800   2.347  18.252   8.678  0.1619  0.1334  0.1872
  238loPI   C3A 3801   2.252  18.378   8.259 -0.4847 -0.2113  0.2181
  238loPI   C4A 3802   2.516  18.522   7.886  0.0023  0.0445 -0.2630
  238loPI   C5A 3803   2.823  18.653   8.119  0.2146 -0.1845  0.2553
  238loPI   C6A 3804   2.930  18.351   8.449 -0.1922 -0.0924  0.2181
  238loPI   C1B 3805   1.885  18.440   9.097 -0.0922  0.0216  0.1534
  238loPI   C2B 3806   1.976  18.565   8.602  0.4167 -0.0002 -0.1315
  238loPI   C3B 3807   1.777  18.526   8.212 -0.1975  0.3148  0.0098
  238loPI   C4B 3808   1.888  18.481   7.789 -0.3052 -0.3681 -0.0115
  239loPI    C1 3809  16.979   6.513   9.537 -0.2002 -0.1897  0.1471
  239loPI    C2 3810  17.062   6.345   9.890  0.0800 -0.3591  0.0034
  239loPI    C3 3811  17.356   6.506   9.671 -0.1717  0.2773  0.1115
  239loPI   PO4 3812  16.751   6.756   9.655 -0.2591 -0.2469 -0.0026
  239loPI   GL1 3813  16.395   6.884   9.366  0.2228 -0.2083 -0.0055
  239loPI   GL2 3814  16.376   7.184   9.250 -0.1203  0.0258 -0.1002
  239loPI   C1A 3815  16.565   6.738   8.901 -0.0584  0.0879  0.0575
  239loPI   C2A 3816  16.538   6.838   8.423  0.1302  0.2158 -0.2135
  239loPI   C3A 3817  16.544   6.676   7.952 -0.2631  0.3802  0.1538
  239loPI   C4A 3818  16.175   6.798   7.642 -0.0132  0.1078 -0.1740
  239loPI   C5A 3819  15.867   7.101   7.729 -0.0118  0.0932 -0.2325
  239loPI   C6A 3820  15.581   6.793   7.504 -0.0704 -0.1565 -0.0903
  239loPI   C1B 3821  16.662   7.234   8.939 -0.1084 -0.0280 -0.0872
  239loPI   C2B 3822  16.708   7.249   8.543 -0.0896 -0.0487 -0.0260
  239loPI   C3B 3823  16.521   7.559   8.274  0.0048 -0.0439 -0.2399
  239loPI   C4B 3824  16.637   7.748   7.855  0.2692 -0.0846 -0.0723
  240loPI    C1 3825   3.169  10.148   9.804  0.0308 -0.0941 -0.1696
  240loPI    C2 3826   3.052   9.776   9.715 -0.2940 -0.0342 -0.0078
  240loPI    C3 3827   3.030   9.908  10.092 -0.2061  0.1587 -0.0687
  240loPI   PO4 3828   3.444  10.227   9.717  0.2125 -0.2164  0.0146
  240loPI   GL1 3829   3.638  10.108   9.421 -0.2097  0.0048 -0.2763
  240loPI   GL2 3830   3.832   9.946   9.371 -0.3134  0.0315  0.2423
  240loPI   C1A 3831   3.519  10.291   9.113  0.1388 -0.1269  0.0626
  240loPI   C2A 3832   3.625  10.162   8.579 -0.0390  0.2192 -0.4840
  240loPI   C3A 3833   3.263   9.994   8.284 -0.1453 -0.2566 -0.1879
  240loPI   C4A 3834   3.264   9.821   7.839 -0.0163  0.1794 -0.0925
  240loPI   C5A 3835   3.166   9.890   7.417  0.3623 -0.0297  0.2793
  240loPI   C6A 3836   3.095   9.763   6.980 -0.1475  0.1874 -0.0784
  240loPI   C1B 3837   4.037  10.161   9.066 -0.0946  0.2219 -0.0001
  240loPI   C2B 3838   4.138  10.167   8.561 -0.3110 -0.0176  0.2481
  240loPI   C3B 3839   4.293  10.333   8.077  0.3574 -0.2280 -0.2595
  240loPI   C4B 3840   4.191  10.028   7.766  0.0353 -0.2380 -0.1518
  241loPI    C1 3841  12.431   7.065  10.076  0.1452  0.0233  0.0371
  241loPI    C2 3842  12.243   7.416  10.120 -0.2400 -0.1650 -0.0586
  241loPI    C3 3843  12.287   7.172  10.434 -0.0090 -0.0531 -0.0013
  241loPI   PO4 3844  12.522   7.164   9.807 -0.1594  0.1495 -0.2671
  241loPI   GL1 3845  12.627   7.493   9.468  0.1377 -0.2118  0.1993
  241loPI   GL2 3846  12.819   7.249   9.243 -0.1192  0.1108  0.1999
  241loPI   C1A 3847  12.469   7.493   9.015  0.2580  0.1364  0.0414
  241loPI   C2A 3848  12.118   7.728   8.776 -0.0497  0.1225  0.0841
  241loPI   C3A 3849  11.727   7.791   8.659 -0.2721  0.3833  0.3836
  241loPI   C4A 3850  11.588   8.000   8.473 -0.2745  0.0944 -0.2503
  241loPI   C5A 3851  11.467   8.358   8.174 -0.2174 -0.5314 -0.1976
  241loPI   C6A 3852  11.416   8.621   7.862  0.1483  0.0647  0.1390
  241loPI   C1B 3853  12.659   6.994   8.891  0.0612  0.0356  0.0045
  241loPI   C2B 3854  12.586   6.810   8.510 -0.1944  0.0443  0.1510
  241loPI   C3B 3855  12.969   6.720   8.188  0.3961  0.2214  0.4870
  241loPI   C4B 3856  13.279   6.720   7.793  0.3460  0.0687  0.0102
  242loPI    C1 3857  13.654   8.439  10.018 -0.1289 -0.1801  0.0147
  242loPI    C2 3858  13.415   8.151  10.158 -0.1726 -0.0304  0.2542
  242loPI    C3 3859  13.532   8.447  10.399 -0.0840  0.1237  0.0246
  242loPI   PO4 3860  13.704   8.401   9.676  0.3410 -0.0697 -0.4284
  242loPI   GL1 3861  13.912   8.080   9.370 -0.0651 -0.0336 -0.3133
  242loPI   GL2 3862  14.136   8.267   9.339 -0.1303 -0.0497 -0.0100
  242loPI   C1A 3863  13.956   8.000   8.922 -0.1984 -0.1896 -0.2812
  242loPI   C2A 3864  13.869   7.797   8.412  0.2953  0.0556 -0.0660
  242loPI   C3A 3865  13.921   7.847   7.993  0.0148 -0.3266 -0.3343
  242loPI   C4A 3866  13.736   8.006   7.689 -0.1777  0.2015  0.0206
  242loPI   C5A 3867  13.557   8.001   7.341  0.0857 -0.0142  0.1248
  242loPI   C6A 3868  13.218   7.973   7.138  0.2196 -0.0285  0.3409
  242loPI   C1B 3869  13.949   8.519   8.935  0.0386 -0.2124 -0.0058
  242loPI   C2B 3870  14.158   8.371   8.589 -0.0350 -0.1384  0.2056
  242loPI   C3B 3871  14.337   8.098   8.253  0.0503  0.1007  0.1973
  242loPI   C4B 3872  14.417   7.932   7.843  0.0419  0.3183  0.2449
  243loPI    C1 3873  17.024   8.540  10.205 -0.1045  0.0833  0.1364
  243loPI    C2 3874  17.356   8.569  10.426 -0.0155  0.2780 -0.0200
  243loPI    C3 3875  17.163   8.219  10.400  0.2428  0.1328 -0.0223
  243loPI   PO4 3876  17.078   8.661  10.021 -0.1177  0.1244  0.1427
  243loPI   GL1 3877  17.188   8.652   9.664  0.0664  0.0289  0.2214
  243loPI   GL2 3878  17.125   9.003   9.370  0.1512  0.1249 -0.1087
  243loPI   C1A 3879  17.434   8.723   9.157  0.0408  0.0716 -0.2892
  243loPI   C2A 3880  17.334   8.339   8.823  0.0095 -0.1081  0.0643
  243loPI   C3A 3881  17.347   8.014   8.475  0.0385 -0.0996  0.0034
  243loPI   C4A 3882  17.377   8.070   8.076  0.3372  0.0450  0.0668
  243loPI   C5A 3883  17.576   8.177   7.668 -0.3642  0.2522  0.2681
  243loPI   C6A 3884  17.968   7.967   7.359 -0.0648 -0.0742 -0.2242
  243loPI   C1B 3885  17.109   9.159   9.006  0.0183 -0.2763 -0.2208
  243loPI   C2B 3886  16.809   9.315   8.896  0.1551 -0.1380 -0.1716
  243loPI   C3B 3887  16.535   9.401   8.555 -0.3015  0.2106  0.2307
  243loPI   C4B 3888  16.453   9.276   8.147  0.0239 -0.0313 -0.2301
  244loPI    C1 3889   2.076   6.856  10.331  0.0122 -0.1352  0.0189
  244loPI    C2 3890   2.202   6.485  10.406  0.1542 -0.0954 -0.0197
  244loPI    C3 3891   2.340   6.791  10.624 -0.0013 -0.0710  0.0455
  244loPI   PO4 3892   1.802   6.919  10.267 -0.2890  0.0916  0.1798
  244loPI   GL1 3893   1.730   6.976   9.809  0.0691 -0.2427  0.3179
  244loPI   GL2 3894   1.631   6.689   9.668  0.1496  0.0093 -0.3755
  244loPI   C1A 3895   1.682   7.233   9.502  0.3751 -0.0749  0.2209
  244loPI   C2A 3896   1.595   7.443   9.041  0.1572 -0.4245  0.5312
  244loPI   C3A 3897   1.704   7.337   8.643  0.1106 -0.0864  0.2699
  244loPI   C4A 3898   1.617   7.223   8.169  0.1527 -0.6046 -0.0738
  244loPI   C5A 3899   1.535   7.128   7.733 -0.0536  0.1881  0.3095
  244loPI   C6A 3900   1.862   7.108   7.479 -0.2492 -0.0702 -0.1501
  244loPI   C1B 3901   1.440   6.444   9.578  0.1591  0.2722 -0.0549
  244loPI   C2B 3902   1.403   6.031   9.473  0.6302 -0.2142  0.4230
  244loPI   C3B 3903   1.333   5.701   9.177 -0.0454 -0.3019  0.3108
  244loPI   C4B 3904   0.949   5.476   8.950 -0.1053  0.1419 -0.0882
  245loPI    C1 3905   0.534  12.757  10.112 -0.0857 -0.0644 -0.2696
  245loPI    C2 3906   0.231  13.005  10.194 -0.2551 -0.2707 -0.2618
  245loPI    C3 3907   0.595  13.077  10.343 -0.3523 -0.1460 -0.0808
  245loPI   PO4 3908   0.514  12.701   9.929  0.1539  0.0454  0.1090
  245loPI   GL1 3909   0.335  12.947   9.532 -0.2335  0.0706 -0.1249
  245loPI   GL2 3910   0.523  12.636   9.469  0.1521  0.0093  0.0244
  245loPI   C1A 3911   0.364  12.829   9.072 -0.3623 -0.1734 -0.0256
  245loPI   C2A 3912   0.389  12.748   8.707 -0.2805  0.3146  0.1774
  245loPI   C3A 3913   0.271  12.738   8.278 -0.2313  0.1982 -0.3156
  245loPI   C4A 3914   0.468  12.700   7.846  0.3641 -0.3724 -0.0574
  245loPI   C5A 3915   0.206  12.724   7.493  0.0358  0.0395 -0.0326
  245loPI   C6A 3916  -0.258  12.771   7.296  0.1340 -0.1309  0.0359
  245loPI   C1B 3917   0.808  12.682   9.121 -0.0340  0.0763  0.0921
  245loPI   C2B 3918   0.890  12.605   8.694  0.0167  0.0380  0.0065
  245loPI   C3B 3919   0.848  12.576   8.323 -0.0139  0.0848  0.0297
  245loPI   C4B 3920   1.104  12.516   7.932 -0.1002  0.2515  0.2299
  246loPI    C1 3921  15.130  17.633   9.840  0.0173  0.2324 -0.1097
  246loPI    C2 3922  15.278  17.787  10.178 -0.3195 -0.1312  0.2131
  246loPI    C3 3923  15.443  17.459  10.019 -0.3663 -0.1527  0.2085
  246loPI   PO4 3924  15.087  17.792   9.669 -0.2376 -0.1718  0.3239
  246loPI   GL1 3925  15.198  17.940   9.297  0.1568  0.0289  0.1791
  246loPI   GL2 3926  14.851  17.796   9.255 -0.0290  0.1470 -0.0760
  246loPI   C1A 3927  15.186  18.043   8.826  0.1354  0.2725  0.2808
  246loPI   C2A 3928  15.392  17.714   8.482 -0.1207 -0.2003  0.0272
  246loPI   C3A 3929  15.218  17.739   8.133  0.0135 -0.2497 -0.0901
  246loPI   C4A 3930  15.275  18.124   7.833  0.0110  0.4419 -0.2177
  246loPI   C5A 3931  15.377  18.446   7.706 -0.2378 -0.0049 -0.1970
  246loPI   C6A 3932  15.249  18.667   7.371 -0.2117  0.0583  0.0155
  246loPI   C1B 3933  14.706  17.937   8.846  0.1592 -0.3808  0.2074
  246loPI   C2B 3934  14.670  18.337   8.467  0.1430  0.1575  0.3577
  246loPI   C3B 3935  14.765  18.193   8.002  0.0815 -0.2458 -0.0301
  246loPI   C4B 3936  14.740  17.749   7.855  0.4007 -0.0871 -0.5029
  247loPI    C1 3937  10.515   6.233  10.086 -0.2846  0.0829  0.2442
  247loPI    C2 3938  10.790   6.318  10.365 -0.1152  0.0112  0.1014
  247loPI    C3 3939  10.452   6.128  10.467  0.0494 -0.2223  0.2211
  247loPI   PO4 3940  10.656   6.466   9.856  0.2480 -0.3860 -0.1670
  247loPI   GL1 3941  10.780   6.386   9.434  0.0028 -0.2727 -0.2088
  247loPI   GL2 3942  10.455   6.395   9.353 -0.0901  0.0313 -0.1894
  247loPI   C1A 3943  11.026   6.381   9.107  0.5839  0.0492 -0.1465
  247loPI   C2A 3944  11.053   6.064   8.822 -0.2417 -0.1133  0.1267
  247loPI   C3A 3945  11.273   6.013   8.420  0.4238  0.5313 -0.2932
  247loPI   C4A 3946  11.604   6.072   8.068 -0.1852 -0.1471  0.0402
  247loPI   C5A 3947  11.872   6.273   7.672  0.2409 -0.3456 -0.1062
  247loPI   C6A 3948  12.176   6.522   7.411 -0.0681 -0.0842 -0.1286
  247loPI   C1B 3949  10.538   6.120   8.859  0.0563 -0.1972  0.0321
  247loPI   C2B 3950  10.715   6.196   8.466  0.3087  0.2073  0.2219
  247loPI   C3B 3951  10.934   6.219   8.099  0.2076  0.0216 -0.4275
  247loPI   C4B 3952  10.950   6.241   7.582  0.0731  0.0847 -0.1167
  248loPI    C1 3953   0.741  18.531   9.839  0.0364  0.1992 -0.0747
  248loPI    C2 3954   0.682  18.630  10.222  0.1969 -0.0216  0.0091
  248loPI    C3 3955   0.716  18.246  10.118 -0.2174  0.0143 -0.2820
  248loPI   PO4 3956   0.550  18.674   9.654  0.2366  0.0304  0.1053
  248loPI   GL1 3957   0.550  18.675   9.258  0.1205  0.0069 -0.0321
  248loPI   GL2 3958   0.724  18.478   9.069 -0.0833  0.0701 -0.1338
  248loPI   C1A 3959   0.528  18.843   8.765 -0.0665  0.2110 -0.2667
  248loPI   C2A 3960   0.643  18.909   8.321 -0.0748  0.0515  0.2633
  248loPI   C3A 3961   0.598  19.046   7.904  0.1573 -0.1841  0.1613
  248loPI   C4A 3962   0.174  19.017   7.685  0.0056 -0.2417  0.0314
  248loPI   C5A 3963  -0.282  18.968   7.564  0.1705  0.1077  0.1722
  248loPI   C6A 3964  -0.713  18.750   7.662 -0.1625 -0.0472 -0.1196
  248loPI   C1B 3965   0.748  18.439   8.646 -0.1938  0.2946 -0.0480
  248loPI   C2B 3966   0.815  18.376   8.167 -0.0477  0.0686  0.0007
  248loPI   C3B 3967   0.946  18.567   7.877 -0.1478 -0.1032  0.1737
  248loPI   C4B 3968   1.171  18.859   7.630  0.0686  0.3026  0.0090
  249loPI    C1 3969   1.180  14.057   9.736  0.0043 -0.3282  0.0785
  249loPI    C2 3970   0.832  13.870   9.798 -0.1555 -0.0635 -0.0038
  249loPI    C3 3971   1.134  13.819  10.055 -0.2097 -0.3968 -0.0015
  249loPI   PO4 3972   1.245  13.956   9.462 -0.1736 -0.2660 -0.0375
  249loPI   GL1 3973   1.603  14.235   9.375 -0.0957  0.2797 -0.1723
  249loPI   GL2 3974   1.525  14.092   9.060 -0.1350 -0.0795  0.1910
  249loPI   C1A 3975   1.856  14.412   9.050 -0.1012 -0.0313 -0.1932
  249loPI   C2A 3976   2.123  14.523   8.730 -0.2270 -0.2567 -0.0344
  249loPI   C3A 3977   2.230  14.540   8.242  0.1587 -0.2495 -0.3223
  249loPI   C4A 3978   2.086  14.355   7.872 -0.0022  0.0526  0.2296
  249loPI   C5A 3979   1.750  14.281   7.641 -0.0706  0.0568  0.0891
  249loPI   C6A 3980   1.781  14.463   7.290  0.1012 -0.0860  0.1913
  249loPI   C1B 3981   1.864  14.084   8.720  0.1842  0.2103  0.0176
  249loPI   C2B 3982   2.072  14.030   8.322 -0.3355 -0.3679  0.2513
  249loPI   C3B 3983   2.153  13.843   7.883  0.0080  0.0723  0.3065
  249loPI   C4B 3984   2.190  13.507   7.497  0.4712 -0.1278  0.0550
  250loPI    C1 3985   2.593   7.246  10.281  0.1372 -0.0115 -0.0924
  250loPI    C2 3986   2.842   7.559  10.261  0.2014 -0.0462  0.1349
  250loPI    C3 3987   2.471   7.607  10.403  0.0568  0.0161 -0.2520
  250loPI   PO4 3988   2.621   7.177   9.930 -0.0395  0.1657 -0.0152
  250loPI   GL1 3989   2.334   7.340   9.546  0.0134 -0.0506  0.0406
  250loPI   GL2 3990   2.527   7.261   9.290  0.2632 -0.1507 -0.1462
  250loPI   C1A 3991   2.123   7.490   9.251  0.1123 -0.1839  0.4446
  250loPI   C2A 3992   2.223   7.522   8.803  0.3278  0.1112 -0.0766
  250loPI   C3A 3993   2.127   7.364   8.298  0.1781  0.0976  0.0572
  250loPI   C4A 3994   2.034   7.130   7.975 -0.0514 -0.1162  0.2100
  250loPI   C5A 3995   2.176   6.743   7.800 -0.0654  0.0954 -0.4316
  250loPI   C6A 3996   1.805   6.392   7.850  0.3122  0.3055 -0.1234
  250loPI   C1B 3997   2.365   7.037   8.976  0.2557  0.0265 -0.1360
  250loPI   C2B 3998   2.223   6.924   8.526  0.2810  0.0659 -0.1221
  250loPI   C3B 3999   1.850   6.854   8.365 -0.0814  0.1585  0.2248
  250loPI   C4B 4000   1.719   6.390   8.361 -0.3774  0.0677 -0.0687
  251loPI    C1 4001  11.768   3.306  10.172 -0.1308  0.1135 -0.3092
  251loPI    C2 4002  12.165   3.346  10.144 -0.0936 -0.0909 -0.1091
  251loPI    C3 4003  11.971   3.502  10.456 -0.2037  0.2076 -0.3217
  251loPI   PO4 4004  11.736   3.065  10.038 -0.1295 -0.0283 -0.0909
  251loPI   GL1 4005  12.022   2.790   9.806 -0.1929  0.3084  0.1905
  251loPI   GL2 4006  12.010   2.578   9.833 -0.2535  0.0636 -0.0215
  251loPI   C1A 4007  12.264   2.896   9.413 -0.0473  0.0224  0.0447
  251loPI   C2A 4008  12.258   2.882   8.996  0.2446 -0.1210 -0.1295
  251loPI   C3A 4009  12.250   2.874   8.596 -0.0997  0.3914  0.0463
  251loPI   C4A 4010  11.912   2.949   8.409  0.3124 -0.1577  0.1433
  251loPI   C5A 4011  11.638   2.682   8.231  0.1647 -0.5889 -0.1028
  251loPI   C6A 4012  11.405   2.421   7.982 -0.3611 -0.2436  0.4236
  251loPI   C1B 4013  12.082   2.431   9.443  0.1276  0.0383 -0.0936
  251loPI   C2B 4014  12.113   2.406   9.069 -0.0076  0.2416 -0.2662
  251loPI   C3B 4015  12.061   2.389   8.643  0.3234  0.3078 -0.0656
  251loPI   C4B 4016  12.208   2.479   8.285 -0.3184  0.0722  0.0646
  252loPI    C1 4017  11.518   3.735  10.440  0.2829 -0.0065  0.0623
  252loPI    C2 4018  11.772   3.959  10.654 -0.0082  0.3016  0.0946
  252loPI    C3 4019  11.377   3.998  10.707 -0.0725  0.0380 -0.1628
  252loPI   PO4 4020  11.645   3.820  10.150  0.8157  0.0682  0.1711
  252loPI   GL1 4021  11.507   3.968   9.774  0.0467 -0.2961 -0.1112
  252loPI   GL2 4022  11.486   3.581   9.708 -0.2703 -0.3011 -0.0493
  252loPI   C1A 4023  11.777   3.876   9.405  0.1848 -0.0425  0.2645
  252loPI   C2A 4024  11.693   3.782   9.037  0.0072  0.0748  0.0201
  252loPI   C3A 4025  11.602   3.692   8.634 -0.1675 -0.0278  0.2443
  252loPI   C4A 4026  11.356   3.804   8.188  0.1559 -0.2370 -0.0319
  252loPI   C5A 4027  11.299   3.869   7.689  0.1758  0.1036  0.1188
  252loPI   C6A 4028  11.209   4.282   7.446 -0.2525  0.1281 -0.0328
  252loPI   C1B 4029  11.296   3.639   9.350  0.0405  0.0006 -0.0754
  252loPI   C2B 4030  11.056   3.567   8.974 -0.5056  0.1877  0.0736
  252loPI   C3B 4031  10.981   3.553   8.495 -0.0922 -0.0260 -0.0681
  252loPI   C4B 4032  10.690   3.627   8.126 -0.1392 -0.1936 -0.1810
  253loPI    C1 4033   4.839  10.802   9.891 -0.1605 -0.3025  0.0432
  253loPI    C2 4034   5.164  10.925  10.088 -0.1233 -0.0363 -0.1775
  253loPI    C3 4035   4.801  10.991  10.241 -0.0828 -0.1420 -0.0338
  253loPI   PO4 4036   4.850  10.846   9.611  0.1814  0.4637 -0.1177
  253loPI   GL1 4037   4.803  11.031   9.246 -0.0635  0.0213 -0.0423
  253loPI   GL2 4038   4.460  11.096   9.366  0.2128  0.2612  0.1528
  253loPI   C1A 4039   4.576  10.981   8.829 -0.1530 -0.1697  0.2064
  253loPI   C2A 4040   4.481  11.364   8.626  0.0955 -0.0137 -0.4062
  253loPI   C3A 4041   4.455  11.733   8.328 -0.0858  0.0500 -0.0832
  253loPI   C4A 4042   4.150  11.829   8.127  0.2168  0.1173 -0.1544
  253loPI   C5A 4043   3.701  11.799   7.884 -0.0836  0.2226 -0.2362
  253loPI   C6A 4044   3.421  12.025   7.719 -0.2841 -0.2708 -0.1216
  253loPI   C1B 4045   4.188  11.062   9.145  0.2394  0.0692 -0.0499
  253loPI   C2B 4046   4.121  10.998   8.600 -0.2277 -0.1069 -0.1274
  253loPI   C3B 4047   4.262  11.001   8.358 -0.3107 -0.1507  0.4022
  253loPI   C4B 4048   4.414  11.291   8.050 -0.1348  0.1626 -0.0183
  254loPI    C1 4049   6.170  18.516  10.515  0.3007  0.1416 -0.0231
  254loPI    C2 4050   6.141  18.164  10.703  0.0348  0.1074 -0.1236
  254loPI    C3 4051   6.203  18.499  10.914  0.0829  0.0270 -0.0086
  254loPI   PO4 4052   6.146  18.400  10.271  0.1744 -0.2567 -0.1074
  254loPI   GL1 4053   6.278  18.381   9.826  0.1947 -0.2404 -0.1296
  254loPI   GL2 4054   6.532  18.233   9.995  0.2354  0.1737  0.0180
  254loPI   C1A 4055   6.143  18.266   9.462 -0.2075  0.0579  0.0985
  254loPI   C2A 4056   6.174  18.358   9.013 -0.0998 -0.4197 -0.0097
  254loPI   C3A 4057   5.968  18.312   8.727  0.3231  0.1530 -0.0536
  254loPI   C4A 4058   5.867  18.079   8.323  0.1135  0.0487 -0.1216
  254loPI   C5A 4059   5.566  18.081   8.074  0.1485 -0.1118 -0.3269
  254loPI   C6A 4060   5.330  17.798   7.847  0.1629  0.4279  0.0140
  254loPI   C1B 4061   6.674  18.424   9.606 -0.4397 -0.0833  0.1747
  254loPI   C2B 4062   6.764  18.725   9.240  0.4269 -0.0482  0.0406
  254loPI   C3B 4063   6.769  18.840   8.757 -0.0256  0.1233  0.0974
  254loPI   C4B 4064   6.926  18.613   8.240 -0.1789  0.1283  0.1814
  255loPI    C1 4065   8.560   4.010  10.347 -0.0657 -0.1465 -0.0143
  255loPI    C2 4066   8.776   4.027  10.684 -0.1094 -0.0684  0.0101
  255loPI    C3 4067   8.527   3.721  10.621  0.1739 -0.2766 -0.1194
  255loPI   PO4 4068   8.520   4.158  10.262  0.0058 -0.0451 -0.1331
  255loPI   GL1 4069   8.712   4.241   9.871 -0.3409  0.2977 -0.0479
  255loPI   GL2 4070   8.954   4.097   9.721 -0.1229  0.0399  0.0208
  255loPI   C1A 4071   8.573   4.413   9.461  0.3864  0.1090  0.0166
  255loPI   C2A 4072   8.617   4.357   8.999 -0.1683 -0.2450 -0.0477
  255loPI   C3A 4073   8.624   4.155   8.575  0.3309 -0.0249  0.0326
  255loPI   C4A 4074   8.714   4.382   8.152 -0.1812  0.2531  0.1356
  255loPI   C5A 4075   8.914   4.327   7.783 -0.0419 -0.1518 -0.4602
  255loPI   C6A 4076   8.970   4.201   7.339 -0.0849  0.2553  0.3328
  255loPI   C1B 4077   8.809   4.049   9.328  0.0871 -0.0687  0.2734
  255loPI   C2B 4078   8.812   3.888   8.968 -0.2578 -0.2335  0.3254
  255loPI   C3B 4079   8.958   3.802   8.574 -0.0599  0.0236  0.1732
  255loPI   C4B 4080   8.844   3.784   8.143  0.0185 -0.1750  0.0269
  256loPI    C1 4081  17.224   2.536   9.592  0.0564  0.1548  0.1791
  256loPI    C2 4082  17.001   2.845   9.714  0.0439  0.1087  0.2735
  256loPI    C3 4083  16.986   2.497   9.911 -0.3289 -0.1142 -0.1300
  256loPI   PO4 4084  17.164   2.475   9.370 -0.5057  0.0973  0.0556
  256loPI   GL1 4085  16.865   2.578   9.163 -0.1177  0.1459  0.1086
  256loPI   GL2 4086  16.715   2.847   9.233  0.1219  0.3108  0.1077
  256loPI   C1A 4087  16.833   2.269   8.852  0.1841 -0.3387  0.1028
  256loPI   C2A 4088  17.071   2.104   8.451 -0.2758  0.1052 -0.2105
  256loPI   C3A 4089  17.416   2.395   8.263 -0.0199 -0.2041  0.0264
  256loPI   C4A 4090  17.722   2.621   7.987  0.0099 -0.2866  0.1399
  256loPI   C5A 4091  18.038   2.450   7.613  0.0562  0.0732 -0.3396
  256loPI   C6A 4092  18.281   2.099   7.378  0.1791 -0.2291  0.1351
  256loPI   C1B 4093  16.535   2.690   8.842 -0.2708 -0.0947  0.0963
  256loPI   C2B 4094  16.236   2.599   8.338 -0.0457  0.1169 -0.2378
  256loPI   C3B 4095  16.208   2.545   7.836  0.1022 -0.1907  0.1113
  256loPI   C4B 4096  15.908   2.363   7.589 -0.0913 -0.0312 -0.1122
  257loPI    C1 4097  10.436  12.604   9.938  0.1229  0.0621  0.0897
  257loPI    C2 4098  10.451  12.834  10.264  0.2067 -0.1564  0.2420
  257loPI    C3 4099  10.387  12.441  10.300 -0.0383 -0.1431 -0.0224
  257loPI   PO4 4100  10.408  12.809   9.711  0.2016  0.2906  0.0350
  257loPI   GL1 4101  10.433  12.699   9.255  0.2166  0.1683 -0.1334
  257loPI   GL2 4102  10.297  13.001   9.226 -0.0879  0.4307 -0.0803
  257loPI   C1A 4103  10.480  12.546   8.924 -0.1785  0.1083  0.0382
  257loPI   C2A 4104  10.493  12.541   8.597 -0.0955  0.1569  0.0857
  257loPI   C3A 4105  10.490  12.448   8.182  0.3499 -0.1771 -0.1605
  257loPI   C4A 4106  10.459  12.505   7.782 -0.0914  0.1397 -0.1340
  257loPI   C5A 4107  10.656  12.316   7.414  0.0633 -0.0206  0.0868
  257loPI   C6A 4108  10.811  12.466   7.088 -0.1006 -0.2885  0.1233
  257loPI   C1B 4109  10.281  13.033   8.896 -0.1303  0.0671  0.0877
  257loPI   C2B 4110  10.343  12.981   8.460 -0.4687  0.0964  0.1840
  257loPI   C3B 4111  10.371  12.982   8.106  0.1052  0.1714  0.2593
  257loPI   C4B 4112  10.071  12.836   7.795  0.2064  0.0466 -0.2326
  258loPI    C1 4113  18.323  16.464   9.944  0.0385  0.0452  0.0038
  258loPI    C2 4114  18.578  16.178   9.830 -0.0222 -0.0348  0.0670
  258loPI    C3 4115  18.292  16.096  10.098  0.0356  0.1162  0.1763
  258loPI   PO4 4116  18.256  16.539   9.705 -0.2493  0.0797  0.1025
  258loPI   GL1 4117  17.981  16.620   9.337 -0.1495  0.0137  0.0553
  258loPI   GL2 4118  18.076  16.844   9.016  0.2853  0.0530  0.1548
  258loPI   C1A 4119  18.017  16.264   9.026  0.2715  0.0522 -0.0628
  258loPI   C2A 4120  17.803  16.140   8.675  0.0083 -0.0339 -0.0465
  258loPI   C3A 4121  17.733  15.922   8.409  0.3317 -0.1808 -0.4650
  258loPI   C4A 4122  17.570  15.852   8.047  0.0647 -0.0397 -0.0313
  258loPI   C5A 4123  17.354  15.845   7.715  0.3033 -0.0273  0.0948
  258loPI   C6A 4124  17.500  16.238   7.519 -0.0045 -0.0637 -0.0254
  258loPI   C1B 4125  17.892  16.648   8.726 -0.4076  0.1224  0.2597
  258loPI   C2B 4126  17.622  16.531   8.349  0.1156  0.0973 -0.0648
  258loPI   C3B 4127  17.484  16.400   8.036  0.1432 -0.0892  0.1665
  258loPI   C4B 4128  17.074  16.269   7.772  0.1194 -0.1493 -0.0466
  259loPI    C1 4129   6.734  11.941   9.669 -0.0965  0.4116 -0.1023
  259loPI    C2 4130   6.572  11.833  10.019 -0.0520 -0.3751 -0.3065
  259loPI    C3 4131   6.408  12.128   9.805 -0.3032 -0.1400  0.1936
  259loPI   PO4 4132   6.689  11.610   9.544  0.1734  0.2125  0.4769
  259loPI   GL1 4133   6.613  11.250   9.227  0.2861 -0.0765 -0.2364
  259loPI   GL2 4134   6.446  11.598   9.052  0.0736  0.0933  0.1578
  259loPI   C1A 4135   6.989  11.343   9.050 -0.0003 -0.0732  0.2221
  259loPI   C2A 4136   7.373  11.126   8.845 -0.0233 -0.1856 -0.1127
  259loPI   C3A 4137   7.343  10.815   8.522 -0.0031  0.1301 -0.0639
  259loPI   C4A 4138   7.252  10.960   8.126  0.4165  0.1073 -0.0682
  259loPI   C5A 4139   7.505  10.865   7.711 -0.2135 -0.0151  0.0179
  259loPI   C6A 4140   7.772  10.668   7.447  0.4404  0.2904  0.0882
  259loPI   C1B 4141   6.645  11.513   8.622 -0.3235 -0.0757 -0.1482
  259loPI   C2B 4142   6.731  11.495   8.188 -0.2159 -0.2030 -0.2779
  259loPI   C3B 4143   6.858  11.162   7.954 -0.2409  0.2354  0.2171
  259loPI   C4B 4144   7.016  10.796   7.719 -0.0284  0.0348  0.0925
  260loPI    C1 4145  10.206  18.402  10.022  0.1340 -0.1534 -0.2189
  260loPI    C2 4146  10.322  18.143  10.303 -0.0777  0.0623  0.0732
  260loPI    C3 4147   9.955  18.117  10.147 -0.0350  0.0740 -0.0299
  260loPI   PO4 4148  10.299  18.428   9.885 -0.0207 -0.2211  0.1989
  260loPI   GL1 4149  10.275  18.476   9.487 -0.0904 -0.3982 -0.1220
  260loPI   GL2 4150  10.028  18.676   9.520 -0.1020  0.1990 -0.0870
  260loPI   C1A 4151  10.524  18.725   9.150 -0.4401 -0.0435  0.1232
  260loPI   C2A 4152  10.707  18.747   8.811  0.0463  0.0719  0.0041
  260loPI   C3A 4153  10.831  18.855   8.459  0.4549  0.0749 -0.1732
  260loPI   C4A 4154  10.972  19.124   8.187  0.2479 -0.1607  0.1252
  260loPI   C5A 4155  11.136  18.954   7.811 -0.2781  0.1083  0.0148
  260loPI   C6A 4156  11.324  19.041   7.438  0.4473 -0.0582  0.2003
  260loPI   C1B 4157   9.881  18.689   9.101  0.0247  0.1256 -0.2017
  260loPI   C2B 4158   9.795  18.742   8.664  0.1530 -0.0066 -0.1700
  260loPI   C3B 4159   9.651  18.848   8.317 -0.0421  0.5015  0.0231
  260loPI   C4B 4160   9.503  18.888   7.934 -0.1399 -0.0654 -0.1277
  261loPI    C1 4161   5.113  18.812  10.239  0.0385 -0.0940  0.0709
  261loPI    C2 4162   5.365  18.764   9.932  0.0516 -0.2158  0.1001
  261loPI    C3 4163   5.179  18.447  10.089  0.0092 -0.1479  0.1882
  261loPI   PO4 4164   5.146  19.040  10.293 -0.0037  0.3122  0.2033
  261loPI   GL1 4165   5.239  19.272  10.012 -0.0174 -0.1243  0.0267
  261loPI   GL2 4166   5.232  19.445   9.808 -0.1269 -0.0491  0.0894
  261loPI   C1A 4167   5.600  19.185   9.801 -0.3442  0.1510  0.1541
  261loPI   C2A 4168   5.821  19.180   9.338 -0.3012 -0.2528 -0.0908
  261loPI   C3A 4169   5.956  19.197   8.844  0.3438  0.1039  0.1756
  261loPI   C4A 4170   6.138  19.294   8.387 -0.1144  0.0155  0.0448
  261loPI   C5A 4171   6.158  19.248   7.929 -0.1225 -0.1343 -0.1794
  261loPI   C6A 4172   6.382  19.363   7.545  0.3415 -0.0297  0.2097
  261loPI   C1B 4173   5.243  19.172   9.430 -0.0190 -0.1374  0.2559
  261loPI   C2B 4174   5.404  19.115   9.001 -0.1710 -0.0490  0.0586
  261loPI   C3B 4175   5.387  19.029   8.601 -0.2257  0.0475 -0.1488
  261loPI   C4B 4176   5.218  18.993   8.159  0.0221 -0.3599 -0.1699
  262loPI    C1 4177   5.036  13.134  10.157  0.0234  0.3691  0.3171
  262loPI    C2 4178   4.780  13.437  10.204 -0.2528  0.1726  0.1154
  262loPI    C3 4179   4.656  13.061  10.258 -0.0261  0.0701 -0.0631
  262loPI   PO4 4180   5.281  13.279   9.909  0.0949  0.1064  0.3274
  262loPI   GL1 4181   5.306  13.433   9.494 -0.1317 -0.0492  0.3676
  262loPI   GL2 4182   5.648  13.619   9.439  0.0570  0.0725  0.0347
  262loPI   C1A 4183   5.661  13.171   9.163 -0.0852 -0.3301 -0.2059
  262loPI   C2A 4184   5.701  13.078   8.740 -0.0768 -0.2128 -0.1952
  262loPI   C3A 4185   5.637  13.111   8.310 -0.0953  0.0032  0.0143
  262loPI   C4A 4186   5.506  13.089   7.910 -0.1182  0.1248  0.2282
  262loPI   C5A 4187   5.237  13.145   7.514 -0.2176  0.0362 -0.0486
  262loPI   C6A 4188   5.096  12.818   7.267 -0.3162  0.1318 -0.3904
  262loPI   C1B 4189   5.560  13.616   8.968  0.1877  0.3847 -0.1927
  262loPI   C2B 4190   5.513  13.516   8.579  0.0557  0.1408  0.0357
  262loPI   C3B 4191   5.488  13.590   8.145 -0.0952  0.0236 -0.3506
  262loPI   C4B 4192   5.438  13.575   7.768 -0.2320 -0.0806  0.1643
  263loPI    C1 4193  15.964  15.454   9.841 -0.1337  0.1280  0.0256
  263loPI    C2 4194  16.303  15.260   9.924 -0.0961  0.1533 -0.0675
  263loPI    C3 4195  16.096  15.435  10.218 -0.1655 -0.0847  0.0276
  263loPI   PO4 4196  16.030  15.525   9.471 -0.1442  0.1542  0.1291
  263loPI   GL1 4197  16.157  15.473   9.011 -0.5914 -0.2425 -0.0614
  263loPI   GL2 4198  15.854  15.287   9.018  0.1894 -0.3167  0.1658
  263loPI   C1A 4199  16.216  15.784   8.703 -0.4354  0.1776  0.3888
  263loPI   C2A 4200  16.250  15.785   8.248 -0.2443  0.2893 -0.4248
  263loPI   C3A 4201  16.097  15.652   7.828 -0.1481 -0.2047  0.1176
  263loPI   C4A 4202  15.713  15.495   7.662  0.2457  0.0973 -0.0708
  263loPI   C5A 4203  15.453  15.369   7.299 -0.0475 -0.1568 -0.0374
  263loPI   C6A 4204  15.318  15.732   7.145 -0.3042 -0.0141 -0.0738
  263loPI   C1B 4205  15.708  15.024   8.694  0.1681 -0.0016 -0.0398
  263loPI   C2B 4206  15.589  14.868   8.283  0.1692 -0.0650 -0.2377
  263loPI   C3B 4207  15.237  14.592   8.104  0.1526 -0.0243  0.4115
  263loPI   C4B 4208  14.928  14.718   7.867  0.0068 -0.0221  0.4189
  264loPI    C1 4209   4.403  11.059   9.882 -0.0886  0.0161  0.0230
  264loPI    C2 4210   4.159  10.974  10.186  0.0454 -0.2342  0.0636
  264loPI    C3 4211   4.371  11.313  10.189 -0.3619  0.0280 -0.0137
  264loPI   PO4 4212   4.333  10.773   9.771  0.0536 -0.0664 -0.1302
  264loPI   GL1 4213   4.356  10.450   9.450 -0.0228 -0.0934 -0.2413
  264loPI   GL2 4214   4.515  10.576   9.316 -0.0476 -0.1990  0.1655
  264loPI   C1A 4215   3.871  10.592   9.233  0.1647 -0.0893 -0.3364
  264loPI   C2A 4216   3.885  10.659   8.816  0.2526 -0.2185 -0.1250
  264loPI   C3A 4217   3.830  10.603   8.421  0.0339  0.3933  0.1927
  264loPI   C4A 4218   4.009  10.737   8.066 -0.1735  0.0050 -0.2623
  264loPI   C5A 4219   3.875  10.667   7.646 -0.0849 -0.1396 -0.2352
  264loPI   C6A 4220   3.584  10.747   7.325 -0.0735 -0.4926 -0.5515
  264loPI   C1B 4221   4.365  10.569   8.893  0.2576 -0.3319  0.0381
  264loPI   C2B 4222   4.517  10.585   8.500 -0.1532  0.4272 -0.0769
  264loPI   C3B 4223   4.872  10.471   8.207 -0.0961  0.0027 -0.0342
  264loPI   C4B 4224   5.183  10.346   7.891  0.1731  0.2198  0.2632
  265loPI    C1 4225  13.289   9.227   9.942 -0.1635  0.0766 -0.1965
  265loPI    C2 4226  12.916   9.125   9.839 -0.1675 -0.1104 -0.0039
  265loPI    C3 4227  12.984   9.307  10.188 -0.1463  0.4601 -0.2942
  265loPI   PO4 4228  13.291   9.435   9.706  0.1274  0.3962  0.0660
  265loPI   GL1 4229  13.334   9.480   9.294  0.0154 -0.2531 -0.1064
  265loPI   GL2 4230  13.347   9.727   9.144 -0.4270 -0.6739 -0.0295
  265loPI   C1A 4231  13.312   9.165   8.929  0.1060  0.1806 -0.0321
  265loPI   C2A 4232  13.098   8.879   8.671 -0.1761  0.0323 -0.0677
  265loPI   C3A 4233  12.914   8.736   8.398 -0.3090 -0.3943 -0.0507
  265loPI   C4A 4234  12.740   8.379   8.351  0.1937  0.1021  0.0245
  265loPI   C5A 4235  12.479   8.107   8.065  0.3852  0.0792  0.0828
  265loPI   C6A 4236  12.585   7.893   7.636 -0.0883 -0.2899  0.1187
  265loPI   C1B 4237  13.420   9.980   8.832 -0.0342  0.0748  0.0344
  265loPI   C2B 4238  13.406  10.162   8.494  0.2943 -0.1062 -0.1646
  265loPI   C3B 4239  13.351  10.213   8.113  0.1688 -0.1816 -0.1506
  265loPI   C4B 4240  13.088  10.064   7.772 -0.4834 -0.1411  0.2687
  266loPI    C1 4241  11.045  12.021   9.817  0.1233 -0.2709  0.1778
  266loPI    C2 4242  10.657  11.965   9.897 -0.0381  0.2123 -0.2127
  266loPI    C3 4243  10.858  12.261  10.077  0.0658  0.1639 -0.2484
  266loPI   PO4 4244  11.105  11.967   9.504  0.3342  0.2274 -0.2595
  266loPI   GL1 4245  10.952  11.905   9.053 -0.0167 -0.1743  0.1363
  266loPI   GL2 4246  10.838  12.178   9.147  0.0668  0.0436 -0.1370
  266loPI   C1A 4247  11.305  11.941   8.760  0.2736 -0.1186 -0.2333
  266loPI   C2A 4248  11.336  11.904   8.358 -0.1269  0.0351 -0.2752
  266loPI   C3A 4249  11.467  12.131   7.957 -0.3680 -0.2508  0.0767
  266loPI   C4A 4250  11.512  12.376   7.593 -0.2267  0.2769  0.1661
  266loPI   C5A 4251  11.482  12.758   7.511 -0.2891  0.0634  0.1452
  266loPI   C6A 4252  11.616  13.266   7.404 -0.0443 -0.1595  0.3068
  266loPI   C1B 4253  11.033  12.371   8.748  0.0346 -0.0624 -0.2300
  266loPI   C2B 4254  11.091  12.399   8.328 -0.0013 -0.2166  0.1638
  266loPI   C3B 4255  11.112  12.556   7.922 -0.2316  0.1694  0.0639
  266loPI   C4B 4256  10.968  12.613   7.626  0.1566  0.0237  0.0060
  267loPI    C1 4257   4.164   5.045   9.994 -0.0578 -0.0193  0.1129
  267loPI    C2 4258   4.426   5.184  10.263  0.1736 -0.1001 -0.0671
  267loPI    C3 4259   4.067   5.055  10.382  0.3412 -0.3072  0.2270
  267loPI   PO4 4260   4.388   4.912   9.744  0.2247 -0.1198  0.0327
  267loPI   GL1 4261   4.545   4.895   9.281  0.1376 -0.0965  0.2137
  267loPI   GL2 4262   4.794   4.827   9.143 -0.0024 -0.1444 -0.1789
  267loPI   C1A 4263   4.344   4.776   8.857 -0.5678 -0.0353 -0.0714
  267loPI   C2A 4264   4.530   4.600   8.571 -0.0841 -0.0216 -0.0479
  267loPI   C3A 4265   4.487   4.498   8.168  0.1294  0.0366  0.0166
  267loPI   C4A 4266   4.508   4.640   7.790  0.0238  0.2594 -0.0211
  267loPI   C5A 4267   4.653   4.849   7.370  0.1781 -0.0825  0.2365
  267loPI   C6A 4268   4.435   5.026   6.987  0.2868 -0.5310 -0.0635
  267loPI   C1B 4269   4.801   4.958   8.735  0.3584  0.1931  0.0018
  267loPI   C2B 4270   4.649   5.074   8.348 -0.0944  0.2750 -0.0676
  267loPI   C3B 4271   4.266   4.956   8.087  0.3313 -0.2904  0.2981
  267loPI   C4B 4272   4.139   5.079   7.737 -0.2242  0.0969 -0.1000
  268loPI    C1 4273  18.408  15.860   9.404  0.1003 -0.1928 -0.1289
  268loPI    C2 4274  18.210  15.732   9.727  0.1167 -0.0265 -0.0512
  268loPI    C3 4275  18.120  16.086   9.565  0.0208 -0.1654 -0.3076
  268loPI   PO4 4276  18.640  15.653   9.453 -0.0826  0.3848 -0.1090
  268loPI   GL1 4277  19.017  15.576   9.203  0.2326  0.2120  0.0514
  268loPI   GL2 4278  18.772  15.803   9.019 -0.1393  0.1813 -0.2424
  268loPI   C1A 4279  19.019  15.529   8.672 -0.1010 -0.2934  0.2146
  268loPI   C2A 4280  19.092  15.806   8.260 -0.0306  0.3038  0.3732
  268loPI   C3A 4281  19.095  15.646   7.816  0.1086  0.1416 -0.0667
  268loPI   C4A 4282  19.262  15.672   7.470  0.2499 -0.1355  0.1436
  268loPI   C5A 4283  19.497  15.929   7.162  0.0114  0.1310 -0.3114
  268loPI   C6A 4284  19.598  16.377   7.162  0.2740 -0.1561 -0.0123
  268loPI   C1B 4285  18.700  15.911   8.663 -0.0679 -0.1905  0.2088
  268loPI   C2B 4286  18.657  15.634   8.190  0.1953 -0.0410 -0.1005
  268loPI   C3B 4287  18.458  15.370   7.868  0.0228 -0.3850 -0.1986
  268loPI   C4B 4288  18.065  15.042   7.783 -0.0467 -0.1351 -0.0842
  269loPI    C1 4289   1.277  17.211   9.392  0.1511  0.0037  0.0249
  269loPI    C2 4290   1.539  17.301   9.681  0.0173  0.0572  0.1309
  269loPI    C3 4291   1.278  17.002   9.734  0.3654 -0.3106 -0.1626
  269loPI   PO4 4292   1.142  17.514   9.316  0.0214  0.0536  0.0373
  269loPI   GL1 4293   1.431  17.773   9.025  0.1362  0.0912 -0.0265
  269loPI   GL2 4294   1.698  17.974   9.085 -0.0287 -0.0329 -0.2656
  269loPI   C1A 4295   1.316  17.681   8.563 -0.0920 -0.2724  0.2910
  269loPI   C2A 4296   1.264  17.644   8.136  0.0432 -0.4577 -0.1668
  269loPI   C3A 4297   1.433  17.802   7.772  0.0600 -0.3263 -0.1297
  269loPI   C4A 4298   1.881  17.904   7.710  0.3930  0.3385 -0.4536
  269loPI   C5A 4299   2.241  18.063   7.675  0.0873  0.2511  0.2121
  269loPI   C6A 4300   2.469  18.278   7.452  0.1610  0.0072  0.1811
  269loPI   C1B 4301   1.861  18.083   8.650 -0.0970 -0.0795 -0.0762
  269loPI   C2B 4302   1.982  17.975   8.218 -0.0155  0.0284 -0.2120
  269loPI   C3B 4303   2.295  17.655   8.123  0.0206 -0.0632  0.0012
  269loPI   C4B 4304   2.591  17.316   8.013 -0.0827  0.2398  0.1331
  270loPI    C1 4305   1.690  16.277   9.699  0.1220  0.0885 -0.1298
  270loPI    C2 4306   1.324  16.228   9.545 -0.0277 -0.0242  0.2507
  270loPI    C3 4307   1.392  16.522   9.807  0.1960  0.0971  0.0591
  270loPI   PO4 4308   1.847  16.304   9.559 -0.2614  0.6105 -0.1163
  270loPI   GL1 4309   1.822  15.965   9.256  0.2689  0.1125 -0.1209
  270loPI   GL2 4310   1.472  15.862   9.174  0.2112  0.0360  0.2162
  270loPI   C1A 4311   1.987  15.868   8.834 -0.0374  0.0021 -0.1991
  270loPI   C2A 4312   1.837  15.808   8.323  0.0096 -0.3028 -0.0458
  270loPI   C3A 4313   1.597  15.636   7.996  0.1122  0.2286 -0.4019
  270loPI   C4A 4314   1.554  15.732   7.553  0.4991  0.3641 -0.4208
  270loPI   C5A 4315   1.437  16.176   7.416 -0.1282  0.0883  0.0732
  270loPI   C6A 4316   1.144  16.318   7.124 -0.2885 -0.1463 -0.1820
  270loPI   C1B 4317   1.516  15.806   8.690 -0.1221 -0.1157 -0.5594
  270loPI   C2B 4318   1.463  15.495   8.444 -0.2526 -0.0328 -0.0795
  270loPI   C3B 4319   1.503  15.134   8.217 -0.1270 -0.1480 -0.1896
  270loPI   C4B 4320   1.321  14.732   8.014  0.2490  0.0593  0.2202
  271loPI    C1 4321   1.395   9.517   9.742  0.2092  0.1494  0.0174
  271loPI    C2 4322   1.231   9.736  10.034 -0.2113 -0.3654  0.1839
  271loPI    C3 4323   1.371   9.369  10.113  0.0038 -0.3694 -0.1923
  271loPI   PO4 4324   1.510   9.770   9.605 -0.0153 -0.0668  0.0190
  271loPI   GL1 4325   1.643  10.158   9.362  0.3104  0.0276  0.0606
  271loPI   GL2 4326   1.918  10.270   9.295  0.1034 -0.3154  0.3786
  271loPI   C1A 4327   1.556  10.047   8.926  0.1034 -0.1720 -0.0063
  271loPI   C2A 4328   1.581  10.154   8.550  0.0955  0.2904  0.2492
  271loPI   C3A 4329   1.308  10.345   8.178 -0.2537 -0.3804  0.1890
  271loPI   C4A 4330   1.374  10.129   7.761  0.4367 -0.0716 -0.1590
  271loPI   C5A 4331   1.500  10.100   7.340  0.1532 -0.0392 -0.0838
  271loPI   C6A 4332   1.109  10.224   7.036 -0.0841 -0.0888  0.2349
  271loPI   C1B 4333   2.031  10.308   8.852 -0.0831 -0.0892 -0.2001
  271loPI   C2B 4334   2.062  10.424   8.385  0.1475  0.1178  0.0097
  271loPI   C3B 4335   1.779  10.429   8.057 -0.0453 -0.1213  0.3178
  271loPI   C4B 4336   1.906  10.474   7.645 -0.1600  0.1214  0.1791
  272loPI    C1 4337   4.667  13.860   9.944 -0.0524  0.0215 -0.0737
  272loPI    C2 4338   5.056  13.774   9.908 -0.0093 -0.0211  0.4149
  272loPI    C3 4339   4.943  14.131  10.047 -0.1489  0.0183  0.2044
  272loPI   PO4 4340   4.548  13.752   9.685  0.0390  0.1257 -0.1525
  272loPI   GL1 4341   4.462  13.793   9.160 -0.0917 -0.0967 -0.1615
  272loPI   GL2 4342   4.114  13.844   9.176  0.0625  0.1537  0.0525
  272loPI   C1A 4343   4.698  14.128   8.938 -0.0703 -0.4416  0.2800
  272loPI   C2A 4344   4.671  14.138   8.472 -0.1829  0.0673 -0.2264
  272loPI   C3A 4345   4.571  14.085   8.060  0.1923  0.0596 -0.0343
  272loPI   C4A 4346   4.646  13.916   7.567 -0.0847 -0.0460  0.0880
  272loPI   C5A 4347   4.747  13.866   7.037 -0.1497  0.0699  0.2273
  272loPI   C6A 4348   5.085  13.736   6.810  0.1406  0.0569  0.1614
  272loPI   C1B 4349   4.128  13.705   8.701  0.1005 -0.0253  0.2175
  272loPI   C2B 4350   4.209  13.637   8.275  0.4407  0.2526 -0.0283
  272loPI   C3B 4351   4.306  13.755   7.840  0.0094 -0.0627  0.1523
  272loPI   C4B 4352   4.255  13.683   7.364 -0.0583 -0.0029 -0.0344
  273loPI    C1 4353   0.429   0.069   9.817 -0.0998  0.1135  0.1397
  273loPI    C2 4354   0.106  -0.079   9.633  0.1897 -0.1865 -0.1385
  273loPI    C3 4355   0.218  -0.225   9.988 -0.2545  0.2557  0.1964
  273loPI   PO4 4356   0.369   0.334   9.730  0.0425 -0.3457 -0.1829
  273loPI   GL1 4357   0.138   0.469   9.417 -0.0470 -0.2773 -0.0948
  273loPI   GL2 4358   0.398   0.606   9.255  0.0293 -0.1294  0.2564
  273loPI   C1A 4359  -0.089   0.571   9.043 -0.2900 -0.3090 -0.0405
  273loPI   C2A 4360  -0.098   0.529   8.637  0.2451  0.0843  0.0178
  273loPI   C3A 4361  -0.132   0.578   8.260  0.2420  0.1258 -0.0948
  273loPI   C4A 4362  -0.029   0.467   7.827 -0.1779 -0.0938 -0.0543
  273loPI   C5A 4363   0.275   0.554   7.499  0.0204 -0.1324  0.1003
  273loPI   C6A 4364   0.383   0.252   7.214  0.0266 -0.3246 -0.2747
  273loPI   C1B 4365   0.373   0.647   8.875  0.1269  0.2202  0.1972
  273loPI   C2B 4366   0.328   0.790   8.382  0.1926  0.3395 -0.2578
  273loPI   C3B 4367   0.273   0.827   7.957  0.4264 -0.1910 -0.2445
  273loPI   C4B 4368  -0.005   0.921   7.559  0.0543 -0.0280  0.1509
  274loPI    C1 4369  17.619  13.127  10.154 -0.0505 -0.0031 -0.0677
  274loPI    C2 4370  17.713  13.492  10.287 -0.1629  0.0861 -0.2296
  274loPI    C3 4371  17.956  13.183  10.362  0.0118  0.2226 -0.2267
  274loPI   PO4 4372  17.637  13.157   9.833  0.0875  0.1146  0.1323
  274loPI   GL1 4373  17.787  13.411   9.339 -0.4025  0.0043  0.1394
  274loPI   GL2 4374  18.019  13.388   9.495 -0.2447  0.1499  0.1923
  274loPI   C1A 4375  17.517  13.325   8.953 -0.2920  0.0045  0.0639
  274loPI   C2A 4376  17.542  13.136   8.604  0.0455  0.1975 -0.3499
  274loPI   C3A 4377  17.446  12.785   8.279  0.0578 -0.0780 -0.0230
  274loPI   C4A 4378  17.241  12.620   7.965  0.2966 -0.1966 -0.5194
  274loPI   C5A 4379  17.171  12.262   7.605  0.0517 -0.4037  0.0060
  274loPI   C6A 4380  17.470  12.021   7.311  0.0786  0.1550  0.3084
  274loPI   C1B 4381  18.261  13.301   9.152 -0.0189  0.2175 -0.0302
  274loPI   C2B 4382  18.516  13.247   8.795 -0.1043 -0.0157  0.3034
  274loPI   C3B 4383  18.637  13.019   8.502 -0.3999 -0.1711  0.0067
  274loPI   C4B 4384  18.762  12.990   8.083 -0.0105  0.0559 -0.0902
  275loPI    C1 4385   2.103   5.543   9.976  0.0652  0.2062 -0.0750
  275loPI    C2 4386   2.089   5.195  10.174  0.0866  0.0724 -0.3052
  275loPI    C3 4387   2.271   5.512  10.338 -0.2663  0.0871  0.0724
  275loPI   PO4 4388   2.151   5.474   9.764 -0.0683 -0.1675  0.2812
  275loPI   GL1 4389   2.068   5.760   9.327 -0.2262  0.0001  0.1183
  275loPI   GL2 4390   1.887   6.084   9.265 -0.1056 -0.0362  0.1204
  275loPI   C1A 4391   2.192   5.488   8.990 -0.3512  0.2221  0.1405
  275loPI   C2A 4392   2.108   5.441   8.610 -0.0955  0.0700 -0.1067
  275loPI   C3A 4393   2.019   5.422   8.118 -0.1140  0.1551 -0.0886
  275loPI   C4A 4394   2.225   5.519   7.766  0.0946 -0.2732  0.1724
  275loPI   C5A 4395   2.305   5.842   7.605  0.2698  0.0070  0.2298
  275loPI   C6A 4396   2.613   5.998   7.509  0.0626  0.0277  0.0409
  275loPI   C1B 4397   2.111   6.005   8.834 -0.1033  0.0477 -0.1333
  275loPI   C2B 4398   2.004   5.967   8.484  0.1434  0.1960 -0.0514
  275loPI   C3B 4399   1.979   5.892   8.058  0.1935 -0.5048  0.1128
  275loPI   C4B 4400   1.824   5.852   7.661 -0.2531 -0.0601  0.0559
  276loPI    C1 4401   5.422  18.043  10.385  0.1185  0.5144 -0.3391
  276loPI    C2 4402   5.215  18.330  10.572 -0.2119  0.0694  0.0014
  276loPI    C3 4403   5.401  18.047  10.785 -0.1123 -0.1228 -0.3342
  276loPI   PO4 4404   5.615  18.180  10.205  0.0027  0.2289 -0.0683
  276loPI   GL1 4405   5.781  18.133   9.722  0.1262 -0.0665 -0.2927
  276loPI   GL2 4406   5.764  18.464   9.838  0.0042 -0.3422  0.0747
  276loPI   C1A 4407   5.679  18.258   9.206 -0.2281  0.0106 -0.0357
  276loPI   C2A 4408   5.755  17.880   8.899 -0.0069  0.0119  0.0267
  276loPI   C3A 4409   5.449  17.744   8.621 -0.2683  0.0994  0.3168
  276loPI   C4A 4410   5.209  17.534   8.337  0.4809  0.2124 -0.1270
  276loPI   C5A 4411   4.889  17.538   7.939  0.3905  0.0470  0.0276
  276loPI   C6A 4412   4.922  17.383   7.579 -0.0888 -0.0059  0.1541
  276loPI   C1B 4413   5.803  18.758   9.470  0.2008  0.0383  0.2958
  276loPI   C2B 4414   5.758  18.760   8.971  0.2226  0.2914 -0.5676
  276loPI   C3B 4415   5.705  18.690   8.506 -0.0746 -0.1556 -0.1833
  276loPI   C4B 4416   5.502  18.606   8.084  0.2724 -0.0094 -0.0738
  277loPI    C1 4417  16.932   1.235   9.823  0.1048 -0.2139 -0.1005
  277loPI    C2 4418  16.827   0.941  10.072 -0.1234 -0.2569 -0.2441
  277loPI    C3 4419  16.755   1.322  10.170 -0.1052 -0.2666 -0.1930
  277loPI   PO4 4420  16.755   1.244   9.500  0.4178 -0.3418 -0.3344
  277loPI   GL1 4421  16.758   1.236   9.073  0.2193 -0.0108  0.3647
  277loPI   GL2 4422  16.942   0.953   9.118 -0.0090 -0.0998  0.0787
  277loPI   C1A 4423  16.545   1.270   8.747 -0.0535 -0.0446 -0.3968
  277loPI   C2A 4424  16.680   1.302   8.243 -0.0761  0.0961  0.1070
  277loPI   C3A 4425  16.716   1.305   7.789 -0.0568 -0.1974 -0.2958
  277loPI   C4A 4426  16.402   1.455   7.537  0.0315  0.1915 -0.1956
  277loPI   C5A 4427  16.399   1.554   7.118 -0.1437 -0.0580  0.1637
  277loPI   C6A 4428  16.433   1.607   6.730 -0.4550 -0.0628 -0.0041
  277loPI   C1B 4429  17.064   1.098   8.654 -0.3914 -0.0588 -0.0596
  277loPI   C2B 4430  17.258   1.179   8.203 -0.2173  0.0009 -0.3718
  277loPI   C3B 4431  17.438   1.315   7.798 -0.3302  0.1193 -0.1300
  277loPI   C4B 4432  17.648   1.527   7.538  0.1105  0.0016  0.4161
  278loPI    C1 4433   4.695   8.117   9.801 -0.2198 -0.2157 -0.0277
  278loPI    C2 4434   4.501   8.463   9.751  0.1531  0.0207  0.1184
  278loPI    C3 4435   4.369   8.132   9.571 -0.3265  0.1928  0.1401
  278loPI   PO4 4436   5.041   8.270   9.761  0.0334 -0.0635  0.2684
  278loPI   GL1 4437   5.228   8.188   9.505  0.0223  0.0759  0.0164
  278loPI   GL2 4438   5.237   8.540   9.371 -0.2045  0.1562  0.0358
  278loPI   C1A 4439   5.549   8.083   9.190 -0.0632 -0.1079 -0.1588
  278loPI   C2A 4440   5.592   8.176   8.784 -0.3460 -0.0517 -0.0380
  278loPI   C3A 4441   5.514   8.328   8.296  0.2532  0.1052  0.1601
  278loPI   C4A 4442   5.234   8.187   7.989 -0.0865 -0.3855  0.0009
  278loPI   C5A 4443   5.160   8.116   7.608 -0.0066 -0.2278 -0.3694
  278loPI   C6A 4444   5.146   8.109   7.185  0.1290  0.3636  0.0960
  278loPI   C1B 4445   5.350   8.591   8.989 -0.0920 -0.3348 -0.3680
  278loPI   C2B 4446   5.391   8.750   8.580 -0.0639 -0.0891 -0.2407
  278loPI   C3B 4447   5.322   8.964   8.205  0.2252  0.0712 -0.1821
  278loPI   C4B 4448   5.528   9.116   7.881 -0.0718 -0.0881 -0.0232
  279loPI    C1 4449   9.059  17.303  10.152 -0.0096  0.2207  0.2095
  279loPI    C2 4450   8.748  17.052  10.160  0.1832 -0.0390 -0.1564
  279loPI    C3 4451   9.067  16.983  10.392  0.1341  0.0085 -0.0736
  279loPI   PO4 4452   9.106  17.349   9.954  0.3665 -0.1633 -0.0779
  279loPI   GL1 4453   8.774  17.326   9.666  0.1699  0.1238  0.0410
  279loPI   GL2 4454   8.809  17.018   9.660 -0.1491  0.0776  0.0044
  279loPI   C1A 4455   8.806  17.630   9.310  0.1276 -0.0819  0.3193
  279loPI   C2A 4456   8.852  17.587   8.840  0.0510 -0.0510 -0.1397
  279loPI   C3A 4457   8.894  17.590   8.369  0.0084  0.1088  0.3505
  279loPI   C4A 4458   8.683  17.675   8.001 -0.1377  0.0068  0.1125
  279loPI   C5A 4459   8.855  17.871   7.646  0.1208  0.1010  0.2804
  279loPI   C6A 4460   8.982  18.262   7.701  0.0338 -0.0391 -0.0935
  279loPI   C1B 4461   8.830  17.135   9.165  0.3565  0.0108  0.0855
  279loPI   C2B 4462   8.802  17.058   8.708  0.2385 -0.3309  0.0579
  279loPI   C3B 4463   8.560  16.970   8.280 -0.0765  0.1558  0.0574
  279loPI   C4B 4464   8.331  16.779   7.964 -0.0905  0.3537  0.3061
  280loPI    C1 4465  16.985  15.517  10.020  0.1697  0.1845  0.1943
  280loPI    C2 4466  16.735  15.412  10.314  0.2893 -0.1772  0.1712
  280loPI    C3 4467  16.746  15.791  10.187 -0.2825 -0.1632  0.1372
  280loPI   PO4 4468  16.912  15.421   9.763 -0.2972  0.2239  0.1513
  280loPI   GL1 4469  16.934  15.502   9.235  0.1673 -0.0363 -0.0135
  280loPI   GL2 4470  16.731  15.284   8.993  0.0834  0.1967  0.3127
  280loPI   C1A 4471  16.566  15.879   9.083  0.1745  0.2539  0.0874
  280loPI   C2A 4472  16.597  16.034   8.594  0.0764 -0.2128 -0.0596
  280loPI   C3A 4473  16.657  16.287   8.190 -0.3831 -0.0547 -0.1031
  280loPI   C4A 4474  16.561  16.342   7.739 -0.1335 -0.5876  0.1656
  280loPI   C5A 4475  16.449  16.725   7.366  0.1928  0.0443  0.1035
  280loPI   C6A 4476  16.143  17.052   7.325 -0.0260 -0.3450  0.2609
  280loPI   C1B 4477  16.667  15.513   8.675  0.0614 -0.0420  0.2422
  280loPI   C2B 4478  16.644  15.499   8.318  0.0881 -0.0204  0.0735
  280loPI   C3B 4479  16.421  15.318   8.174 -0.2065 -0.0131  0.0663
  280loPI   C4B 4480  16.333  15.251   7.737  0.0175  0.1772 -0.1624
  281loPI    C1 4481  13.246   5.444   9.682 -0.2102 -0.1963 -0.1405
  281loPI    C2 4482  13.295   5.581  10.055 -0.0333 -0.2959 -0.1263
  281loPI    C3 4483  12.929   5.564   9.894 -0.0712  0.0912 -0.0900
  281loPI   PO4 4484  13.444   5.583   9.457 -0.0397 -0.1161  0.1644
  281loPI   GL1 4485  13.831   5.405   9.133 -0.0073 -0.1108 -0.0388
  281loPI   GL2 4486  13.497   5.503   8.986 -0.1069 -0.1816  0.0638
  281loPI   C1A 4487  14.071   5.662   8.915  0.2917 -0.0404  0.0209
  281loPI   C2A 4488  14.442   5.626   8.650  0.1717  0.4203 -0.1482
  281loPI   C3A 4489  14.677   5.463   8.352 -0.0317  0.2348  0.1198
  281loPI   C4A 4490  14.731   5.293   7.905 -0.3689  0.0492 -0.2300
  281loPI   C5A 4491  14.655   5.156   7.442 -0.1555  0.1586  0.1142
  281loPI   C6A 4492  14.503   4.742   7.474 -0.3044 -0.1667 -0.0904
  281loPI   C1B 4493  13.690   5.490   8.606  0.0017 -0.0204  0.1629
  281loPI   C2B 4494  13.966   5.763   8.314 -0.2186  0.4395  0.2549
  281loPI   C3B 4495  13.896   5.795   7.891 -0.2941 -0.3021 -0.1558
  281loPI   C4B 4496  14.065   5.919   7.428 -0.1608 -0.1000 -0.0174
  282loPI    C1 4497  12.600  11.680   9.852  0.2842 -0.3358  0.0251
  282loPI    C2 4498  12.447  11.443  10.136  0.0260  0.0788  0.2412
  282loPI    C3 4499  12.724  11.717  10.230  0.0607  0.1073  0.0613
  282loPI   PO4 4500  12.627  11.600   9.618 -0.0639  0.0245 -0.0390
  282loPI   GL1 4501  12.427  11.668   9.206 -0.0655  0.1420  0.1353
  282loPI   GL2 4502  12.343  11.992   9.151 -0.0916  0.0620 -0.0706
  282loPI   C1A 4503  12.635  11.489   8.794 -0.1609 -0.4766  0.0959
  282loPI   C2A 4504  12.795  11.313   8.434  0.1380 -0.1023  0.0938
  282loPI   C3A 4505  12.820  11.063   8.139  0.0241  0.3624  0.2888
  282loPI   C4A 4506  12.890  11.032   7.735  0.1216  0.0875  0.0577
  282loPI   C5A 4507  12.745  11.378   7.564  0.1366 -0.2421  0.0400
  282loPI   C6A 4508  12.868  11.617   7.216 -0.3513  0.0143  0.0597
  282loPI   C1B 4509  12.380  11.925   8.714  0.2480 -0.1121 -0.1364
  282loPI   C2B 4510  12.392  11.644   8.348 -0.1112  0.0093  0.0749
  282loPI   C3B 4511  12.247  11.696   7.982 -0.0163  0.2881  0.2160
  282loPI   C4B 4512  11.970  11.891   7.680 -0.1015 -0.3078 -0.0873
  283loPI    C1 4513   8.963  18.324  10.326  0.1469  0.1539 -0.0981
  283loPI    C2 4514   8.822  18.347  10.700 -0.0423  0.1045 -0.1654
  283loPI    C3 4515   9.193  18.213  10.634  0.0476  0.2594  0.0153
  283loPI   PO4 4516   8.770  18.146  10.229 -0.0965 -0.0490  0.1420
  283loPI   GL1 4517   8.516  18.089   9.839  0.1218  0.0178 -0.0883
  283loPI   GL2 4518   8.560  17.800   9.704 -0.0244 -0.1435 -0.0111
  283loPI   C1A 4519   8.548  18.391   9.543 -0.1467  0.1353  0.2412
  283loPI   C2A 4520   8.684  18.575   9.141 -0.1491  0.3490 -0.2712
  283loPI   C3A 4521   8.809  18.548   8.771  0.3046 -0.2272 -0.0297
  283loPI   C4A 4522   8.928  18.645   8.327  0.0334 -0.1280 -0.2080
  283loPI   C5A 4523   9.063  18.779   7.949 -0.1007  0.4556  0.0810
  283loPI   C6A 4524   8.887  18.696   7.586 -0.0036 -0.0812 -0.0973
  283loPI   C1B 4525   8.458  17.948   9.275 -0.2142 -0.2973  0.3162
  283loPI   C2B 4526   8.522  18.160   8.959 -0.1403 -0.0237  0.0489
  283loPI   C3B 4527   8.609  17.999   8.610 -0.0869  0.0104  0.0788
  283loPI   C4B 4528   8.791  18.125   8.156  0.2506 -0.2943  0.0707
  284loPI    C1 4529  11.352  12.399   9.723 -0.1052 -0.0891  0.1745
  284loPI    C2 4530  11.654  12.562   9.928  0.2045 -0.1657 -0.2097
  284loPI    C3 4531  11.454  12.252  10.081  0.0322  0.1564  0.2384
  284loPI   PO4 4532  11.425  12.639   9.520 -0.0486  0.1226  0.0458
  284loPI   GL1 4533  11.504  12.858   9.191 -0.2897  0.4351 -0.2356
  284loPI   GL2 4534  11.815  12.725   9.147 -0.1679 -0.1444 -0.0312
  284loPI   C1A 4535  11.398  12.744   8.782 -0.0760  0.0363 -0.0019
  284loPI   C2A 4536  11.451  12.845   8.270  0.0311  0.0978 -0.0320
  284loPI   C3A 4537  11.466  13.027   7.914 -0.0884  0.0373  0.3625
  284loPI   C4A 4538  11.093  13.328   7.657 -0.1239  0.1321 -0.2505
  284loPI   C5A 4539  10.793  13.390   7.353  0.2711  0.1014 -0.0765
  284loPI   C6A 4540  10.838  13.411   6.846  0.2221 -0.0697  0.2345
  284loPI   C1B 4541  11.947  12.847   8.839  0.0907 -0.0016  0.0803
  284loPI   C2B 4542  12.231  12.986   8.580 -0.6617 -0.1115  0.0076
  284loPI   C3B 4543  12.379  12.803   8.174  0.0618  0.0399 -0.3420
  284loPI   C4B 4544  12.455  12.821   7.727 -0.0445  0.1178  0.2682
  285loPI    C1 4545  18.590   1.651   9.729 -0.1079  0.0321 -0.1437
  285loPI    C2 4546  18.696   1.330   9.516 -0.0348 -0.1573  0.1711
  285loPI    C3 4547  18.966   1.613   9.600 -0.0805 -0.0487 -0.0420
  285loPI   PO4 4548  18.448   1.798   9.639  0.3833  0.0965 -0.2949
  285loPI   GL1 4549  18.427   1.812   9.258 -0.2795  0.0798  0.3029
  285loPI   GL2 4550  18.134   1.613   9.204 -0.3086  0.1376  0.0102
  285loPI   C1A 4551  18.622   1.493   9.006  0.3478 -0.2749  0.0696
  285loPI   C2A 4552  18.612   1.474   8.622  0.2285  0.0960 -0.1045
  285loPI   C3A 4553  18.425   1.599   8.104  0.1282  0.2975  0.1791
  285loPI   C4A 4554  18.595   1.680   7.649 -0.0191 -0.2745  0.1169
  285loPI   C5A 4555  18.415   1.625   7.341 -0.2489 -0.0235 -0.0701
  285loPI   C6A 4556  18.035   1.297   7.302 -0.3152 -0.0958 -0.1273
  285loPI   C1B 4557  18.079   1.685   8.764 -0.2110  0.1368  0.2040
  285loPI   C2B 4558  18.206   1.943   8.423 -0.2842  0.1140  0.0786
  285loPI   C3B 4559  18.072   2.230   8.111 -0.0447  0.2245 -0.0789
  285loPI   C4B 4560  18.137   2.022   7.862  0.2973  0.0196  0.2886
  286loPI    C1 4561   5.239   8.906   9.835  0.2189  0.2672 -0.3161
  286loPI    C2 4562   5.387   8.552   9.945 -0.2340  0.1775  0.0308
  286loPI    C3 4563   5.635   8.854   9.862  0.1485 -0.1035  0.1203
  286loPI   PO4 4564   5.020   8.827   9.675 -0.0875  0.0259  0.2413
  286loPI   GL1 4565   4.786   8.758   9.332  0.2946  0.0781  0.3334
  286loPI   GL2 4566   4.747   8.346   9.351 -0.2193  0.2360  0.3473
  286loPI   C1A 4567   4.571   9.076   9.038 -0.0962  0.3817 -0.0235
  286loPI   C2A 4568   4.357   9.274   8.750 -0.1232 -0.0141  0.0719
  286loPI   C3A 4569   4.192   9.218   8.346  0.0973 -0.2291 -0.2362
  286loPI   C4A 4570   4.357   9.095   8.039  0.3123 -0.1233 -0.2142
  286loPI   C5A 4571   4.767   8.813   8.020  0.1556 -0.1274  0.1376
  286loPI   C6A 4572   5.256   8.637   7.803 -0.2049 -0.2084  0.1596
  286loPI   C1B 4573   5.001   8.189   9.023  0.1473  0.3221 -0.0695
  286loPI   C2B 4574   5.181   8.012   8.527  0.0387  0.0070 -0.1750
  286loPI   C3B 4575   5.413   7.747   8.183  0.0437 -0.0081  0.0765
  286loPI   C4B 4576   5.709   7.756   7.777  0.0634 -0.0217 -0.1652
  287loPI    C1 4577   4.139   0.206  10.197 -0.2145 -0.1600 -0.1454
  287loPI    C2 4578   4.251   0.127  10.573 -0.0714  0.0425 -0.1437
  287loPI    C3 4579   3.903  -0.013  10.434 -0.2409  0.1712  0.1426
  287loPI   PO4 4580   4.263   0.530  10.186  0.0753  0.0067 -0.1583
  287loPI   GL1 4581   4.380   0.655   9.720  0.0446 -0.2896  0.0254
  287loPI   GL2 4582   4.219   0.439   9.677  0.2320  0.1040 -0.1102
  287loPI   C1A 4583   4.565   0.880   9.296 -0.3623  0.0248  0.0422
  287loPI   C2A 4584   4.974   1.025   9.164  0.0072 -0.3054  0.0871
  287loPI   C3A 4585   5.275   1.112   8.795  0.0256 -0.0797 -0.2042
  287loPI   C4A 4586   5.576   0.838   8.558 -0.1938 -0.0175  0.0402
  287loPI   C5A 4587   5.908   0.671   8.128  0.3052  0.3596 -0.3232
  287loPI   C6A 4588   6.008   0.786   7.750 -0.1017  0.1380  0.4447
  287loPI   C1B 4589   4.278   0.474   9.151 -0.1882  0.2171 -0.0677
  287loPI   C2B 4590   4.262   0.400   8.732 -0.0057 -0.3085  0.2795
  287loPI   C3B 4591   4.214   0.150   8.468  0.0086  0.3458 -0.0526
  287loPI   C4B 4592   4.177  -0.150   8.109 -0.2977  0.1336 -0.0956
  288loPI    C1 4593   1.497   0.352   9.804 -0.0749  0.0705  0.0240
  288loPI    C2 4594   1.831   0.148   9.725  0.0157  0.2166  0.0255
  288loPI    C3 4595   1.612   0.056  10.047 -0.0232  0.0269 -0.0534
  288loPI   PO4 4596   1.281   0.338   9.631  0.1561 -0.1291 -0.1038
  288loPI   GL1 4597   1.258   0.234   9.208  0.2142  0.0093 -0.1148
  288loPI   GL2 4598   1.289   0.505   9.169 -0.0028  0.1090 -0.2131
  288loPI   C1A 4599   1.512   0.154   8.856  0.3256 -0.2001  0.1267
  288loPI   C2A 4600   1.231   0.182   8.452  0.0097  0.0490  0.0206
  288loPI   C3A 4601   1.054   0.079   8.081  0.1695 -0.0970 -0.2589
  288loPI   C4A 4602   1.207   0.306   7.734  0.1431 -0.1814  0.0839
  288loPI   C5A 4603   1.222   0.681   7.575 -0.2713 -0.1195 -0.0010
  288loPI   C6A 4604   1.005   0.967   7.587 -0.2683 -0.3102  0.2416
  288loPI   C1B 4605   1.139   0.618   8.740  0.1534 -0.1110  0.0013
  288loPI   C2B 4606   1.145   0.830   8.392  0.0939  0.3335 -0.5410
  288loPI   C3B 4607   1.307   0.998   8.015 -0.0198 -0.1336  0.0933
  288loPI   C4B 4608   1.538   1.146   7.707 -0.0512  0.1133  0.2634
  289loPI    C1 4609  10.497   5.772   9.906  0.2349  0.1574  0.1381
  289loPI    C2 4610  10.814   5.654  10.121  0.1257 -0.0782  0.1728
  289loPI    C3 4611  10.465   5.462  10.157 -0.0414  0.2214  0.1842
  289loPI   PO4 4612  10.563   5.833   9.624  0.0194  0.1199 -0.1332
  289loPI   GL1 4613  10.630   5.495   9.312 -0.2692 -0.3092  0.2341
  289loPI   GL2 4614  10.331   5.780   9.173 -0.1124  0.1099 -0.0341
  289loPI   C1A 4615  10.340   5.303   9.027 -0.0025  0.0171  0.1110
  289loPI   C2A 4616  10.385   5.282   8.654  0.2104 -0.0956  0.0285
  289loPI   C3A 4617  10.308   5.384   8.274 -0.2887 -0.0148  0.2691
  289loPI   C4A 4618  10.013   5.426   7.968 -0.0194 -0.0044 -0.0712
  289loPI   C5A 4619   9.928   5.098   7.621 -0.1901  0.0387  0.0832
  289loPI   C6A 4620   9.607   5.388   7.354 -0.1563 -0.0610  0.5003
  289loPI   C1B 4621  10.194   5.751   8.721 -0.1582  0.0189 -0.0793
  289loPI   C2B 4622  10.207   5.920   8.326  0.4845 -0.3448  0.3918
  289loPI   C3B 4623  10.123   5.972   7.976  0.0072  0.1332  0.1582
  289loPI   C4B 4624   9.857   6.137   7.699  0.1374 -0.3220 -0.3974
  290loPI    C1 4625  10.192   8.730   9.570  0.0315 -0.3767 -0.0745
  290loPI    C2 4626   9.935   8.735   9.264 -0.0650 -0.0698  0.0075
  290loPI    C3 4627   9.927   9.028   9.536  0.2276 -0.1743  0.1326
  290loPI   PO4 4628  10.161   8.450   9.645 -0.4062  0.1091  0.0693
  290loPI   GL1 4629  10.102   8.300   9.198 -0.3777  0.2867 -0.0556
  290loPI   GL2 4630  10.360   8.268   9.207  0.1527 -0.2107 -0.0203
  290loPI   C1A 4631  10.218   8.609   8.878 -0.0723 -0.2534 -0.0589
  290loPI   C2A 4632  10.326   8.654   8.375  0.4413  0.0107  0.1710
  290loPI   C3A 4633  10.092   8.456   8.064  0.1436  0.2916  0.0288
  290loPI   C4A 4634  10.091   8.059   7.897  0.1332  0.2882  0.4638
  290loPI   C5A 4635  10.141   7.674   7.772 -0.1666 -0.1821  0.0865
  290loPI   C6A 4636  10.439   7.353   7.627 -0.0206 -0.2659  0.0646
  290loPI   C1B 4637  10.327   8.147   8.729  0.1554 -0.2593  0.4562
  290loPI   C2B 4638  10.316   8.054   8.329  0.1708 -0.1411 -0.0797
  290loPI   C3B 4639  10.567   8.366   8.000  0.3933 -0.1314 -0.2587
  290loPI   C4B 4640  10.835   8.530   7.659 -0.3012 -0.1012 -0.0798
  291loPI    C1 4641   6.213   1.322  10.705 -0.0670  0.0162 -0.3913
  291loPI    C2 4642   5.840   1.276  10.843  0.1518 -0.0311  0.2125
  291loPI    C3 4643   5.949   1.620  10.670 -0.1735 -0.0252  0.0120
  291loPI   PO4 4644   6.242   0.924  10.517  0.1783  0.2565  0.0072
  291loPI   GL1 4645   6.507   0.826  10.114  0.1275 -0.2329  0.1317
  291loPI   GL2 4646   6.358   0.643   9.924 -0.0473 -0.2553  0.0307
  291loPI   C1A 4647   6.626   1.023   9.744  0.0025  0.1339 -0.1162
  291loPI   C2A 4648   6.890   1.125   9.352 -0.0043  0.0693 -0.1337
  291loPI   C3A 4649   7.149   0.959   9.056  0.1074  0.1208  0.1198
  291loPI   C4A 4650   7.226   1.002   8.633 -0.0238  0.2801 -0.1029
  291loPI   C5A 4651   7.215   1.356   8.345 -0.1819 -0.1696  0.0179
  291loPI   C6A 4652   7.230   1.770   8.436  0.1253 -0.0579  0.1254
  291loPI   C1B 4653   6.122   0.583   9.626  0.4333 -0.1183 -0.0070
  291loPI   C2B 4654   6.075   0.607   9.197 -0.0550  0.1855  0.2617
  291loPI   C3B 4655   6.073   0.725   8.669 -0.1075 -0.1497  0.1200
  291loPI   C4B 4656   6.383   0.694   8.200  0.1452 -0.1132 -0.0248
  292loPI    C1 4657   3.040   8.966   9.980 -0.3049 -0.0118 -0.0815
  292loPI    C2 4658   3.221   8.824  10.307 -0.1033 -0.0924 -0.2252
  292loPI    C3 4659   2.896   9.056  10.342 -0.0583 -0.0648  0.0318
  292loPI   PO4 4660   3.136   8.812   9.749  0.0463 -0.0957  0.1168
  292loPI   GL1 4661   3.149   8.834   9.340 -0.1042  0.2837 -0.1476
  292loPI   GL2 4662   2.915   8.501   9.227  0.1691  0.0888 -0.3434
  292loPI   C1A 4663   3.140   8.769   8.776  0.3382 -0.2286 -0.0941
  292loPI   C2A 4664   3.394   8.542   8.516  0.0803  0.0698  0.1494
  292loPI   C3A 4665   3.542   8.292   8.228 -0.0603  0.2406 -0.1369
  292loPI   C4A 4666   3.637   7.916   8.010 -0.2080  0.0496 -0.1150
  292loPI   C5A 4667   3.695   7.507   7.872  0.1468  0.0829 -0.1067
  292loPI   C6A 4668   3.569   7.325   7.511 -0.0133 -0.2270 -0.1357
  292loPI   C1B 4669   2.539   8.295   9.066 -0.0471 -0.0920  0.1383
  292loPI   C2B 4670   2.338   7.984   8.817 -0.0593 -0.1084  0.0185
  292loPI   C3B 4671   2.264   7.845   8.405 -0.1173 -0.0434 -0.0532
  292loPI   C4B 4672   2.239   7.726   7.931 -0.0432  0.2616  0.1478
  293loPI    C1 4673  13.011  10.848   9.801 -0.2395  0.0803  0.1373
  293loPI    C2 4674  13.345  10.774  10.008 -0.1985  0.2511  0.1333
  293loPI    C3 4675  12.992  10.647  10.146 -0.0930 -0.2612 -0.0489
  293loPI   PO4 4676  13.179  11.030   9.631  0.3652  0.2213 -0.1486
  293loPI   GL1 4677  13.327  11.154   9.229 -0.0041 -0.0346 -0.3771
  293loPI   GL2 4678  13.476  11.361   8.992 -0.0362 -0.2113 -0.0217
  293loPI   C1A 4679  13.128  11.079   8.852 -0.3111 -0.1468 -0.0228
  293loPI   C2A 4680  13.253  11.026   8.374 -0.1811 -0.2169 -0.1745
  293loPI   C3A 4681  13.418  10.877   8.007 -0.3279  0.1559 -0.1845
  293loPI   C4A 4682  13.689  10.510   7.877 -0.3250  0.0456 -0.1014
  293loPI   C5A 4683  14.079  10.314   7.707  0.0572  0.0302 -0.3427
  293loPI   C6A 4684  14.276  10.195   7.388  0.0758  0.0271 -0.1598
  293loPI   C1B 4685  13.165  11.630   8.718  0.0224  0.1911  0.0548
  293loPI   C2B 4686  13.096  11.676   8.320  0.0393  0.0591 -0.0398
  293loPI   C3B 4687  12.734  11.651   7.999 -0.1937  0.0457 -0.1615
  293loPI   C4B 4688  12.570  11.871   7.625  0.0899 -0.1970  0.0521
  294loPI    C1 4689  11.308  14.188  10.407  0.1383  0.2813 -0.1433
  294loPI    C2 4690  11.084  13.861  10.460  0.4913  0.0371 -0.1235
  294loPI    C3 4691  11.050  14.169  10.712 -0.0522  0.1408 -0.3101
  294loPI   PO4 4692  11.354  14.180  10.071 -0.0722 -0.0249  0.1487
  294loPI   GL1 4693  11.451  14.258   9.637 -0.0379  0.1045  0.1096
  294loPI   GL2 4694  11.281  14.512   9.617 -0.0585 -0.1524 -0.0876
  294loPI   C1A 4695  11.409  14.259   9.146 -0.4179 -0.0529  0.0633
  294loPI   C2A 4696  11.369  14.216   8.678 -0.1057  0.3287 -0.2132
  294loPI   C3A 4697  11.328  14.145   8.332  0.1630 -0.2762 -0.0414
  294loPI   C4A 4698  11.359  14.117   8.048 -0.2190 -0.1807 -0.1090
  294loPI   C5A 4699  11.459  14.422   7.702 -0.0969 -0.0802 -0.0415
  294loPI   C6A 4700  11.806  14.546   7.399 -0.1157  0.0906  0.0870
  294loPI   C1B 4701  11.321  14.739   9.295  0.0426  0.0351 -0.2215
  294loPI   C2B 4702  11.275  14.682   8.938 -0.0224 -0.1372  0.1919
  294loPI   C3B 4703  11.216  14.675   8.507 -0.0911  0.1065 -0.1644
  294loPI   C4B 4704  11.333  14.647   8.100 -0.1450  0.0129 -0.1654
  295loPI    C1 4705  16.149  11.370  10.259 -0.0059  0.1270 -0.0008
  295loPI    C2 4706  16.423  11.466  10.534  0.1237 -0.1468 -0.0316
  295loPI    C3 4707  16.116  11.229  10.632 -0.1124  0.1689  0.0059
  295loPI   PO4 4708  16.278  11.266  10.022  0.2531  0.1859  0.0244
  295loPI   GL1 4709  16.377  11.294   9.633 -0.1567 -0.1335 -0.1807
  295loPI   GL2 4710  16.675  11.458   9.654 -0.1623  0.0591 -0.3481
  295loPI   C1A 4711  16.019  11.349   9.254 -0.1687  0.1649  0.1365
  295loPI   C2A 4712  15.865  11.556   8.942 -0.2239 -0.1390  0.2413
  295loPI   C3A 4713  15.846  11.557   8.515  0.0352  0.1632  0.0151
  295loPI   C4A 4714  15.950  11.460   8.115  0.4029 -0.1130 -0.0437
  295loPI   C5A 4715  15.938  11.769   7.808 -0.0312  0.1191  0.0445
  295loPI   C6A 4716  15.756  12.079   7.512 -0.0078 -0.0337  0.3167
  295loPI   C1B 4717  16.688  11.477   9.202 -0.1696 -0.1493 -0.1782
  295loPI   C2B 4718  16.906  11.500   8.771 -0.1731 -0.0055 -0.1781
  295loPI   C3B 4719  17.002  11.406   8.313 -0.0227  0.1827 -0.1002
  295loPI   C4B 4720  16.780  11.392   7.912 -0.0606 -0.0273  0.0949
  296loPI    C1 4721   9.143   2.639  10.342 -0.0293 -0.0724 -0.1018
  296loPI    C2 4722   8.769   2.759  10.420 -0.0880 -0.1884 -0.2023
  296loPI    C3 4723   9.057   2.812  10.692 -0.1499  0.0191 -0.1758
  296loPI   PO4 4724   9.111   2.641  10.097 -0.2757  0.4695  0.2852
  296loPI   GL1 4725   9.032   2.433   9.706 -0.2873  0.0028 -0.1405
  296loPI   GL2 4726   8.970   2.148   9.696  0.1231  0.0740 -0.3474
  296loPI   C1A 4727   8.924   2.535   9.266 -0.1057  0.2957 -0.0058
  296loPI   C2A 4728   8.957   2.507   8.869  0.1010  0.0884 -0.0308
  296loPI   C3A 4729   8.909   2.430   8.541  0.0804  0.2181 -0.0351
  296loPI   C4A 4730   8.908   2.054   8.347 -0.0533 -0.2583  0.4326
  296loPI   C5A 4731   8.655   1.720   8.062  0.1490  0.0834 -0.2194
  296loPI   C6A 4732   8.458   1.459   7.637  0.1515 -0.5026 -0.2367
  296loPI   C1B 4733   8.821   2.078   9.351  0.1420 -0.2260  0.0731
  296loPI   C2B 4734   8.863   1.970   8.868  0.0252 -0.1268 -0.2010
  296loPI   C3B 4735   8.518   1.980   8.635  0.2171 -0.2844  0.2080
  296loPI   C4B 4736   8.353   2.075   8.276 -0.4485 -0.5210 -0.0726
  297loPI    C1 4737   9.147  14.932  10.172  0.2311 -0.1648 -0.0838
  297loPI    C2 4738   9.074  15.292  10.330 -0.0320 -0.1840 -0.1554
  297loPI    C3 4739   9.327  15.041  10.512 -0.1506 -0.1158  0.1087
  297loPI   PO4 4740   9.215  15.033   9.881 -0.4362  0.1143  0.0246
  297loPI   GL1 4741   8.922  15.009   9.546  0.0643 -0.0665  0.1433
  297loPI   GL2 4742   9.055  15.283   9.369 -0.5541  0.0719  0.1904
  297loPI   C1A 4743   8.764  14.957   9.110 -0.2080  0.1640  0.2284
  297loPI   C2A 4744   8.444  14.763   8.854 -0.2329  0.0370  0.0620
  297loPI   C3A 4745   8.410  14.621   8.383 -0.0107 -0.0436  0.0863
  297loPI   C4A 4746   8.416  14.665   7.924  0.0338 -0.1962 -0.0326
  297loPI   C5A 4747   8.464  14.927   7.578 -0.1168  0.1702  0.4087
  297loPI   C6A 4748   8.290  15.298   7.527  0.5167 -0.0387 -0.0536
  297loPI   C1B 4749   8.955  15.442   8.949 -0.0819  0.0915 -0.1790
  297loPI   C2B 4750   8.821  15.640   8.537 -0.0954 -0.0772  0.0664
  297loPI   C3B 4751   8.793  15.755   8.065  0.0661  0.2494 -0.0006
  297loPI   C4B 4752   8.659  15.447   7.796 -0.1979  0.1046  0.2013
  298loPI    C1 4753  16.434  18.259   9.723  0.0487  0.1222  0.1749
  298loPI    C2 4754  16.757  18.376   9.928  0.0219  0.0335  0.2689
  298loPI    C3 4755  16.577  18.030  10.018  0.0535 -0.0429  0.0455
  298loPI   PO4 4756  16.467  18.312   9.472  0.2311 -0.2607 -0.1567
  298loPI   GL1 4757  16.482  18.078   9.146 -0.3095 -0.0286  0.0901
  298loPI   GL2 4758  16.612  17.777   9.031  0.2095  0.1171  0.1187
  298loPI   C1A 4759  16.277  18.194   8.754  0.0632 -0.2551  0.0308
  298loPI   C2A 4760  16.109  18.238   8.294 -0.0661  0.0366  0.2732
  298loPI   C3A 4761  15.985  18.249   7.796 -0.2194  0.3222 -0.0915
  298loPI   C4A 4762  15.709  18.132   7.511  0.3571  0.2119  0.4416
  298loPI   C5A 4763  15.826  18.094   7.064  0.0623 -0.2145  0.1879
  298loPI   C6A 4764  15.782  18.014   6.649 -0.0063  0.4346 -0.1858
  298loPI   C1B 4765  16.577  17.572   8.664 -0.2526 -0.1344  0.2732
  298loPI   C2B 4766  16.688  17.795   8.295  0.0121 -0.2019  0.1088
  298loPI   C3B 4767  16.537  18.068   7.910  0.1845 -0.3317 -0.0598
  298loPI   C4B 4768  16.392  18.488   7.771  0.2108 -0.2378 -0.0264
  299loPI    C1 4769  12.710   1.226  10.256  0.1503  0.0600 -0.3196
  299loPI    C2 4770  12.694   1.465  10.576 -0.0108 -0.0584 -0.2373
  299loPI    C3 4771  12.862   1.595  10.237  0.2799  0.0215 -0.0662
  299loPI   PO4 4772  12.465   1.093  10.161 -0.2619  0.2253  0.0431
  299loPI   GL1 4773  12.415   1.061   9.691  0.0919 -0.0657  0.0526
  299loPI   GL2 4774  12.279   1.264   9.532 -0.2713  0.1851  0.1333
  299loPI   C1A 4775  12.426   0.724   9.434  0.1743  0.2975  0.2527
  299loPI   C2A 4776  12.191   0.763   9.055  0.0066  0.0116  0.1849
  299loPI   C3A 4777  11.983   0.612   8.622  0.0541  0.0021 -0.1380
  299loPI   C4A 4778  12.048   0.487   8.261  0.0103 -0.1452  0.1915
  299loPI   C5A 4779  11.988   0.397   7.801  0.0024  0.1280 -0.0077
  299loPI   C6A 4780  11.732   0.336   7.502 -0.0534  0.0601  0.2541
  299loPI   C1B 4781  12.347   1.388   9.024  0.3399  0.0365 -0.0371
  299loPI   C2B 4782  12.027   1.439   8.696  0.1676  0.0873  0.0203
  299loPI   C3B 4783  11.545   1.577   8.726 -0.1892  0.2534 -0.0310
  299loPI   C4B 4784  11.127   1.659   8.826 -0.3699  0.1398 -0.2550
  300loPI    C1 4785   7.649   9.026   9.665 -0.1846 -0.2644 -0.0347
  300loPI    C2 4786   7.756   8.959  10.045 -0.1740 -0.0583 -0.0001
  300loPI    C3 4787   7.480   8.728   9.870 -0.1586 -0.1711  0.1240
  300loPI   PO4 4788   7.970   9.103   9.534 -0.3285  0.1948 -0.2421
  300loPI   GL1 4789   8.246   9.283   9.225 -0.1082  0.1474  0.1692
  300loPI   GL2 4790   8.178   9.584   9.221  0.0716 -0.0367 -0.0045
  300loPI   C1A 4791   8.480   9.452   8.889  0.0426 -0.1350 -0.2817
  300loPI   C2A 4792   8.743   9.480   8.663  0.0391  0.3109  0.0085
  300loPI   C3A 4793   8.715   9.568   8.290  0.2642  0.0122  0.1291
  300loPI   C4A 4794   8.807   9.525   7.815  0.0537  0.0406  0.1827
  300loPI   C5A 4795   8.506   9.479   7.451  0.2382  0.0229 -0.0361
  300loPI   C6A 4796   8.296   9.344   7.027  0.1704  0.2017 -0.2447
  300loPI   C1B 4797   8.074   9.243   8.746 -0.1386 -0.1726 -0.5795
  300loPI   C2B 4798   8.350   9.137   8.394  0.2451 -0.2286  0.0031
  300loPI   C3B 4799   8.386   9.294   7.903 -0.2042  0.1770  0.0089
  300loPI   C4B 4800   8.018   9.225   7.609  0.3168  0.0627 -0.0296
  301loPI    C1 4801   1.950   3.167  10.159  0.0037  0.0410  0.3027
  301loPI    C2 4802   2.042   3.280  10.531 -0.0849  0.2074  0.2749
  301loPI    C3 4803   1.808   3.512  10.303 -0.2157 -0.0014  0.1935
  301loPI   PO4 4804   2.208   2.997  10.114 -0.3406  0.0003 -0.0068
  301loPI   GL1 4805   2.360   3.148   9.695  0.2544 -0.0507 -0.3622
  301loPI   GL2 4806   2.285   3.391   9.438 -0.3155  0.3259  0.2397
  301loPI   C1A 4807   2.397   2.954   9.316 -0.0748  0.3083  0.2027
  301loPI   C2A 4808   2.213   2.824   9.016 -0.1003  0.0506 -0.1109
  301loPI   C3A 4809   2.046   2.586   8.816 -0.2038 -0.1096 -0.0580
  301loPI   C4A 4810   1.771   2.442   8.540 -0.1103 -0.3183  0.2023
  301loPI   C5A 4811   1.713   2.591   8.103 -0.2288 -0.0525  0.0474
  301loPI   C6A 4812   1.505   2.762   7.745  0.2471  0.3161 -0.0834
  301loPI   C1B 4813   2.066   3.300   9.022 -0.2111  0.2255 -0.1481
  301loPI   C2B 4814   1.836   3.077   8.799 -0.2047  0.1309 -0.0489
  301loPI   C3B 4815   2.061   2.935   8.365  0.1813 -0.1323 -0.2703
  301loPI   C4B 4816   2.305   2.804   8.056  0.3048  0.0913 -0.2106
  302loPI    C1 4817  18.453   3.411   9.804  0.0190  0.3705 -0.1952
  302loPI    C2 4818  18.658   3.435  10.147 -0.0009 -0.0705 -0.1464
  302loPI    C3 4819  18.266   3.356  10.154 -0.0173 -0.0027 -0.2689
  302loPI   PO4 4820  18.586   3.252   9.570 -0.0009  0.0416  0.0433
  302loPI   GL1 4821  18.866   3.374   9.391 -0.1820  0.2057 -0.1181
  302loPI   GL2 4822  18.714   3.626   9.278  0.1930  0.0525  0.4111
  302loPI   C1A 4823  18.891   3.266   8.996 -0.0785  0.0799  0.1118
  302loPI   C2A 4824  18.938   3.175   8.549  0.1756 -0.0396  0.3841
  302loPI   C3A 4825  19.133   3.458   8.230  0.1937  0.1106 -0.1048
  302loPI   C4A 4826  19.536   3.484   7.915 -0.0643 -0.1265  0.0354
  302loPI   C5A 4827  20.014   3.618   7.941 -0.1722  0.0021  0.1929
  302loPI   C6A 4828  20.484   3.673   7.927 -0.2350  0.3435  0.1756
  302loPI   C1B 4829  18.502   3.678   8.965 -0.0536  0.0359 -0.0783
  302loPI   C2B 4830  18.493   3.628   8.586  0.2542 -0.0247 -0.0639
  302loPI   C3B 4831  18.670   3.533   8.226 -0.0160 -0.3187  0.0604
  302loPI   C4B 4832  18.807   3.461   7.847  0.4116  0.0946  0.1742
  303loPI    C1 4833  15.101   2.607  10.128  0.2254  0.0259  0.2957
  303loPI    C2 4834  15.256   2.241  10.174  0.2191 -0.0769 -0.3919
  303loPI    C3 4835  15.490   2.545  10.059  0.2308  0.1547  0.2064
  303loPI   PO4 4836  14.940   2.713   9.878 -0.1482 -0.0677 -0.0113
  303loPI   GL1 4837  14.746   2.815   9.442  0.1979  0.1731  0.2067
  303loPI   GL2 4838  14.682   2.524   9.522 -0.2281  0.0897  0.0271
  303loPI   C1A 4839  14.604   2.673   8.996 -0.1654 -0.1440 -0.1386
  303loPI   C2A 4840  14.816   2.795   8.565  0.0816 -0.1050  0.0977
  303loPI   C3A 4841  15.294   2.948   8.433  0.0421  0.0507  0.2358
  303loPI   C4A 4842  15.671   2.784   8.546 -0.2901  0.0286  0.1730
  303loPI   C5A 4843  16.063   2.787   8.783  0.2301  0.0902  0.0019
  303loPI   C6A 4844  16.244   3.184   8.888  0.0011 -0.1163  0.1162
  303loPI   C1B 4845  14.583   2.151   9.172 -0.1307  0.1086 -0.2019
  303loPI   C2B 4846  14.710   1.804   8.826 -0.3311  0.0505 -0.1620
  303loPI   C3B 4847  14.795   1.762   8.363 -0.1562  0.2300 -0.1078
  303loPI   C4B 4848  14.981   1.943   8.025  0.1244  0.0885 -0.0654
  304loPI    C1 4849  10.394  11.348   9.491  0.0712 -0.1947 -0.0174
  304loPI    C2 4850  10.148  11.640   9.373 -0.0292 -0.2353  0.0893
  304loPI    C3 4851  10.315  11.653   9.736  0.1908 -0.1672 -0.0125
  304loPI   PO4 4852  10.552  11.323   9.375  0.4955  0.0669  0.3679
  304loPI   GL1 4853  10.654  11.049   9.113  0.1143 -0.3985  0.0565
  304loPI   GL2 4854  10.969  11.209   9.126  0.2659  0.0943 -0.2759
  304loPI   C1A 4855  10.726  11.075   8.620  0.1752 -0.1344  0.0053
  304loPI   C2A 4856  10.684  11.345   8.218  0.0234 -0.0124  0.1452
  304loPI   C3A 4857  10.472  11.465   7.903  0.1152  0.1274 -0.2202
  304loPI   C4A 4858  10.225  11.502   7.658 -0.0763  0.2004  0.1572
  304loPI   C5A 4859   9.955  11.536   7.301  0.3457 -0.2538  0.0377
  304loPI   C6A 4860   9.643  11.550   7.012 -0.1145 -0.4244  0.0949
  304loPI   C1B 4861  11.032  11.464   8.756  0.0210  0.3039 -0.0362
  304loPI   C2B 4862  11.115  11.429   8.397 -0.1401  0.2852 -0.0693
  304loPI   C3B 4863  11.058  11.809   7.998 -0.1403 -0.0321  0.0473
  304loPI   C4B 4864  10.790  12.128   7.905  0.0081 -0.0151  0.1002
  305loPI    C1 4865  15.847   7.670   9.561  0.1339  0.0607  0.0052
  305loPI    C2 4866  16.243   7.659   9.504  0.1442  0.2199  0.0423
  305loPI    C3 4867  16.093   7.640   9.875  0.1210  0.2537  0.0346
  305loPI   PO4 4868  15.699   7.972   9.585 -0.1621  0.3656 -0.1093
  305loPI   GL1 4869  15.334   8.193   9.402  0.0396  0.1411  0.1458
  305loPI   GL2 4870  15.132   7.861   9.385  0.1227  0.0840  0.1435
  305loPI   C1A 4871  15.360   8.512   9.029 -0.1658  0.2081 -0.3216
  305loPI   C2A 4872  15.432   8.627   8.618 -0.0132 -0.1598  0.3328
  305loPI   C3A 4873  15.483   8.642   8.185 -0.0432  0.0236  0.0238
  305loPI   C4A 4874  15.557   8.805   7.841 -0.0753 -0.1845  0.0654
  305loPI   C5A 4875  15.649   9.102   7.514  0.1590 -0.0226 -0.2775
  305loPI   C6A 4876  15.206   9.359   7.414 -0.1553 -0.4069 -0.0452
  305loPI   C1B 4877  15.208   7.932   8.978  0.1089 -0.3410  0.0231
  305loPI   C2B 4878  15.218   8.141   8.609  0.2766 -0.0872  0.3278
  305loPI   C3B 4879  15.097   8.301   8.231  0.0778 -0.0562  0.0745
  305loPI   C4B 4880  14.826   8.460   7.888  0.0393  0.0132 -0.0892
  306loPI    C1 4881  13.639   2.349  10.037  0.0031  0.0720 -0.1568
  306loPI    C2 4882  13.298   2.284  10.235  0.2050  0.1014  0.2098
  306loPI    C3 4883  13.345   2.140   9.865 -0.1507 -0.0197  0.2076
  306loPI   PO4 4884  13.762   2.605   9.843  0.0750  0.0054  0.0161
  306loPI   GL1 4885  14.064   2.386   9.606 -0.1225  0.0824  0.1013
  306loPI   GL2 4886  13.656   2.448   9.397  0.1292  0.1140 -0.1182
  306loPI   C1A 4887  14.170   2.635   9.184  0.2918  0.1166 -0.0424
  306loPI   C2A 4888  14.135   2.643   8.796  0.0270 -0.0629 -0.0718
  306loPI   C3A 4889  14.361   2.662   8.472 -0.2119  0.3370  0.0258
  306loPI   C4A 4890  14.448   2.562   8.016 -0.0595 -0.1107  0.0783
  306loPI   C5A 4891  14.358   2.329   7.672  0.4126 -0.0101  0.0411
  306loPI   C6A 4892  14.612   2.118   7.573 -0.6314  0.0707 -0.3472
  306loPI   C1B 4893  13.738   2.567   8.982  0.2979  0.0059  0.0924
  306loPI   C2B 4894  13.671   2.350   8.618 -0.0292 -0.0077  0.1379
  306loPI   C3B 4895  13.614   1.976   8.325 -0.2176 -0.2383  0.0241
  306loPI   C4B 4896  13.420   1.974   7.946 -0.0042 -0.1230 -0.1575
  307loPI    C1 4897   0.402   5.426  10.513 -0.0803 -0.1488 -0.3578
  307loPI    C2 4898   0.667   5.725  10.527 -0.1462 -0.0897 -0.3706
  307loPI    C3 4899   0.755   5.372  10.693 -0.1001 -0.0384 -0.2854
  307loPI   PO4 4900   0.350   5.408  10.213 -0.0898 -0.0197  0.3622
  307loPI   GL1 4901   0.246   5.447   9.769  0.3468 -0.0895 -0.3484
  307loPI   GL2 4902   0.070   5.617   9.582  0.1682 -0.2170  0.0093
  307loPI   C1A 4903   0.372   5.403   9.275 -0.0252  0.0030  0.1375
  307loPI   C2A 4904   0.468   5.327   8.843 -0.1086  0.0606  0.1228
  307loPI   C3A 4905   0.362   5.362   8.373  0.3354  0.2364 -0.0197
  307loPI   C4A 4906   0.380   5.141   7.928  0.0400 -0.2301  0.0140
  307loPI   C5A 4907   0.242   5.060   7.507 -0.2118  0.0469 -0.0810
  307loPI   C6A 4908  -0.090   4.893   7.260  0.1248 -0.4469  0.0851
  307loPI   C1B 4909  -0.211   5.752   9.386  0.0563 -0.4036  0.4041
  307loPI   C2B 4910  -0.382   5.782   8.963  0.1421  0.1816  0.1995
  307loPI   C3B 4911  -0.314   5.655   8.607 -0.0427  0.0323 -0.0808
  307loPI   C4B 4912  -0.322   5.769   8.254  0.0600 -0.0772 -0.1313
  308loPI    C1 4913   4.301   7.432   9.724  0.0383  0.1057  0.2128
  308loPI    C2 4914   4.480   7.628  10.023  0.0839 -0.2765  0.4433
  308loPI    C3 4915   4.179   7.377  10.101 -0.1509 -0.1026  0.1234
  308loPI   PO4 4916   4.303   7.611   9.522  0.0422 -0.1611 -0.1185
  308loPI   GL1 4917   4.109   7.867   9.302 -0.1164  0.2119  0.0028
  308loPI   GL2 4918   4.120   7.628   9.071 -0.2271  0.1022  0.0636
  308loPI   C1A 4919   4.431   8.078   9.058  0.2824  0.2122 -0.0127
  308loPI   C2A 4920   4.682   7.925   8.731 -0.3054 -0.4118  0.1470
  308loPI   C3A 4921   4.793   7.795   8.358 -0.0487  0.1229 -0.0938
  308loPI   C4A 4922   4.776   7.874   7.964 -0.1603  0.0929 -0.2193
  308loPI   C5A 4923   4.690   8.274   7.618  0.2483  0.1163  0.2879
  308loPI   C6A 4924   4.899   8.583   7.435 -0.0502  0.2862  0.1006
  308loPI   C1B 4925   4.391   7.539   8.639  0.0878  0.1908 -0.2137
  308loPI   C2B 4926   4.553   7.404   8.270  0.0252 -0.0356  0.0219
  308loPI   C3B 4927   4.674   7.088   7.859  0.3041  0.1036  0.4483
  308loPI   C4B 4928   4.572   6.721   7.645 -0.0410  0.3123  0.0375
  309loPI    C1 4929  10.701   1.543  10.562  0.0158 -0.0884 -0.4487
  309loPI    C2 4930  10.873   1.894  10.649 -0.1679 -0.0876 -0.0650
  309loPI    C3 4931  11.057   1.551  10.745 -0.1512 -0.0927 -0.1150
  309loPI   PO4 4932  10.634   1.627  10.246  0.0797 -0.0809 -0.0897
  309loPI   GL1 4933  10.702   1.624   9.796 -0.1584 -0.1084  0.0860
  309loPI   GL2 4934  10.528   1.864   9.833  0.0013 -0.0531 -0.0247
  309loPI   C1A 4935  10.616   1.474   9.318  0.1195  0.0493 -0.0234
  309loPI   C2A 4936  10.626   1.513   8.828  0.2175 -0.1805 -0.0801
  309loPI   C3A 4937  10.857   1.452   8.490  0.0055 -0.1583  0.3099
  309loPI   C4A 4938  11.196   1.460   8.181 -0.0348 -0.0509  0.2558
  309loPI   C5A 4939  11.509   1.224   7.916  0.1486  0.0074 -0.1822
  309loPI   C6A 4940  11.672   0.833   7.762 -0.3552  0.1417 -0.1214
  309loPI   C1B 4941  10.750   1.946   9.359  0.2374  0.0139  0.0511
  309loPI   C2B 4942  10.728   1.954   9.000  0.0280 -0.1758 -0.1171
  309loPI   C3B 4943  10.715   1.967   8.547  0.0455  0.0978 -0.2129
  309loPI   C4B 4944  11.173   1.896   8.312  0.0617  0.1629  0.2476
  310loPI    C1 4945   8.042   3.393  10.388  0.3130 -0.1629  0.0896
  310loPI    C2 4946   8.001   3.196  10.734 -0.0144  0.2352  0.2867
  310loPI    C3 4947   8.021   3.595  10.733 -0.1072  0.2435 -0.1631
  310loPI   PO4 4948   7.855   3.310  10.278 -0.1682 -0.2797 -0.1182
  310loPI   GL1 4949   7.725   2.973   9.993 -0.0670  0.2562  0.1232
  310loPI   GL2 4950   7.481   2.830  10.076 -0.1569  0.2394 -0.2998
  310loPI   C1A 4951   7.804   2.975   9.543  0.3865  0.1523  0.3620
  310loPI   C2A 4952   7.734   2.670   9.241 -0.0288 -0.2720  0.0716
  310loPI   C3A 4953   7.809   2.479   8.804  0.2922 -0.1925 -0.1128
  310loPI   C4A 4954   8.012   2.132   8.597 -0.0502  0.2208  0.2379
  310loPI   C5A 4955   8.084   1.705   8.686 -0.0338 -0.0126 -0.1885
  310loPI   C6A 4956   8.058   1.361   8.861 -0.4383  0.3331 -0.0576
  310loPI   C1B 4957   7.592   2.553   9.724  0.1831  0.0850  0.0679
  310loPI   C2B 4958   7.876   2.329   9.612 -0.2084 -0.0381  0.0943
  310loPI   C3B 4959   8.009   2.155   9.186 -0.0041  0.3416  0.3506
  310loPI   C4B 4960   8.337   1.896   9.126  0.0357 -0.2252 -0.1340
  311loPI    C1 4961   0.248   8.466   9.586  0.0280 -0.0553  0.1278
  311loPI    C2 4962   0.288   8.428   9.982 -0.0289 -0.1737  0.1230
  311loPI    C3 4963   0.227   8.789   9.820 -0.0158 -0.1263  0.2228
  311loPI   PO4 4964   0.550   8.378   9.534 -0.2281 -0.1299 -0.0033
  311loPI   GL1 4965   0.491   8.134   9.252 -0.0901  0.1424  0.2941
  311loPI   GL2 4966   0.541   7.815   9.255 -0.0833  0.1759  0.2075
  311loPI   C1A 4967   0.428   7.913   8.778 -0.1016  0.0251  0.2375
  311loPI   C2A 4968   0.147   7.932   8.443 -0.0314 -0.0893 -0.3977
  311loPI   C3A 4969   0.016   8.269   8.207  0.1141 -0.3319  0.0908
  311loPI   C4A 4970   0.068   8.580   7.885  0.3609 -0.0294  0.2113
  311loPI   C5A 4971   0.534   8.712   7.813 -0.0026  0.0810 -0.0254
  311loPI   C6A 4972   0.674   8.619   7.468  0.0726 -0.0421  0.0533
  311loPI   C1B 4973   0.854   7.924   8.969 -0.1337 -0.1963 -0.0003
  311loPI   C2B 4974   0.955   8.098   8.508 -0.1177  0.2937 -0.4377
  311loPI   C3B 4975   0.891   8.140   8.021 -0.0500  0.0267 -0.1122
  311loPI   C4B 4976   0.781   8.105   7.566  0.0688 -0.3530 -0.0125
  312loPI    C1 4977   7.023  13.337  10.067 -0.0040 -0.1146 -0.2131
  312loPI    C2 4978   7.306  13.571   9.908 -0.0437 -0.0193 -0.1448
  312loPI    C3 4979   7.022  13.730  10.140  0.0622 -0.1685  0.0909
  312loPI   PO4 4980   7.079  12.958   9.975  0.2332 -0.0607 -0.1388
  312loPI   GL1 4981   7.222  12.778   9.497  0.0741 -0.1305  0.0650
  312loPI   GL2 4982   7.003  12.734   9.265 -0.4130  0.0123 -0.0928
  312loPI   C1A 4983   7.447  13.022   9.090  0.1421 -0.1003  0.3594
  312loPI   C2A 4984   7.421  12.794   8.648  0.1843 -0.1199  0.1131
  312loPI   C3A 4985   7.462  12.658   8.257  0.0010 -0.1789  0.0069
  312loPI   C4A 4986   7.618  12.651   7.841 -0.1480  0.1396  0.0735
  312loPI   C5A 4987   7.685  12.800   7.424  0.2478  0.2873  0.2124
  312loPI   C6A 4988   7.330  12.887   7.207  0.1970 -0.4948  0.1385
  312loPI   C1B 4989   6.884  12.973   8.959  0.2767 -0.5692 -0.3849
  312loPI   C2B 4990   6.681  12.944   8.586  0.2518 -0.1153  0.1118
  312loPI   C3B 4991   6.593  12.894   8.146  0.0999 -0.1807  0.0566
  312loPI   C4B 4992   6.261  12.709   7.844 -0.1854  0.2466 -0.1150
  313loPI    C1 4993   3.546   9.829  10.083 -0.2182 -0.2905  0.0031
  313loPI    C2 4994   3.798   9.589  10.280  0.1693  0.0656 -0.0457
  313loPI    C3 4995   3.757   9.971  10.392 -0.3394  0.0197 -0.0526
  313loPI   PO4 4996   3.582   9.677   9.770  0.0904 -0.1674  0.1868
  313loPI   GL1 4997   3.660   9.431   9.286 -0.0153  0.4273 -0.2273
  313loPI   GL2 4998   3.344   9.690   9.268  0.2935  0.1974  0.1612
  313loPI   C1A 4999   3.581   9.312   8.993  0.0311 -0.1716 -0.4179
  313loPI   C2A 5000   3.653   9.113   8.557  0.0765  0.4204  0.3710
  313loPI   C3A 5001   3.675   8.895   8.110  0.0628  0.0806 -0.0938
  313loPI   C4A 5002   3.604   8.652   7.854  0.1387 -0.1120  0.0350
  313loPI   C5A 5003   3.543   8.279   7.637 -0.1710 -0.2313  0.3005
  313loPI   C6A 5004   3.518   7.879   7.516 -0.3260 -0.1176  0.0499
  313loPI   C1B 5005   3.605   9.831   8.957  0.1543 -0.0014 -0.0881
  313loPI   C2B 5006   3.752   9.602   8.571 -0.0543  0.0179 -0.2865
  313loPI   C3B 5007   3.574   9.558   8.216 -0.1428  0.0956  0.1646
  313loPI   C4B 5008   3.385   9.334   7.801 -0.0658  0.2158 -0.0787
  314loPI    C1 5009  18.977  17.386   9.572  0.0457 -0.3545  0.0795
  314loPI    C2 5010  18.909  17.223   9.931 -0.0724 -0.1819  0.1367
  314loPI    C3 5011  18.896  17.620   9.886 -0.1407 -0.2073 -0.0764
  314loPI   PO4 5012  18.834  17.273   9.401  0.0724 -0.0496  0.2718
  314loPI   GL1 5013  18.840  17.189   8.983 -0.1948 -0.0521  0.3606
  314loPI   GL2 5014  18.964  16.988   8.813 -0.2405  0.1960 -0.0225
  314loPI   C1A 5015  18.842  17.455   8.608 -0.0010  0.1301  0.2567
  314loPI   C2A 5016  18.922  17.498   8.265  0.0086 -0.1360 -0.3835
  314loPI   C3A 5017  18.875  17.604   7.806  0.0106  0.1193  0.0931
  314loPI   C4A 5018  18.994  17.805   7.440  0.2135  0.3757 -0.1401
  314loPI   C5A 5019  19.183  17.908   6.977  0.0536 -0.4915  0.0047
  314loPI   C6A 5020  18.955  18.136   6.625 -0.1351  0.1519 -0.0954
  314loPI   C1B 5021  18.692  16.864   8.423 -0.4156 -0.3798  0.1192
  314loPI   C2B 5022  18.637  16.630   8.027  0.1374 -0.1270 -0.3760
  314loPI   C3B 5023  18.699  16.666   7.569  0.3547  0.5009  0.1347
  314loPI   C4B 5024  18.623  16.455   7.187  0.1553  0.0972 -0.0239
  315loPI    C1 5025   6.787   4.371  10.201  0.0445  0.0120  0.1133
  315loPI    C2 5026   7.023   4.694  10.191 -0.1018  0.1231  0.2079
  315loPI    C3 5027   7.050   4.436  10.495 -0.0329  0.0825  0.1675
  315loPI   PO4 5028   6.789   4.237  10.042 -0.1014 -0.0328  0.3036
  315loPI   GL1 5029   6.937   4.299   9.626 -0.2552  0.0754 -0.1401
  315loPI   GL2 5030   6.802   4.500   9.635  0.3722 -0.1085 -0.0078
  315loPI   C1A 5031   6.938   4.123   9.122 -0.3444  0.3186  0.1415
  315loPI   C2A 5032   6.826   4.015   8.688 -0.0096 -0.0736  0.0203
  315loPI   C3A 5033   6.914   4.368   8.388 -0.1172  0.1645  0.1624
  315loPI   C4A 5034   7.273   4.379   8.076  0.3383 -0.4030 -0.0789
  315loPI   C5A 5035   7.499   4.108   7.944  0.0334  0.2549 -0.2336
  315loPI   C6A 5036   7.744   3.851   8.106  0.0452  0.0301 -0.0194
  315loPI   C1B 5037   6.953   4.695   9.218 -0.1443  0.1216  0.0940
  315loPI   C2B 5038   7.107   4.501   8.884 -0.0030  0.0906 -0.3464
  315loPI   C3B 5039   7.374   4.545   8.646 -0.0353  0.4126 -0.2378
  315loPI   C4B 5040   7.676   4.372   8.401 -0.0494 -0.1807  0.2243
  316loPI    C1 5041   2.184  13.086  10.000  0.1451  0.2238  0.0203
  316loPI    C2 5042   2.402  13.055  10.334  0.1769 -0.1400 -0.0303
  316loPI    C3 5043   2.008  12.986  10.345  0.1668 -0.0869 -0.0555
  316loPI   PO4 5044   2.334  13.194   9.840 -0.0020  0.2124 -0.4376
  316loPI   GL1 5045   2.258  13.492   9.449  0.0467  0.3001  0.0112
  316loPI   GL2 5046   2.256  13.173   9.322 -0.0687 -0.3961  0.1212
  316loPI   C1A 5047   2.073  13.550   8.984 -0.3470  0.1013  0.2470
  316loPI   C2A 5048   2.006  13.547   8.534 -0.3000 -0.2241 -0.2424
  316loPI   C3A 5049   1.955  13.529   8.193  0.0203  0.1124 -0.0753
  316loPI   C4A 5050   2.050  13.224   7.934  0.2938  0.3787 -0.1389
  316loPI   C5A 5051   2.381  12.986   7.762  0.0568 -0.3717  0.0589
  316loPI   C6A 5052   2.759  12.733   7.633  0.0046 -0.1068 -0.0317
  316loPI   C1B 5053   2.347  13.090   8.948  0.0181 -0.1547  0.0246
  316loPI   C2B 5054   2.580  13.259   8.611 -0.1314  0.3704  0.2280
  316loPI   C3B 5055   2.443  13.514   8.250  0.1483  0.2018 -0.0037
  316loPI   C4B 5056   2.535  13.448   7.915 -0.0448 -0.6530  0.3757
  317loPI    C1 5057  16.228   6.596   9.763  0.1449 -0.1521 -0.0868
  317loPI    C2 5058  16.468   6.278   9.805  0.1823 -0.1132 -0.0039
  317loPI    C3 5059  16.247   6.404  10.114  0.0952 -0.1163 -0.0645
  317loPI   PO4 5060  16.029   6.605   9.523 -0.1007  0.0910  0.2100
  317loPI   GL1 5061  15.792   6.716   9.032  0.1249  0.1608  0.0557
  317loPI   GL2 5062  16.059   6.837   9.015  0.0682  0.1467  0.1453
  317loPI   C1A 5063  15.404   6.869   8.660 -0.0335 -0.1245 -0.4359
  317loPI   C2A 5064  15.237   7.203   8.573  0.2387 -0.1453 -0.0896
  317loPI   C3A 5065  15.191   7.627   8.364  0.0535 -0.2472 -0.1216
  317loPI   C4A 5066  15.199   7.828   7.969 -0.0109  0.0362 -0.0016
  317loPI   C5A 5067  14.983   8.085   7.640  0.3319 -0.1200  0.1567
  317loPI   C6A 5068  15.130   8.247   7.292 -0.1229  0.0150 -0.0626
  317loPI   C1B 5069  15.972   6.791   8.564  0.1714  0.2152  0.1724
  317loPI   C2B 5070  16.000   6.736   8.088 -0.0771  0.1125  0.1090
  317loPI   C3B 5071  15.738   6.464   7.858 -0.3136 -0.0315  0.1679
  317loPI   C4B 5072  15.695   6.346   7.509  0.1200  0.2411  0.0475
  318loPI    C1 5073   1.776   1.247   9.716  0.0567  0.1416  0.1391
  318loPI    C2 5074   1.875   1.495  10.015  0.1616  0.0103  0.2144
  318loPI    C3 5075   2.030   1.126  10.001  0.2271  0.0457 -0.0514
  318loPI   PO4 5076   1.525   1.407   9.620  0.0729  0.0035  0.0388
  318loPI   GL1 5077   1.568   1.537   9.250 -0.1390 -0.1748 -0.0830
  318loPI   GL2 5078   1.227   1.695   9.128  0.0213 -0.1037 -0.2471
  318loPI   C1A 5079   1.547   1.410   8.821 -0.0302 -0.0048 -0.0496
  318loPI   C2A 5080   1.560   1.160   8.497 -0.1977 -0.1744  0.1144
  318loPI   C3A 5081   1.609   1.428   8.176 -0.2731  0.0047  0.2946
  318loPI   C4A 5082   1.442   1.732   7.951 -0.0321 -0.3594  0.0325
  318loPI   C5A 5083   1.299   1.841   7.568  0.0549 -0.1729 -0.1325
  318loPI   C6A 5084   1.365   2.142   7.302  0.1843 -0.0137  0.0347
  318loPI   C1B 5085   1.153   1.833   8.791  0.0695  0.2908 -0.0005
  318loPI   C2B 5086   1.519   1.782   8.511  0.3499 -0.0413  0.2400
  318loPI   C3B 5087   1.689   2.029   8.232  0.0629 -0.0963 -0.4458
  318loPI   C4B 5088   1.444   2.234   7.863 -0.1079 -0.0893 -0.0233
  319loPI    C1 5089  17.839  10.458  10.166 -0.2535  0.2698 -0.1439
  319loPI    C2 5090  17.592  10.144  10.160  0.1295 -0.0429  0.0488
  319loPI    C3 5091  17.697  10.309  10.509  0.3264 -0.0232 -0.0185
  319loPI   PO4 5092  17.860  10.604   9.889  0.0792 -0.0560  0.3728
  319loPI   GL1 5093  17.537  10.579   9.597  0.0365  0.1184  0.2855
  319loPI   GL2 5094  17.449  10.238   9.710  0.1343  0.1790 -0.0384
  319loPI   C1A 5095  17.361  10.890   9.323 -0.0879  0.0398 -0.0696
  319loPI   C2A 5096  17.295  10.986   8.974  0.3130 -0.2845  0.1766
  319loPI   C3A 5097  17.264  11.008   8.603 -0.0055  0.3922  0.2445
  319loPI   C4A 5098  17.340  10.998   8.139 -0.2972  0.0404 -0.0586
  319loPI   C5A 5099  17.358  11.363   7.864 -0.1702 -0.1587  0.0820
  319loPI   C6A 5100  17.239  11.695   7.598  0.2207  0.1161  0.2796
  319loPI   C1B 5101  17.389  10.096   9.291  0.0038  0.0939 -0.4309
  319loPI   C2B 5102  17.267   9.970   8.882 -0.0493 -0.1479  0.0845
  319loPI   C3B 5103  17.351  10.084   8.484  0.1840  0.1090  0.0040
  319loPI   C4B 5104  17.550  10.021   8.143  0.2294 -0.1051 -0.0038
  320loPI    C1 5105   6.149   2.950  10.068 -0.1394  0.0715 -0.0230
  320loPI    C2 5106   6.205   2.698  10.373 -0.0369 -0.1363 -0.2109
  320loPI    C3 5107   6.476   2.982  10.296  0.0268 -0.1988 -0.2182
  320loPI   PO4 5108   6.140   2.816   9.802  0.0738 -0.0371 -0.1794
  320loPI   GL1 5109   6.553   2.631   9.512  0.0148  0.2081  0.2461
  320loPI   GL2 5110   6.353   2.446   9.523  0.3153 -0.2068  0.0938
  320loPI   C1A 5111   6.809   2.646   9.250  0.3215  0.3395  0.1479
  320loPI   C2A 5112   6.784   2.511   8.842  0.3645 -0.0252  0.0329
  320loPI   C3A 5113   6.902   2.327   8.407  0.0304  0.0059 -0.0540
  320loPI   C4A 5114   7.249   2.201   8.108 -0.2532  0.2900 -0.3205
  320loPI   C5A 5115   7.576   2.158   7.794  0.0237  0.0083 -0.3917
  320loPI   C6A 5116   7.980   2.170   7.879  0.1614  0.2115 -0.2109
  320loPI   C1B 5117   6.321   2.542   9.050  0.0018 -0.2190  0.1946
  320loPI   C2B 5118   6.059   2.387   8.730 -0.3407  0.0508 -0.1986
  320loPI   C3B 5119   6.100   2.142   8.330  0.2262 -0.0804  0.0121
  320loPI   C4B 5120   6.065   2.435   7.957  0.1583 -0.0094  0.0304
  321loPI    C1 5121  16.642   1.800   9.877 -0.4258 -0.1783  0.0593
  321loPI    C2 5122  16.608   2.164  10.041  0.2304  0.0296 -0.2355
  321loPI    C3 5123  16.812   1.877  10.231 -0.1585 -0.1458 -0.0737
  321loPI   PO4 5124  16.720   1.731   9.675  0.0267 -0.3261  0.1038
  321loPI   GL1 5125  16.771   1.831   9.267  0.2143  0.2675 -0.0795
  321loPI   GL2 5126  17.039   1.657   9.016  0.1658  0.1026 -0.1889
  321loPI   C1A 5127  16.558   1.780   8.959  0.1460  0.1043 -0.3213
  321loPI   C2A 5128  16.654   1.745   8.595 -0.1680  0.2021  0.1510
  321loPI   C3A 5129  16.742   1.758   8.221  0.1161  0.2194  0.0861
  321loPI   C4A 5130  16.690   1.909   7.768 -0.0711 -0.1265 -0.2181
  321loPI   C5A 5131  16.796   1.691   7.379 -0.1838 -0.3321  0.2148
  321loPI   C6A 5132  17.130   1.360   7.399 -0.0980  0.1760 -0.2531
  321loPI   C1B 5133  17.192   1.559   8.680  0.1136  0.1782 -0.1282
  321loPI   C2B 5134  17.252   1.709   8.195 -0.1875  0.0161  0.2214
  321loPI   C3B 5135  17.174   1.695   7.782  0.1971 -0.0548  0.2579
  321loPI   C4B 5136  17.243   1.891   7.420 -0.3836  0.1052  0.1694
  322loPI    C1 5137   3.219  16.420   9.837  0.3281 -0.1904 -0.0663
  322loPI    C2 5138   3.269  16.176  10.150  0.0050 -0.0702  0.0846
  322loPI    C3 5139   3.353  16.566  10.185 -0.0233 -0.0580  0.0181
  322loPI   PO4 5140   2.901  16.289   9.756 -0.0366  0.0512 -0.0816
  322loPI   GL1 5141   2.543  16.345   9.609 -0.2500  0.3262 -0.3775
  322loPI   GL2 5142   2.319  16.109   9.532  0.4092  0.3470  0.1612
  322loPI   C1A 5143   2.846  16.190   9.185  0.0125  0.0074  0.3227
  322loPI   C2A 5144   2.871  16.041   8.741  0.1820 -0.2407 -0.1205
  322loPI   C3A 5145   2.821  15.919   8.264  0.1255 -0.0546  0.0658
  322loPI   C4A 5146   3.041  16.026   7.998 -0.0873  0.2198 -0.0710
  322loPI   C5A 5147   3.216  16.545   8.028 -0.0250 -0.1803 -0.0119
  322loPI   C6A 5148   3.015  16.808   8.173 -0.3563 -0.0814  0.0381
  322loPI   C1B 5149   2.379  16.224   9.162  0.0245  0.2820  0.0183
  322loPI   C2B 5150   2.386  16.326   8.765 -0.3102 -0.2624 -0.0228
  322loPI   C3B 5151   2.359  16.308   8.293 -0.0686  0.2057  0.2120
  322loPI   C4B 5152   2.288  16.185   7.843 -0.0055  0.2013 -0.0151
  323loPI    C1 5153  14.864  10.224   9.776 -0.0891  0.0491  0.3115
  323loPI    C2 5154  14.956  10.239  10.165 -0.1246 -0.1238  0.3276
  323loPI    C3 5155  14.658  10.004  10.039 -0.0791 -0.1081  0.1894
  323loPI   PO4 5156  14.901  10.439   9.648  0.1432  0.1945  0.0681
  323loPI   GL1 5157  14.805  10.461   9.299 -0.2234 -0.1616  0.1911
  323loPI   GL2 5158  14.491  10.544   9.354 -0.0223  0.0173 -0.1063
  323loPI   C1A 5159  14.902  10.502   8.801  0.0182 -0.3243 -0.2033
  323loPI   C2A 5160  14.828  10.517   8.475  0.0844 -0.0246 -0.0990
  323loPI   C3A 5161  15.047  10.558   8.173 -0.0531 -0.1757  0.2202
  323loPI   C4A 5162  15.149  10.680   7.794 -0.3174  0.1351  0.0947
  323loPI   C5A 5163  15.048  10.656   7.375 -0.0979  0.1388 -0.2685
  323loPI   C6A 5164  15.011  10.495   6.949  0.2653  0.0800  0.2594
  323loPI   C1B 5165  14.410  10.596   8.943  0.2363  0.1683  0.4029
  323loPI   C2B 5166  14.433  10.846   8.573 -0.1617 -0.0751  0.2396
  323loPI   C3B 5167  14.480  10.851   8.265  0.0188 -0.0525  0.1358
  323loPI   C4B 5168  14.630  10.736   7.756 -0.0665  0.0400  0.0989
  324loPI    C1 5169  16.130  16.971  10.118 -0.0369  0.1782  0.0486
  324loPI    C2 5170  16.233  16.601  10.228  0.0778  0.0989 -0.3119
  324loPI    C3 5171  16.405  16.916  10.404  0.0835 -0.0192 -0.1020
  324loPI   PO4 5172  16.148  16.948   9.748 -0.3839  0.1547  0.0106
  324loPI   GL1 5173  16.172  16.663   9.388 -0.0045  0.4345  0.2870
  324loPI   GL2 5174  16.527  16.577   9.511  0.2502 -0.0031 -0.2382
  324loPI   C1A 5175  15.989  16.787   8.983  0.0476  0.1242  0.2166
  324loPI   C2A 5176  15.869  16.677   8.559  0.2170  0.0571  0.2226
  324loPI   C3A 5177  15.745  16.724   8.087 -0.2490 -0.1623 -0.0047
  324loPI   C4A 5178  15.319  16.838   7.809 -0.1167  0.0713  0.1227
  324loPI   C5A 5179  15.249  16.752   7.307 -0.3358 -0.1645  0.0934
  324loPI   C6A 5180  15.129  16.788   6.843  0.2086  0.1283 -0.1238
  324loPI   C1B 5181  16.551  16.558   8.987  0.3429 -0.1113 -0.2168
  324loPI   C2B 5182  16.439  16.658   8.514 -0.2480 -0.1585 -0.1061
  324loPI   C3B 5183  16.246  16.689   8.071 -0.2486  0.0491  0.3570
  324loPI   C4B 5184  16.052  17.094   8.064  0.1278 -0.1686 -0.1103
  325loPI    C1 5185  13.126   1.138  10.000 -0.0302  0.0357 -0.0403
  325loPI    C2 5186  13.113   0.924  10.337  0.4947 -0.3042 -0.2240
  325loPI    C3 5187  13.228   1.307  10.348  0.0449 -0.1691  0.0383
  325loPI   PO4 5188  13.326   1.003   9.850  0.0128 -0.0594  0.3426
  325loPI   GL1 5189  13.519   1.101   9.541 -0.1335 -0.2483 -0.1060
  325loPI   GL2 5190  13.660   0.996   9.229  0.1562  0.0934  0.0822
  325loPI   C1A 5191  13.279   1.321   9.182 -0.2814 -0.1383 -0.2790
  325loPI   C2A 5192  12.987   1.409   8.876  0.1419 -0.3942  0.0167
  325loPI   C3A 5193  12.751   1.352   8.485 -0.1914 -0.0413  0.1438
  325loPI   C4A 5194  12.324   1.502   8.219 -0.1392  0.1610  0.3922
  325loPI   C5A 5195  11.897   1.470   8.173 -0.2035 -0.2826 -0.0987
  325loPI   C6A 5196  11.554   1.808   7.951  0.0667  0.0140 -0.0857
  325loPI   C1B 5197  13.554   1.100   8.705 -0.0187 -0.0765 -0.1114
  325loPI   C2B 5198  13.334   1.181   8.242  0.5596 -0.1032  0.2000
  325loPI   C3B 5199  12.986   1.172   7.928 -0.0084  0.3782  0.2215
  325loPI   C4B 5200  12.671   0.902   7.762  0.2298 -0.3549 -0.0148
  326loPI    C1 5201   6.130  13.679   9.850  0.2203 -0.0310  0.0974
  326loPI    C2 5202   6.072  13.823  10.219 -0.0258 -0.2500  0.1474
  326loPI    C3 5203   6.028  13.432  10.148 -0.1695 -0.1819 -0.1535
  326loPI   PO4 5204   6.033  13.767   9.689  0.1198 -0.3333 -0.1036
  326loPI   GL1 5205   5.982  13.809   9.214  0.1258  0.1110 -0.2763
  326loPI   GL2 5206   6.280  13.811   9.093 -0.0402 -0.0622 -0.0057
  326loPI   C1A 5207   6.021  13.442   8.857  0.1351  0.0667  0.0195
  326loPI   C2A 5208   6.093  13.176   8.433 -0.2519  0.3689  0.1152
  326loPI   C3A 5209   6.016  13.111   7.939  0.0059 -0.4099 -0.1912
  326loPI   C4A 5210   5.798  12.895   7.580 -0.1072  0.0932 -0.1499
  326loPI   C5A 5211   5.592  12.801   7.175 -0.0290 -0.0185  0.0949
  326loPI   C6A 5212   5.385  12.791   6.818  0.0851  0.1315 -0.0390
  326loPI   C1B 5213   6.366  13.835   8.664 -0.0438 -0.2012 -0.1852
  326loPI   C2B 5214   6.530  13.947   8.285  0.1644  0.4715 -0.1280
  326loPI   C3B 5215   6.695  13.716   7.938 -0.0484 -0.0953  0.2216
  326loPI   C4B 5216   6.799  13.268   7.884 -0.3077 -0.0229 -0.2362
  327loPI    C1 5217   2.128   6.107   9.742 -0.4155  0.1686  0.0237
  327loPI    C2 5218   2.116   6.043  10.137 -0.2266  0.1160  0.0219
  327loPI    C3 5219   1.802   5.947   9.909 -0.1419 -0.3411  0.0892
  327loPI   PO4 5220   2.228   6.400   9.562  0.3944  0.1981 -0.0329
  327loPI   GL1 5221   1.974   6.605   9.250 -0.0171 -0.4410 -0.0344
  327loPI   GL2 5222   2.025   6.873   9.404  0.1122  0.1997  0.0619
  327loPI   C1A 5223   1.999   6.509   8.765 -0.5172  0.0018  0.2197
  327loPI   C2A 5224   2.221   6.409   8.299  0.3802 -0.0784  0.1326
  327loPI   C3A 5225   2.345   6.214   7.900  0.1293 -0.2600 -0.1401
  327loPI   C4A 5226   2.321   6.370   7.504 -0.0593 -0.1493 -0.0853
  327loPI   C5A 5227   2.373   6.362   7.062 -0.0327 -0.1147  0.3239
  327loPI   C6A 5228   2.664   6.225   6.766 -0.1350 -0.1361 -0.0956
  327loPI   C1B 5229   1.870   6.952   8.958 -0.1847 -0.0283 -0.3535
  327loPI   C2B 5230   1.478   6.779   8.683 -0.0020 -0.2896  0.0146
  327loPI   C3B 5231   1.223   6.726   8.304 -0.0792  0.0622  0.2287
  327loPI   C4B 5232   1.367   6.718   7.891  0.2654 -0.0484 -0.1610
  328loPI    C1 5233  13.651   4.055  10.000  0.0291  0.0009  0.0625
  328loPI    C2 5234  13.899   4.054  10.314  0.0033  0.0327  0.0830
  328loPI    C3 5235  13.726   3.714  10.195  0.0882  0.0029  0.0438
  328loPI   PO4 5236  13.724   4.153   9.670  0.0413 -0.0603 -0.1340
  328loPI   GL1 5237  13.791   3.990   9.360 -0.0308  0.0996 -0.1946
  328loPI   GL2 5238  13.984   3.741   9.147  0.1954  0.0670  0.0849
  328loPI   C1A 5239  13.667   4.063   8.904 -0.0170  0.1978 -0.1193
  328loPI   C2A 5240  13.910   4.032   8.496 -0.0889 -0.0389 -0.3499
  328loPI   C3A 5241  14.050   4.180   8.168 -0.5258  0.0826  0.1534
  328loPI   C4A 5242  14.202   4.308   7.665 -0.0216  0.1612 -0.1212
  328loPI   C5A 5243  14.334   4.183   7.244  0.4534  0.1338  0.0691
  328loPI   C6A 5244  14.266   3.815   6.885 -0.0558  0.0144 -0.2223
  328loPI   C1B 5245  13.963   3.578   8.690 -0.3392  0.0750 -0.0776
  328loPI   C2B 5246  14.079   3.548   8.160  0.3193 -0.2101 -0.1589
  328loPI   C3B 5247  13.734   3.805   7.895  0.0531 -0.1113 -0.1882
  328loPI   C4B 5248  13.441   3.904   7.562  0.2996 -0.1153 -0.1040
  329loPI    C1 5249  14.553  10.972   9.563  0.3717  0.3194  0.2531
  329loPI    C2 5250  14.524  10.999   9.961  0.0111  0.0829  0.2473
  329loPI    C3 5251  14.194  10.962   9.739  0.2365 -0.3358 -0.0322
  329loPI   PO4 5252  14.852  10.977   9.506  0.1892 -0.1223  0.3347
  329loPI   GL1 5253  15.136  11.091   9.238  0.1435  0.1724 -0.1885
  329loPI   GL2 5254  15.167  10.781   9.084 -0.0677  0.3402  0.1054
  329loPI   C1A 5255  15.236  11.439   8.996 -0.2422  0.0462 -0.0933
  329loPI   C2A 5256  15.325  11.630   8.611  0.1766 -0.0716 -0.1092
  329loPI   C3A 5257  15.519  11.929   8.297  0.0771  0.1226  0.0648
  329loPI   C4A 5258  15.796  12.172   8.061  0.0409 -0.1191 -0.1345
  329loPI   C5A 5259  16.068  12.474   7.728  0.3389  0.1597 -0.2204
  329loPI   C6A 5260  16.144  12.567   7.287 -0.1238  0.0284 -0.0142
  329loPI   C1B 5261  15.382  10.678   8.718 -0.2050 -0.1168  0.1274
  329loPI   C2B 5262  15.498  10.826   8.261  0.0598 -0.0804 -0.1729
  329loPI   C3B 5263  15.653  11.053   7.866  0.1661  0.3949 -0.3738
  329loPI   C4B 5264  15.856  10.985   7.399 -0.1563 -0.2007 -0.0484
  330loPI    C1 5265  17.203   1.917   9.929  0.1433  0.1462  0.1789
  330loPI    C2 5266  17.556   1.730   9.908  0.0765  0.0366  0.0194
  330loPI    C3 5267  17.242   1.548  10.076  0.0022 -0.0112 -0.1677
  330loPI   PO4 5268  17.164   1.980   9.612  0.4862 -0.0321 -0.3150
  330loPI   GL1 5269  17.358   2.043   9.192  0.1418 -0.1256  0.0319
  330loPI   GL2 5270  17.316   2.377   8.865  0.2872  0.0714 -0.1422
  330loPI   C1A 5271  17.481   1.958   8.638 -0.0822  0.3382  0.0534
  330loPI   C2A 5272  17.703   1.996   8.323 -0.1172 -0.3128 -0.1579
  330loPI   C3A 5273  17.586   1.965   7.944 -0.0155  0.1093  0.0576
  330loPI   C4A 5274  17.551   2.368   7.643  0.1766 -0.1656 -0.4099
  330loPI   C5A 5275  17.327   2.684   7.390  0.2848  0.0397 -0.1940
  330loPI   C6A 5276  16.999   2.929   7.313 -0.0127 -0.3078 -0.0281
  330loPI   C1B 5277  17.798   2.339   8.790  0.2373  0.1160  0.1710
  330loPI   C2B 5278  18.028   2.481   8.519  0.0455 -0.0734 -0.1039
  330loPI   C3B 5279  18.050   2.964   8.294  0.2421 -0.2550  0.0278
  330loPI   C4B 5280  17.907   3.111   7.955 -0.3389  0.0656 -0.2077
  331loPI    C1 5281  18.442  10.496   9.789  0.0433 -0.1215  0.0960
  331loPI    C2 5282  18.318  10.589  10.158 -0.2197 -0.0548 -0.0073
  331loPI    C3 5283  18.686  10.691  10.039 -0.1882  0.0606  0.1840
  331loPI   PO4 5284  18.272  10.494   9.623  0.2776  0.3720  0.1506
  331loPI   GL1 5285  17.985  10.652   9.419  0.2102 -0.1971 -0.0414
  331loPI   GL2 5286  18.321  10.781   9.231 -0.1305  0.1161  0.0630
  331loPI   C1A 5287  17.747  10.547   9.079 -0.1106 -0.0855 -0.0854
  331loPI   C2A 5288  17.501  10.601   8.717  0.2596  0.1446 -0.4168
  331loPI   C3A 5289  17.334  10.500   8.270  0.0093 -0.4361 -0.0049
  331loPI   C4A 5290  17.225  10.458   7.838  0.2376  0.3004  0.2502
  331loPI   C5A 5291  17.376  10.452   7.325 -0.0478  0.0499  0.0201
  331loPI   C6A 5292  17.569  10.741   6.987 -0.2451 -0.4176 -0.1847
  331loPI   C1B 5293  18.300  10.720   8.833  0.2439 -0.1021 -0.1790
  331loPI   C2B 5294  18.281  10.727   8.384 -0.2594 -0.2054 -0.2022
  331loPI   C3B 5295  18.220  11.025   8.089  0.2405 -0.1161 -0.1043
  331loPI   C4B 5296  18.277  11.227   7.619  0.2697 -0.0586  0.2828
  332loPI    C1 5297  16.525  13.760   9.988  0.0180  0.2981 -0.0031
  332loPI    C2 5298  16.170  13.913  10.089 -0.2995 -0.2903 -0.1784
  332loPI    C3 5299  16.423  13.790  10.373 -0.0887  0.4178 -0.0402
  332loPI   PO4 5300  16.389  13.752   9.635 -0.0334  0.2590  0.2628
  332loPI   GL1 5301  16.635  13.538   9.254  0.2095  0.1953  0.1796
  332loPI   GL2 5302  16.477  13.754   9.067  0.0689  0.0080 -0.2340
  332loPI   C1A 5303  16.678  13.324   8.845 -0.1366  0.1543  0.1509
  332loPI   C2A 5304  16.546  13.328   8.431  0.1010  0.0754 -0.1124
  332loPI   C3A 5305  16.800  13.335   8.050  0.0120 -0.1486  0.2505
  332loPI   C4A 5306  16.982  13.177   7.711  0.1266 -0.0633 -0.0096
  332loPI   C5A 5307  17.197  13.150   7.383 -0.1865 -0.1628  0.2291
  332loPI   C6A 5308  17.389  12.909   7.044 -0.1008 -0.0288 -0.1738
  332loPI   C1B 5309  16.592  13.813   8.606 -0.1853  0.1291 -0.1043
  332loPI   C2B 5310  16.368  13.740   8.147 -0.0512 -0.0010 -0.5105
  332loPI   C3B 5311  16.263  13.342   7.861  0.2958 -0.0604 -0.3195
  332loPI   C4B 5312  16.428  12.959   7.739 -0.0523 -0.0359 -0.2532
  333loPI    C1 5313   0.363  10.965   9.971 -0.1526  0.0158 -0.2221
  333loPI    C2 5314   0.535  11.122  10.296 -0.0447 -0.2205 -0.1623
  333loPI    C3 5315   0.211  10.891  10.334  0.0995 -0.4321 -0.1994
  333loPI   PO4 5316   0.653  10.935   9.782  0.0226 -0.2504 -0.1645
  333loPI   GL1 5317   0.788  11.186   9.498  0.2750 -0.1173  0.0456
  333loPI   GL2 5318   0.640  11.417   9.495 -0.0121  0.3149 -0.2217
  333loPI   C1A 5319   0.717  11.130   9.080 -0.0828  0.0242 -0.1666
  333loPI   C2A 5320   0.337  11.198   8.890 -0.3727  0.1482 -0.0452
  333loPI   C3A 5321   0.339  11.079   8.457 -0.1009  0.1167 -0.0660
  333loPI   C4A 5322   0.327  10.947   8.086  0.0060 -0.0816  0.0290
  333loPI   C5A 5323   0.042  10.762   7.805 -0.3951 -0.3523  0.2027
  333loPI   C6A 5324  -0.150  10.492   7.617 -0.0844  0.2736 -0.3048
  333loPI   C1B 5325   0.757  11.610   9.167  0.1153  0.2229 -0.3136
  333loPI   C2B 5326   0.782  11.541   8.715  0.0366 -0.0409  0.0412
  333loPI   C3B 5327   0.842  11.121   8.550 -0.1836  0.2481  0.0018
  333loPI   C4B 5328   1.067  11.057   8.265  0.2734  0.0383  0.1479
  334loPI    C1 5329  15.646   8.536   9.895  0.0369  0.0408  0.0485
  334loPI    C2 5330  15.270   8.593  10.019  0.1023 -0.1319  0.3366
  334loPI    C3 5331  15.573   8.765  10.215  0.1774 -0.0157  0.1221
  334loPI   PO4 5332  15.635   8.617   9.653  0.1009  0.1339 -0.0620
  334loPI   GL1 5333  15.774   8.666   9.257  0.1716 -0.3250 -0.1826
  334loPI   GL2 5334  15.858   8.328   9.277 -0.2641  0.1286 -0.0811
  334loPI   C1A 5335  15.898   8.702   8.861 -0.0767  0.1396 -0.2895
  334loPI   C2A 5336  15.961   8.881   8.414 -0.2407  0.0052 -0.0128
  334loPI   C3A 5337  15.937   9.099   7.950  0.1562 -0.1848  0.3181
  334loPI   C4A 5338  16.214   9.316   7.623  0.2683 -0.1615  0.1226
  334loPI   C5A 5339  16.617   9.457   7.650  0.1549 -0.0284 -0.0737
  334loPI   C6A 5340  16.931   9.103   7.736 -0.0999  0.1949 -0.1603
  334loPI   C1B 5341  15.738   8.263   8.799  0.0721  0.0918  0.2034
  334loPI   C2B 5342  15.931   8.385   8.416  0.1490 -0.0889 -0.1057
  334loPI   C3B 5343  15.984   8.527   8.029  0.0108  0.1471 -0.0353
  334loPI   C4B 5344  16.165   8.714   7.678  0.2212 -0.1291  0.0381
  335loPI    C1 5345   9.158  13.960   9.889 -0.1723 -0.2358  0.0127
  335loPI    C2 5346   9.372  13.836  10.204  0.0619 -0.1126 -0.0949
  335loPI    C3 5347   9.111  14.136  10.245 -0.1592 -0.3219  0.0574
  335loPI   PO4 5348   9.399  14.029   9.729  0.3500  0.0335 -0.1492
  335loPI   GL1 5349   9.604  14.407   9.493 -0.0007 -0.1764 -0.1223
  335loPI   GL2 5350   9.362  14.158   9.246  0.1086  0.1471 -0.2113
  335loPI   C1A 5351   9.787  14.589   9.147  0.1580  0.0628 -0.0574
  335loPI   C2A 5352   9.832  14.609   8.675  0.0435 -0.2771  0.1374
  335loPI   C3A 5353   9.831  15.048   8.373  0.0443 -0.1426 -0.2745
  335loPI   C4A 5354   9.565  15.122   8.120  0.5389  0.0651 -0.0182
  335loPI   C5A 5355   9.545  15.427   7.824  0.1537 -0.1484 -0.4540
  335loPI   C6A 5356   9.631  15.728   7.503  0.1877 -0.1843 -0.0838
  335loPI   C1B 5357   9.718  14.147   8.903 -0.0328  0.0592  0.3292
  335loPI   C2B 5358   9.907  14.126   8.501  0.1378  0.2251 -0.1407
  335loPI   C3B 5359   9.924  14.395   8.239  0.0358  0.1332  0.1631
  335loPI   C4B 5360  10.009  14.462   7.845 -0.1484  0.2311 -0.2336
  336loPI    C1 5361  13.409   4.532   9.776 -0.0030  0.3521  0.0772
  336loPI    C2 5362  13.743   4.663   9.601  0.0093  0.0604 -0.1248
  336loPI    C3 5363  13.747   4.562   9.988  0.0638  0.3941 -0.0349
  336loPI   PO4 5364  13.193   4.784   9.623 -0.1236  0.1389 -0.1813
  336loPI   GL1 5365  12.812   4.781   9.295 -0.2029 -0.1467 -0.2510
  336loPI   GL2 5366  12.576   4.582   9.475  0.0427 -0.2733  0.2701
  336loPI   C1A 5367  13.056   4.797   8.914  0.1397  0.1707  0.0865
  336loPI   C2A 5368  13.145   4.861   8.478 -0.1471 -0.4975  0.5354
  336loPI   C3A 5369  13.065   5.017   8.076 -0.0020 -0.1023  0.3860
  336loPI   C4A 5370  12.922   5.339   7.828  0.1698  0.0740  0.0507
  336loPI   C5A 5371  13.063   5.630   7.387 -0.1162 -0.2176 -0.2831
  336loPI   C6A 5372  13.043   6.070   7.393 -0.2026  0.1203 -0.0166
  336loPI   C1B 5373  12.673   4.345   9.160 -0.2594 -0.3103 -0.1612
  336loPI   C2B 5374  12.620   4.086   8.822  0.1213 -0.1753  0.1988
  336loPI   C3B 5375  12.494   3.812   8.563  0.1067  0.0099 -0.5109
  336loPI   C4B 5376  12.674   3.609   8.278  0.3705 -0.0277 -0.1699
  337loPI    C1 5377   2.949  12.856  10.061  0.0053  0.1755  0.2389
  337loPI    C2 5378   2.902  12.923  10.453  0.2279  0.2732  0.2509
  337loPI    C3 5379   3.222  12.723  10.322  0.0552  0.0690  0.1331
  337loPI   PO4 5380   2.673  12.796   9.970 -0.0288 -0.2654 -0.0782
  337loPI   GL1 5381   2.467  12.700   9.620 -0.1693 -0.6342  0.1521
  337loPI   GL2 5382   2.660  12.933   9.481 -0.1924  0.0096  0.2941
  337loPI   C1A 5383   2.271  12.569   9.322  0.1431 -0.1113 -0.0869
  337loPI   C2A 5384   2.196  12.379   8.977 -0.2159  0.0679  0.3576
  337loPI   C3A 5385   2.120  11.962   8.702  0.4083  0.3625  0.3244
  337loPI   C4A 5386   2.213  12.045   8.322  0.0593  0.0829 -0.0919
  337loPI   C5A 5387   2.298  12.271   8.036  0.0804 -0.0039 -0.0490
  337loPI   C6A 5388   2.242  12.318   7.598  0.0208  0.4259  0.1284
  337loPI   C1B 5389   2.674  12.702   9.036 -0.0880  0.0050 -0.1337
  337loPI   C2B 5390   2.486  12.727   8.645  0.0186 -0.2172  0.3643
  337loPI   C3B 5391   2.095  12.604   8.359 -0.0491  0.0218 -0.1742
  337loPI   C4B 5392   2.003  12.727   7.997 -0.0320 -0.2003 -0.0170
  338loPI    C1 5393  17.536   7.444   9.900 -0.1991 -0.2688  0.1547
  338loPI    C2 5394  17.754   7.187  10.115  0.0995 -0.1446  0.0072
  338loPI    C3 5395  17.712   7.565  10.238 -0.0932 -0.1856  0.0707
  338loPI   PO4 5396  17.389   7.340   9.760  0.0633  0.0838 -0.0123
  338loPI   GL1 5397  17.291   7.389   9.349  0.1870  0.0818 -0.3439
  338loPI   GL2 5398  17.640   7.554   9.362  0.2214 -0.0146  0.3883
  338loPI   C1A 5399  17.131   7.374   8.972 -0.0877 -0.0309 -0.1814
  338loPI   C2A 5400  17.022   7.602   8.655 -0.0714  0.1201  0.2402
  338loPI   C3A 5401  17.122   7.597   8.213 -0.2391  0.3453  0.1841
  338loPI   C4A 5402  17.233   7.662   7.848 -0.0559 -0.2993 -0.1007
  338loPI   C5A 5403  17.327   7.523   7.391 -0.1442 -0.0290 -0.2055
  338loPI   C6A 5404  17.626   7.666   6.983  0.0556 -0.3173 -0.1931
  338loPI   C1B 5405  18.030   7.855   9.310  0.1169  0.1292  0.1908
  338loPI   C2B 5406  18.423   7.737   8.936  0.0524  0.2686  0.3492
  338loPI   C3B 5407  18.659   7.760   8.504  0.2557 -0.2805  0.0859
  338loPI   C4B 5408  18.671   7.789   8.058  0.0948  0.3955 -0.1054
  339loPI    C1 5409  10.010  16.806  10.149  0.0841 -0.1600 -0.1357
  339loPI    C2 5410   9.736  16.566   9.984 -0.2239  0.0141  0.1091
  339loPI    C3 5411   9.933  16.449  10.312 -0.1261 -0.0413  0.0313
  339loPI   PO4 5412  10.053  16.942   9.882  0.0749  0.2346  0.1645
  339loPI   GL1 5413   9.723  16.893   9.527  0.2745 -0.2882  0.0729
  339loPI   GL2 5414   9.815  17.125   9.444 -0.1005  0.0872  0.0452
  339loPI   C1A 5415   9.772  16.715   9.038 -0.3383 -0.2536  0.0574
  339loPI   C2A 5416   9.856  16.841   8.624 -0.0100  0.3083  0.3015
  339loPI   C3A 5417   9.661  16.932   8.276  0.2519 -0.0466 -0.0369
  339loPI   C4A 5418   9.573  17.297   8.050  0.0048 -0.0230  0.0067
  339loPI   C5A 5419   9.640  17.611   7.813 -0.0409  0.0447 -0.3245
  339loPI   C6A 5420   9.812  17.984   7.937 -0.0571  0.2450 -0.1713
  339loPI   C1B 5421   9.802  17.232   8.947 -0.0701 -0.0468  0.0725
  339loPI   C2B 5422   9.816  17.359   8.558  0.0001 -0.6740  0.1022
  339loPI   C3B 5423   9.981  17.609   8.213  0.1134 -0.0038 -0.2552
  339loPI   C4B 5424  10.303  17.597   8.011  0.2768  0.0810 -0.4415
  340loPI    C1 5425  10.895   1.208  10.238 -0.0118  0.1957 -0.0217
  340loPI    C2 5426  10.501   1.144  10.224 -0.0178  0.2169  0.0451
  340loPI    C3 5427  10.725   0.952  10.494  0.0213  0.1861 -0.0093
  340loPI   PO4 5428  10.990   1.178  10.079  0.3718 -0.0255 -0.2219
  340loPI   GL1 5429  10.871   1.135   9.611 -0.0371 -0.4693 -0.0736
  340loPI   GL2 5430  10.644   1.018   9.715 -0.2182  0.3224 -0.1524
  340loPI   C1A 5431  10.928   1.133   9.155 -0.0080 -0.2775 -0.3253
  340loPI   C2A 5432  11.325   1.186   8.893  0.0144  0.1603  0.1406
  340loPI   C3A 5433  11.323   1.086   8.482  0.0594 -0.0809 -0.1065
  340loPI   C4A 5434  11.077   0.907   8.088 -0.0938 -0.5811 -0.0056
  340loPI   C5A 5435  10.741   0.854   7.762  0.1273 -0.1187  0.1769
  340loPI   C6A 5436  10.477   0.634   7.554  0.0475 -0.0208 -0.0430
  340loPI   C1B 5437  10.558   0.733   9.323 -0.1462  0.0445 -0.2718
  340loPI   C2B 5438  10.446   0.829   8.890 -0.1141  0.2373 -0.0350
  340loPI   C3B 5439  10.352   0.626   8.480  0.2732 -0.1222  0.1299
  340loPI   C4B 5440  10.606   0.465   8.106  0.0310  0.2419  0.2859
  341loPI    C1 5441   6.342  11.047   9.597 -0.1814 -0.2245  0.1828
  341loPI    C2 5442   6.666  11.135   9.814 -0.1222 -0.1621  0.0702
  341loPI    C3 5443   6.333  11.353   9.855 -0.0211  0.0289 -0.1048
  341loPI   PO4 5444   6.516  10.756   9.462 -0.1198  0.0367  0.0797
  341loPI   GL1 5445   6.667  10.506   9.244 -0.2374 -0.2386  0.0634
  341loPI   GL2 5446   6.971  10.530   9.106 -0.1300 -0.1628  0.0282
  341loPI   C1A 5447   6.415  10.368   8.897 -0.0500 -0.0827 -0.0071
  341loPI   C2A 5448   6.171  10.363   8.541 -0.2801 -0.3820  0.0078
  341loPI   C3A 5449   6.023  10.562   8.164 -0.1879  0.1314 -0.0189
  341loPI   C4A 5450   5.723  10.422   7.807  0.1388  0.1992 -0.0769
  341loPI   C5A 5451   5.450  10.638   7.514  0.4229 -0.2777  0.0236
  341loPI   C6A 5452   5.538  10.920   7.113 -0.1921 -0.2814 -0.1431
  341loPI   C1B 5453   6.920  10.855   8.830  0.0083  0.0117 -0.0583
  341loPI   C2B 5454   6.983  11.148   8.521 -0.1061 -0.2808 -0.3406
  341loPI   C3B 5455   7.324  11.453   8.342 -0.0629 -0.1923  0.0425
  341loPI   C4B 5456   7.385  11.677   7.973 -0.4580  0.0874  0.1395
  342loPI    C1 5457   7.163   3.929  10.274  0.1473  0.0782  0.1003
  342loPI    C2 5458   7.075   3.598  10.480  0.1057 -0.0262 -0.0824
  342loPI    C3 5459   7.201   3.926  10.672 -0.2453 -0.0166  0.1414
  342loPI   PO4 5460   7.041   3.793   9.980 -0.0882 -0.0711 -0.1737
  342loPI   GL1 5461   6.788   3.506   9.671 -0.0750  0.1493  0.2516
  342loPI   GL2 5462   6.674   3.711   9.685 -0.0974  0.2113 -0.0329
  342loPI   C1A 5463   6.883   3.145   9.329  0.2927 -0.0398  0.1277
  342loPI   C2A 5464   6.877   3.014   8.884  0.1080 -0.3405  0.1424
  342loPI   C3A 5465   6.822   2.816   8.491 -0.2008  0.1202  0.1809
  342loPI   C4A 5466   6.730   2.832   8.016  0.1345  0.1677 -0.3101
  342loPI   C5A 5467   6.613   3.269   7.782 -0.0431 -0.0894 -0.0311
  342loPI   C6A 5468   6.643   3.672   7.824 -0.1410  0.1711  0.0092
  342loPI   C1B 5469   6.736   3.638   9.192  0.0206  0.2831  0.3135
  342loPI   C2B 5470   6.680   3.562   8.762 -0.2225  0.0362  0.0728
  342loPI   C3B 5471   6.711   3.589   8.332  0.1084 -0.1546  0.0822
  342loPI   C4B 5472   6.879   4.009   8.065  0.2305 -0.0891  0.1895
  343loPI    C1 5473  11.630   7.139   9.834 -0.0613  0.0740  0.0619
  343loPI    C2 5474  11.286   6.969   9.722 -0.1544  0.1472  0.2327
  343loPI    C3 5475  11.287   7.249  10.008  0.0561  0.0972  0.2827
  343loPI   PO4 5476  11.793   7.044   9.619 -0.0186  0.1234  0.0917
  343loPI   GL1 5477  11.690   6.857   9.273 -0.2813  0.1015 -0.0455
  343loPI   GL2 5478  11.977   6.643   9.225 -0.0776 -0.0295 -0.0133
  343loPI   C1A 5479  11.684   6.885   8.913 -0.1080 -0.1547  0.0534
  343loPI   C2A 5480  11.716   6.761   8.454 -0.2150 -0.2435 -0.2623
  343loPI   C3A 5481  11.675   6.670   7.991 -0.3365  0.2278 -0.1464
  343loPI   C4A 5482  11.361   6.928   7.779 -0.0348  0.2787  0.2080
  343loPI   C5A 5483  11.067   7.068   7.518 -0.1302  0.1689  0.2158
  343loPI   C6A 5484  10.811   7.311   7.165  0.0915 -0.0032 -0.1152
  343loPI   C1B 5485  12.179   6.936   8.837 -0.2777  0.1204 -0.0603
  343loPI   C2B 5486  12.389   7.330   8.537  0.0692  0.0114 -0.2653
  343loPI   C3B 5487  12.249   7.518   8.300 -0.0611 -0.4711 -0.5176
  343loPI   C4B 5488  12.148   7.693   7.904 -0.1688 -0.4257  0.0027
  344loPI    C1 5489  18.696  11.213   9.902  0.1348  0.4617  0.0945
  344loPI    C2 5490  18.851  11.175  10.268 -0.1121  0.0696  0.1645
  344loPI    C3 5491  18.458  11.126  10.212 -0.0651  0.0499 -0.1653
  344loPI   PO4 5492  18.875  11.040   9.760 -0.0304  0.2869 -0.0497
  344loPI   GL1 5493  18.735  10.723   9.488 -0.0207  0.1473 -0.2436
  344loPI   GL2 5494  18.701  10.426   9.268  0.4710 -0.1966 -0.1258
  344loPI   C1A 5495  18.868  10.877   9.106  0.0691 -0.3943  0.2559
  344loPI   C2A 5496  18.883  11.024   8.719 -0.1301 -0.1975  0.1298
  344loPI   C3A 5497  18.816  11.038   8.321 -0.0600  0.2806  0.0120
  344loPI   C4A 5498  18.668  10.725   8.041  0.3520 -0.1486 -0.1618
  344loPI   C5A 5499  18.499  10.787   7.612 -0.4120 -0.2844 -0.0032
  344loPI   C6A 5500  18.441  10.973   7.267 -0.1301 -0.0661  0.1852
  344loPI   C1B 5501  18.734  10.429   8.925 -0.1133 -0.0086  0.1501
  344loPI   C2B 5502  18.783  10.483   8.530 -0.0493 -0.0722  0.0646
  344loPI   C3B 5503  18.950  10.296   8.115 -0.0730 -0.0552 -0.2247
  344loPI   C4B 5504  19.285  10.091   7.862 -0.1752 -0.2382  0.0777
  345loPI    C1 5505   4.307   8.132  10.107  0.0597 -0.2228  0.0544
  345loPI    C2 5506   4.256   8.218  10.494 -0.0557 -0.2849  0.0536
  345loPI    C3 5507   4.133   7.866  10.350 -0.2045 -0.1782 -0.0827
  345loPI   PO4 5508   4.078   8.269   9.986 -0.1143 -0.0661 -0.1160
  345loPI   GL1 5509   3.899   8.312   9.519  0.0990  0.2194 -0.3109
  345loPI   GL2 5510   4.008   8.430   9.349  0.2372  0.1087  0.0695
  345loPI   C1A 5511   3.639   7.990   9.235  0.0674 -0.2896  0.1385
  345loPI   C2A 5512   3.416   7.928   8.689 -0.0166  0.1298  0.1861
  345loPI   C3A 5513   3.042   7.782   8.425  0.0911 -0.1287  0.1399
  345loPI   C4A 5514   3.008   7.314   8.128 -0.4056  0.0973 -0.3970
  345loPI   C5A 5515   2.988   7.209   7.747 -0.0862 -0.3981 -0.1980
  345loPI   C6A 5516   2.677   7.085   7.572  0.1394  0.3668 -0.0226
  345loPI   C1B 5517   4.376   8.566   9.072  0.3057 -0.4524  0.0579
  345loPI   C2B 5518   4.550   8.376   8.668  0.0920  0.1810  0.2637
  345loPI   C3B 5519   4.526   8.408   8.199 -0.0853 -0.0524 -0.0829
  345loPI   C4B 5520   4.311   8.549   7.766  0.0708 -0.3232 -0.1129
  346loPI    C1 5521   8.867   0.120  10.533  0.0872 -0.0361  0.1649
  346loPI    C2 5522   8.812  -0.216  10.324  0.1834 -0.0336  0.1349
  346loPI    C3 5523   9.043  -0.219  10.651  0.0472 -0.0338  0.2320
  346loPI   PO4 5524   8.920   0.302  10.348 -0.5092  0.0784 -0.2088
  346loPI   GL1 5525   8.885   0.165  10.012 -0.0445 -0.1293  0.0553
  346loPI   GL2 5526   9.151   0.076   9.828 -0.0850  0.0064  0.0221
  346loPI   C1A 5527   8.809   0.390   9.692 -0.0939 -0.3030 -0.0228
  346loPI   C2A 5528   8.896   0.529   9.289  0.1674  0.2185  0.2658
  346loPI   C3A 5529   8.728   0.643   8.882 -0.2951  0.1061 -0.0979
  346loPI   C4A 5530   8.327   0.383   8.731  0.0246  0.0569  0.6450
  346loPI   C5A 5531   8.190   0.274   8.250  0.1073 -0.0830 -0.0743
  346loPI   C6A 5532   7.894   0.114   7.973 -0.1273 -0.2794 -0.3185
  346loPI   C1B 5533   9.233   0.157   9.452 -0.3118 -0.2250 -0.2872
  346loPI   C2B 5534   9.192   0.190   9.008  0.0965  0.3004 -0.0582
  346loPI   C3B 5535   9.177   0.455   8.740  0.0230  0.0548 -0.3634
  346loPI   C4B 5536   9.287   0.701   8.415 -0.1092 -0.2495 -0.4797
  347loPI    C1 5537   7.271  12.163   9.748  0.4469  0.0262  0.0272
  347loPI    C2 5538   7.325  12.537   9.879 -0.2306  0.0375  0.3148
  347loPI    C3 5539   7.447  12.228  10.101  0.0924  0.0778  0.1988
  347loPI   PO4 5540   7.257  12.214   9.459 -0.0396  0.2485 -0.1985
  347loPI   GL1 5541   6.983  12.052   9.206  0.1636 -0.1264 -0.0223
  347loPI   GL2 5542   7.285  11.905   9.027  0.1163 -0.0108  0.1229
  347loPI   C1A 5543   6.787  12.010   8.854  0.1816 -0.3950 -0.1651
  347loPI   C2A 5544   6.594  12.026   8.446 -0.1426  0.2058  0.1161
  347loPI   C3A 5545   6.451  11.905   8.165  0.0190 -0.1521  0.0541
  347loPI   C4A 5546   6.519  11.786   7.813 -0.1288 -0.1849  0.1704
  347loPI   C5A 5547   6.628  11.521   7.646  0.0023 -0.2269 -0.1860
  347loPI   C6A 5548   6.672  11.099   7.480 -0.1116 -0.2381  0.2595
  347loPI   C1B 5549   7.180  11.767   8.713  0.1530  0.5477 -0.0095
  347loPI   C2B 5550   7.023  11.884   8.349 -0.1260  0.0695 -0.2538
  347loPI   C3B 5551   6.952  11.955   8.004  0.0868 -0.1357  0.0560
  347loPI   C4B 5552   7.016  11.804   7.676  0.0820  0.0915  0.2602
  348loPI    C1 5553  18.176   6.337   9.565 -0.0506 -0.0057 -0.1172
  348loPI    C2 5554  18.456   6.621   9.537 -0.2555  0.2160  0.0409
  348loPI    C3 5555  18.453   6.375   9.851 -0.2714  0.2509  0.0681
  348loPI   PO4 5556  17.865   6.505   9.589  0.0123  0.3905  0.1235
  348loPI   GL1 5557  17.648   6.608   9.253 -0.1313  0.3009  0.0061
  348loPI   GL2 5558  17.780   6.382   9.106 -0.0681  0.1946 -0.0217
  348loPI   C1A 5559  17.875   6.800   8.805 -0.1185 -0.0631  0.1764
  348loPI   C2A 5560  17.843   7.077   8.427 -0.1076  0.1311 -0.1424
  348loPI   C3A 5561  17.664   7.279   8.096  0.2146  0.1174 -0.1594
  348loPI   C4A 5562  17.319   7.161   7.799 -0.4326  0.2299  0.1577
  348loPI   C5A 5563  16.871   7.197   7.973  0.1635 -0.5973  0.1015
  348loPI   C6A 5564  16.394   7.156   8.000 -0.0701  0.0507  0.2125
  348loPI   C1B 5565  17.690   6.366   8.786  0.2097 -0.2365  0.1988
  348loPI   C2B 5566  17.712   6.324   8.347  0.0012  0.0551  0.1169
  348loPI   C3B 5567  17.670   6.049   7.930  0.1013 -0.2375 -0.1750
  348loPI   C4B 5568  17.791   5.607   7.668  0.3725  0.1174  0.2516
  349loPI    C1 5569  13.767  15.711  10.226  0.0615 -0.1300  0.1266
  349loPI    C2 5570  13.414  15.709  10.413 -0.0096 -0.1371 -0.0065
  349loPI    C3 5571  13.718  15.495  10.559 -0.0277 -0.0447  0.1694
  349loPI   PO4 5572  13.727  15.957  10.066  0.0362  0.0138 -0.1315
  349loPI   GL1 5573  13.721  16.079   9.723 -0.0717  0.0342  0.0431
  349loPI   GL2 5574  13.653  16.471   9.584  0.1180 -0.0800 -0.1932
  349loPI   C1A 5575  13.505  16.024   9.373  0.3590 -0.3807 -0.0746
  349loPI   C2A 5576  13.251  15.786   9.169  0.3308 -0.3335 -0.0984
  349loPI   C3A 5577  13.092  15.646   8.898 -0.1969  0.1188  0.0123
  349loPI   C4A 5578  13.025  15.941   8.492  0.3456  0.0020  0.5528
  349loPI   C5A 5579  13.147  16.167   8.147 -0.1084 -0.0399  0.0263
  349loPI   C6A 5580  13.510  16.366   7.899 -0.3458  0.1081 -0.1856
  349loPI   C1B 5581  13.326  16.555   9.247 -0.3776  0.0797 -0.2518
  349loPI   C2B 5582  12.958  16.757   9.131 -0.3627 -0.0491  0.0510
  349loPI   C3B 5583  12.658  17.040   9.231 -0.0350 -0.1128  0.0379
  349loPI   C4B 5584  12.324  16.825   9.194  0.0312  0.1216 -0.1288
  350loPI    C1 5585   8.132   7.652   9.926 -0.0774 -0.1870 -0.1639
  350loPI    C2 5586   8.356   7.324   9.972  0.1072 -0.0346  0.0438
  350loPI    C3 5587   8.500   7.681  10.079 -0.0496  0.1312 -0.2838
  350loPI   PO4 5588   7.891   7.514   9.966  0.0734  0.0693  0.3083
  350loPI   GL1 5589   7.981   6.994   9.873  0.1954 -0.1070 -0.0415
  350loPI   GL2 5590   7.624   7.200   9.727 -0.1441 -0.3954  0.0967
  350loPI   C1A 5591   7.896   6.839   9.376 -0.0524  0.2207 -0.0718
  350loPI   C2A 5592   7.591   6.720   9.061  0.5151  0.1559 -0.2326
  350loPI   C3A 5593   7.703   6.564   8.698 -0.3734 -0.3471 -0.1488
  350loPI   C4A 5594   7.850   6.650   8.251  0.0425 -0.1272  0.2293
  350loPI   C5A 5595   7.966   6.678   7.770  0.1402 -0.1242 -0.0225
  350loPI   C6A 5596   8.202   6.642   7.408  0.2680 -0.2579  0.0746
  350loPI   C1B 5597   7.636   7.364   9.305 -0.1902  0.0223 -0.1726
  350loPI   C2B 5598   7.774   7.215   8.986 -0.0977  0.1691  0.1048
  350loPI   C3B 5599   7.762   7.106   8.663 -0.1173  0.0532 -0.0914
  350loPI   C4B 5600   7.552   7.149   8.312  0.1751  0.0937  0.1272
  351loPI    C1 5601  12.112  12.692  10.120  0.0071 -0.0007  0.4876
  351loPI    C2 5602  12.124  13.086  10.055 -0.0212 -0.0737  0.0012
  351loPI    C3 5603  11.799  12.920  10.219 -0.1534  0.0595 -0.1233
  351loPI   PO4 5604  12.147  12.608   9.843 -0.1172  0.3263  0.0304
  351loPI   GL1 5605  12.103  12.445   9.506 -0.0771  0.0071 -0.1574
  351loPI   GL2 5606  11.840  12.266   9.420  0.2193 -0.3542  0.1703
  351loPI   C1A 5607  12.323  12.649   9.175 -0.1558 -0.5162  0.0220
  351loPI   C2A 5608  12.514  12.923   9.016  0.2355  0.1804 -0.0653
  351loPI   C3A 5609  12.729  12.907   8.602  0.0233  0.0494 -0.0935
  351loPI   C4A 5610  12.856  12.986   8.194 -0.0937  0.4487 -0.0481
  351loPI   C5A 5611  12.911  12.858   7.780 -0.0904 -0.1573  0.0432
  351loPI   C6A 5612  12.846  12.740   7.361 -0.1688 -0.0046 -0.0582
  351loPI   C1B 5613  11.956  12.264   8.985 -0.5737 -0.0197  0.0553
  351loPI   C2B 5614  12.140  12.479   8.597  0.0110  0.0019  0.0295
  351loPI   C3B 5615  11.886  12.671   8.305  0.4258  0.1146  0.0753
  351loPI   C4B 5616  11.736  12.556   7.978 -0.1093 -0.2614 -0.4509
  352loPI    C1 5617  18.689   9.526  10.155 -0.0974  0.1976 -0.0502
  352loPI    C2 5618  18.355   9.660  10.331 -0.2655  0.0394 -0.2428
  352loPI    C3 5619  18.385   9.275  10.226  0.1070 -0.0220  0.0630
  352loPI   PO4 5620  18.759   9.629   9.921  0.0358 -0.1292  0.0671
  352loPI   GL1 5621  18.729   9.887   9.604 -0.0197  0.0378  0.3452
  352loPI   GL2 5622  18.455   9.902   9.664  0.1627 -0.1659 -0.1206
  352loPI   C1A 5623  18.733   9.898   9.130  0.0177  0.1856 -0.0739
  352loPI   C2A 5624  18.684   9.730   8.721  0.0824  0.1147 -0.3681
  352loPI   C3A 5625  18.370   9.512   8.494  0.1510 -0.0165  0.3896
  352loPI   C4A 5626  18.208   9.299   8.115  0.0091 -0.4026  0.1350
  352loPI   C5A 5627  17.900   9.414   7.858  0.0008  0.0723 -0.0578
  352loPI   C6A 5628  17.690   9.708   7.568 -0.3299  0.1463 -0.0576
  352loPI   C1B 5629  18.309   9.758   9.347  0.0355  0.0059 -0.2249
  352loPI   C2B 5630  18.217   9.605   9.007 -0.4842  0.0444 -0.0097
  352loPI   C3B 5631  17.954   9.557   8.734 -0.0415 -0.0603 -0.0710
  352loPI   C4B 5632  17.948   9.684   8.255  0.0759  0.2479 -0.2504
  353loPI    C1 5633   3.273  12.157  10.342 -0.2677 -0.1612  0.0186
  353loPI    C2 5634   2.985  11.973  10.549 -0.2415 -0.0707  0.1368
  353loPI    C3 5635   3.329  12.069  10.728 -0.1014 -0.2584 -0.0267
  353loPI   PO4 5636   3.292  12.295  10.100 -0.1265  0.2769  0.5051
  353loPI   GL1 5637   3.356  11.989   9.625  0.1154 -0.2834 -0.5405
  353loPI   GL2 5638   3.381  12.201   9.580 -0.0638  0.0162 -0.2772
  353loPI   C1A 5639   3.186  11.630   9.285 -0.1459  0.0530  0.1451
  353loPI   C2A 5640   3.197  11.313   8.810  0.2168  0.0817  0.0283
  353loPI   C3A 5641   3.054  11.421   8.428  0.0436 -0.1454  0.0518
  353loPI   C4A 5642   3.156  11.573   8.020 -0.1951 -0.1663 -0.1088
  353loPI   C5A 5643   3.164  11.585   7.584  0.0294 -0.1753 -0.1665
  353loPI   C6A 5644   3.021  11.500   7.265 -0.2929 -0.3834 -0.0633
  353loPI   C1B 5645   3.113  12.124   9.228  0.0842 -0.0476  0.0414
  353loPI   C2B 5646   3.080  11.860   8.798 -0.1265  0.0670 -0.1744
  353loPI   C3B 5647   3.148  11.893   8.393  0.1589 -0.0480  0.0795
  353loPI   C4B 5648   3.570  12.116   8.274 -0.0922 -0.1341 -0.2181
  354loPI    C1 5649  10.862  19.033  10.191  0.1963 -0.1020 -0.1847
  354loPI    C2 5650  10.935  19.181  10.555  0.1619 -0.3711 -0.0661
  354loPI    C3 5651  11.227  19.000  10.350  0.2180 -0.0967 -0.2333
  354loPI   PO4 5652  10.806  19.229  10.008  0.2138  0.0274  0.1035
  354loPI   GL1 5653  10.591  19.370   9.600  0.1778  0.3667  0.0100
  354loPI   GL2 5654  10.303  19.306   9.549 -0.1771  0.3432 -0.0347
  354loPI   C1A 5655  10.759  19.203   9.217 -0.1836 -0.0165  0.0633
  354loPI   C2A 5656  10.753  19.350   8.730 -0.0794  0.1436 -0.0640
  354loPI   C3A 5657  11.061  19.583   8.438 -0.1018  0.1920  0.0207
  354loPI   C4A 5658  11.276  19.511   7.960  0.0896  0.2500  0.0160
  354loPI   C5A 5659  10.902  19.346   7.619  0.1782  0.0907  0.0973
  354loPI   C6A 5660  10.604  19.301   7.222 -0.1117 -0.1873 -0.2298
  354loPI   C1B 5661  10.191  19.092   9.254 -0.0125  0.1052 -0.0497
  354loPI   C2B 5662  10.243  18.930   8.836 -0.3647  0.0963 -0.1743
  354loPI   C3B 5663  10.368  19.086   8.433 -0.0944 -0.2603  0.0824
  354loPI   C4B 5664  10.040  19.220   8.253  0.2354  0.0625  0.0387
  355loPI    C1 5665  17.140  18.728  10.025 -0.0379 -0.0098 -0.4391
  355loPI    C2 5666  16.879  19.030  10.037 -0.0056  0.0081 -0.0292
  355loPI    C3 5667  16.818  18.704  10.261  0.2296 -0.0653 -0.0692
  355loPI   PO4 5668  17.241  18.757   9.841  0.0814 -0.0914 -0.0751
  355loPI   GL1 5669  17.466  18.601   9.400 -0.0726  0.1728 -0.0453
  355loPI   GL2 5670  17.495  18.262   9.248 -0.0058  0.0468  0.1010
  355loPI   C1A 5671  17.488  18.724   8.957 -0.2605  0.3363 -0.0323
  355loPI   C2A 5672  17.523  18.742   8.484  0.0918 -0.0314 -0.0747
  355loPI   C3A 5673  17.598  18.912   8.142 -0.1968 -0.2290  0.0419
  355loPI   C4A 5674  17.822  19.014   7.783 -0.0257  0.3393 -0.0547
  355loPI   C5A 5675  17.889  18.710   7.334 -0.1884 -0.1380 -0.0233
  355loPI   C6A 5676  18.112  18.735   6.947 -0.2596 -0.0809 -0.2002
  355loPI   C1B 5677  17.611  18.046   8.894  0.1254 -0.0280  0.1705
  355loPI   C2B 5678  17.673  18.219   8.481  0.1521  0.0987 -0.1036
  355loPI   C3B 5679  18.066  18.076   8.244  0.0437  0.1110  0.0318
  355loPI   C4B 5680  18.574  17.865   8.204  0.0239  0.0722  0.1684
  356loPI    C1 5681  10.375  16.252  10.036 -0.1491 -0.1413 -0.0606
  356loPI    C2 5682  10.708  16.173   9.829  0.1582 -0.0039  0.3668
  356loPI    C3 5683  10.484  15.873   9.969  0.1007 -0.0968  0.0840
  356loPI   PO4 5684  10.269  16.394   9.917  0.0396 -0.2032  0.1886
  356loPI   GL1 5685  10.066  16.480   9.547  0.2825  0.2005  0.4382
  356loPI   GL2 5686  10.166  16.801   9.422 -0.0283 -0.0856  0.3536
  356loPI   C1A 5687   9.960  16.303   9.135  0.3491  0.4075 -0.1493
  356loPI   C2A 5688   9.957  16.370   8.706  0.0697 -0.2844 -0.4906
  356loPI   C3A 5689  10.000  16.511   8.268 -0.1525  0.2269  0.0525
  356loPI   C4A 5690   9.885  16.240   7.926 -0.0001  0.3127 -0.1937
  356loPI   C5A 5691  10.032  15.812   7.855 -0.1507  0.1113  0.0733
  356loPI   C6A 5692  10.284  15.659   7.542 -0.0646 -0.2162 -0.2963
  356loPI   C1B 5693  10.252  16.955   8.923 -0.0055  0.2319 -0.0643
  356loPI   C2B 5694  10.349  16.761   8.614 -0.0598  0.2040  0.0889
  356loPI   C3B 5695  10.554  16.630   8.183 -0.2811  0.0179 -0.2483
  356loPI   C4B 5696  10.440  16.612   7.756 -0.2736 -0.0490  0.1869
  357loPI    C1 5697  10.930   7.803   9.695 -0.0761  0.0167  0.0981
  357loPI    C2 5698  10.984   7.409   9.647 -0.1409  0.0156  0.0321
  357loPI    C3 5699  10.884   7.556  10.006 -0.0134 -0.0163  0.0813
  357loPI   PO4 5700  10.751   7.881   9.488 -0.0844 -0.0614  0.0272
  357loPI   GL1 5701  10.692   7.587   9.108 -0.0508  0.1858 -0.0828
  357loPI   GL2 5702  10.789   7.388   9.213 -0.0011  0.0845  0.1283
  357loPI   C1A 5703  10.622   7.670   8.650  0.1327 -0.2880  0.0381
  357loPI   C2A 5704  10.845   7.413   8.272  0.0370 -0.0403  0.1338
  357loPI   C3A 5705  10.877   7.097   7.985 -0.0431  0.1255  0.1211
  357loPI   C4A 5706  10.958   6.695   7.872  0.2120  0.3555 -0.1050
  357loPI   C5A 5707  11.324   6.406   7.822 -0.0748  0.0722 -0.2535
  357loPI   C6A 5708  11.420   6.166   7.410  0.1775  0.3213  0.2490
  357loPI   C1B 5709  10.838   7.204   8.789  0.1068 -0.0712  0.1482
  357loPI   C2B 5710  11.134   7.084   8.423 -0.1467  0.3374 -0.2867
  357loPI   C3B 5711  11.526   7.094   8.231  0.2171 -0.1148  0.0241
  357loPI   C4B 5712  11.950   7.072   8.102  0.0728 -0.1922  0.0567
  358loPI    C1 5713  17.138  17.803   9.770 -0.0065 -0.0243 -0.0795
  358loPI    C2 5714  17.075  17.416   9.851 -0.0350 -0.0548 -0.2433
  358loPI    C3 5715  16.966  17.696  10.115  0.0793 -0.1630 -0.0785
  358loPI   PO4 5716  17.381  17.765   9.639 -0.0208 -0.3550  0.0030
  358loPI   GL1 5717  17.528  17.383   9.530 -0.0417 -0.1632  0.2694
  358loPI   GL2 5718  17.313  17.332   9.203 -0.0761  0.2256 -0.3434
  358loPI   C1A 5719  17.842  17.225   9.253  0.0484 -0.2043  0.2137
  358loPI   C2A 5720  17.910  17.214   8.786 -0.1233  0.3679 -0.1905
  358loPI   C3A 5721  17.977  17.062   8.334  0.0490 -0.0785 -0.1947
  358loPI   C4A 5722  18.096  16.735   8.003 -0.0047  0.0513  0.0956
  358loPI   C5A 5723  17.900  16.578   7.725 -0.0751 -0.5169 -0.1169
  358loPI   C6A 5724  17.383  16.677   7.670 -0.0353  0.0138  0.0295
  358loPI   C1B 5725  17.483  17.566   8.951 -0.1954 -0.1585  0.1165
  358loPI   C2B 5726  17.672  17.603   8.472  0.1152  0.1191  0.0859
  358loPI   C3B 5727  17.558  17.845   8.105 -0.2319  0.1740  0.2595
  358loPI   C4B 5728  17.514  18.199   7.996  0.0932 -0.1016  0.0567
  359loPI    C1 5729   6.497  16.935  10.614 -0.1752 -0.1799 -0.0341
  359loPI    C2 5730   6.573  16.725  10.946  0.0156  0.0914  0.0980
  359loPI    C3 5731   6.566  17.125  10.960 -0.0554  0.1033 -0.2098
  359loPI   PO4 5732   6.729  16.759  10.307 -0.1707  0.0788 -0.0171
  359loPI   GL1 5733   6.921  16.815   9.900  0.2897  0.1949 -0.0492
  359loPI   GL2 5734   6.976  17.106   9.947  0.2579 -0.0394 -0.1149
  359loPI   C1A 5735   6.884  16.937   9.370  0.1251 -0.1303  0.0188
  359loPI   C2A 5736   6.836  17.097   8.985  0.0517 -0.2248  0.2066
  359loPI   C3A 5737   6.936  17.083   8.574  0.1657 -0.0702 -0.2416
  359loPI   C4A 5738   7.082  16.944   8.186  0.2253  0.0129  0.0663
  359loPI   C5A 5739   6.839  16.682   7.815  0.0826  0.0366  0.1358
  359loPI   C6A 5740   7.059  16.461   7.582  0.2768  0.1083 -0.1032
  359loPI   C1B 5741   7.255  17.233   9.649 -0.1641  0.1373 -0.0529
  359loPI   C2B 5742   7.286  17.171   9.189 -0.3456 -0.2179  0.1637
  359loPI   C3B 5743   7.324  17.335   8.730  0.2929 -0.0359 -0.2532
  359loPI   C4B 5744   7.181  17.463   8.332  0.0158 -0.0890  0.1503
  360loPI    C1 5745   0.445   7.029   9.908  0.2072  0.1212  0.2051
  360loPI    C2 5746   0.064   7.014  10.027  0.1134  0.1761 -0.0818
  360loPI    C3 5747   0.352   7.101  10.290 -0.0343 -0.1817  0.2074
  360loPI   PO4 5748   0.388   7.207   9.680 -0.2351  0.2326  0.5781
  360loPI   GL1 5749   0.328   7.319   9.213  0.2090 -0.0893 -0.4155
  360loPI   GL2 5750   0.075   7.021   8.986 -0.1705 -0.1478  0.0979
  360loPI   C1A 5751   0.288   7.441   8.773  0.0817 -0.0710  0.0845
  360loPI   C2A 5752   0.261   7.414   8.334  0.1391 -0.1433  0.0839
  360loPI   C3A 5753   0.086   7.545   8.053  0.1378 -0.1141 -0.0296
  360loPI   C4A 5754  -0.096   7.760   7.646 -0.0026  0.1388  0.0804
  360loPI   C5A 5755  -0.550   7.728   7.447 -0.0244  0.0228 -0.1830
  360loPI   C6A 5756  -0.818   7.977   7.849  0.0170  0.0548 -0.0492
  360loPI   C1B 5757   0.062   7.005   8.599 -0.4648 -0.0221  0.0732
  360loPI   C2B 5758   0.133   6.883   8.269 -0.3730  0.0161  0.0850
  360loPI   C3B 5759   0.286   6.857   7.924  0.0509 -0.1587 -0.3738
  360loPI   C4B 5760   0.178   6.543   7.687  0.0145 -0.1351 -0.3791
  361loPI    C1 5761  14.442   3.372   9.945 -0.2547 -0.2070 -0.0766
  361loPI    C2 5762  14.605   3.243  10.287 -0.2336 -0.1753 -0.0746
  361loPI    C3 5763  14.775   3.150   9.937 -0.0492  0.0952 -0.0590
  361loPI   PO4 5764  14.277   3.365   9.894 -0.2481  0.2587  0.0544
  361loPI   GL1 5765  14.131   3.380   9.483 -0.5105 -0.1199 -0.2567
  361loPI   GL2 5766  14.362   3.599   9.395 -0.1511  0.5376  0.2473
  361loPI   C1A 5767  14.338   3.106   9.145 -0.1616  0.0604  0.2464
  361loPI   C2A 5768  14.442   3.094   8.673  0.2029 -0.0394 -0.0219
  361loPI   C3A 5769  14.353   3.108   8.245 -0.0720 -0.2098 -0.0429
  361loPI   C4A 5770  14.236   3.107   7.909 -0.4588  0.0544  0.0884
  361loPI   C5A 5771  13.956   3.315   7.636  0.5114  0.0310  0.2139
  361loPI   C6A 5772  13.851   3.614   7.289 -0.0606 -0.0424 -0.1133
  361loPI   C1B 5773  14.424   3.526   8.958 -0.0319 -0.0036  0.1921
  361loPI   C2B 5774  14.488   3.521   8.487 -0.0090  0.0409 -0.0176
  361loPI   C3B 5775  14.519   3.558   7.954 -0.0099  0.0998 -0.1657
  361loPI   C4B 5776  14.213   3.820   7.681 -0.2898  0.2597 -0.0470
  362loPI    C1 5777   3.326  14.623  10.230 -0.0926 -0.1398 -0.1067
  362loPI    C2 5778   3.135  14.934  10.395 -0.1687 -0.1836 -0.1118
  362loPI    C3 5779   3.355  14.691  10.623  0.0481 -0.0149 -0.1379
  362loPI   PO4 5780   3.230  14.501  10.036  0.4010 -0.1091  0.0452
  362loPI   GL1 5781   3.036  14.456   9.667  0.0026  0.2562  0.0359
  362loPI   GL2 5782   3.388  14.595   9.553 -0.3117  0.2236 -0.3398
  362loPI   C1A 5783   2.948  14.668   9.223  0.1012  0.1493 -0.0255
  362loPI   C2A 5784   3.018  14.634   8.828 -0.1781  0.2025 -0.0234
  362loPI   C3A 5785   3.094  14.487   8.382 -0.0956  0.1890  0.1300
  362loPI   C4A 5786   2.948  14.355   7.942 -0.1359  0.2741 -0.1069
  362loPI   C5A 5787   2.544  14.457   7.833 -0.0614  0.1895  0.1159
  362loPI   C6A 5788   2.294  14.727   7.545  0.1002 -0.4909  0.1160
  362loPI   C1B 5789   3.400  14.776   9.040 -0.4026 -0.2287  0.2072
  362loPI   C2B 5790   3.458  14.863   8.595  0.1807 -0.1703 -0.1343
  362loPI   C3B 5791   3.378  14.859   8.193  0.2143 -0.2130  0.0873
  362loPI   C4B 5792   3.462  15.154   7.793  0.0943  0.2556 -0.0150
  363loPI    C1 5793   1.575  12.546  10.159 -0.2307  0.0009 -0.2075
  363loPI    C2 5794   1.391  12.767  10.437 -0.0376 -0.1901  0.0780
  363loPI    C3 5795   1.705  12.540  10.538  0.2487 -0.0036 -0.3657
  363loPI   PO4 5796   1.428  12.537   9.931  0.0616  0.2887  0.0020
  363loPI   GL1 5797   1.293  12.282   9.616 -0.1403 -0.2481 -0.1138
  363loPI   GL2 5798   1.339  12.509   9.385 -0.1459 -0.1168  0.2123
  363loPI   C1A 5799   1.178  11.863   9.638 -0.0357  0.1659  0.1580
  363loPI   C2A 5800   1.224  11.649   9.313  0.0761 -0.0944 -0.1698
  363loPI   C3A 5801   1.213  11.529   8.893 -0.0013 -0.0360 -0.2066
  363loPI   C4A 5802   1.228  11.627   8.351 -0.1322  0.0014  0.1361
  363loPI   C5A 5803   1.327  12.062   7.981 -0.0434 -0.0115  0.2339
  363loPI   C6A 5804   1.152  12.002   7.607 -0.0644 -0.0040  0.0738
  363loPI   C1B 5805   1.294  12.443   8.921 -0.4183  0.4348 -0.1483
  363loPI   C2B 5806   1.426  12.721   8.674 -0.2035  0.3020  0.2547
  363loPI   C3B 5807   1.598  12.804   8.368  0.2740  0.0240 -0.0638
  363loPI   C4B 5808   1.615  12.958   7.989  0.1781 -0.1441 -0.0800
  364loPI    C1 5809   6.668  15.189  10.246  0.0021 -0.2270  0.0919
  364loPI    C2 5810   6.867  15.299  10.575  0.0609 -0.2796  0.0741
  364loPI    C3 5811   6.643  15.566  10.378 -0.0390 -0.2683  0.2024
  364loPI   PO4 5812   6.922  15.172  10.064  0.0049  0.2683  0.2308
  364loPI   GL1 5813   6.990  15.191   9.638 -0.3118 -0.0656 -0.0476
  364loPI   GL2 5814   6.992  15.540   9.649  0.0931  0.0584 -0.0624
  364loPI   C1A 5815   6.759  15.322   9.279 -0.2658 -0.0044  0.3708
  364loPI   C2A 5816   6.667  15.486   8.916 -0.1683  0.0120  0.0040
  364loPI   C3A 5817   6.838  15.572   8.501 -0.0747  0.1611  0.1869
  364loPI   C4A 5818   6.926  15.649   8.126 -0.0730  0.2887  0.2405
  364loPI   C5A 5819   7.075  15.973   7.765  0.2464  0.1212 -0.0693
  364loPI   C6A 5820   7.322  16.053   7.411 -0.2702  0.0284 -0.0826
  364loPI   C1B 5821   7.110  15.718   9.229  0.2785 -0.4292 -0.0921
  364loPI   C2B 5822   7.150  15.975   8.856 -0.3305 -0.0784 -0.3701
  364loPI   C3B 5823   7.266  15.980   8.429 -0.3169  0.0952 -0.1982
  364loPI   C4B 5824   7.495  15.881   8.040  0.4074 -0.0416 -0.1878
  365loPI    C1 5825   9.845  15.541   9.931 -0.1847  0.1843  0.1677
  365loPI    C2 5826   9.519  15.433   9.727 -0.0845 -0.1433  0.1762
  365loPI    C3 5827   9.544  15.358  10.119 -0.0054 -0.1050  0.1787
  365loPI   PO4 5828  10.122  15.519   9.777  0.1325  0.0382 -0.2822
  365loPI   GL1 5829  10.172  15.537   9.353 -0.0610  0.0089 -0.3186
  365loPI   GL2 5830   9.970  15.284   9.284  0.2896 -0.1913 -0.3796
  365loPI   C1A 5831  10.171  15.796   9.069  0.0832  0.1061 -0.0690
  365loPI   C2A 5832  10.225  15.935   8.620 -0.2634  0.0648 -0.0062
  365loPI   C3A 5833  10.334  16.133   8.289  0.0740 -0.2321 -0.0040
  365loPI   C4A 5834  10.424  16.157   7.846 -0.0225  0.1521  0.0800
  365loPI   C5A 5835  10.239  16.206   7.517  0.0113 -0.3130  0.0860
  365loPI   C6A 5836  10.009  16.604   7.493  0.2317  0.0533 -0.1749
  365loPI   C1B 5837   9.957  15.111   8.938 -0.0627 -0.0337 -0.0691
  365loPI   C2B 5838  10.333  15.338   8.651  0.4165  0.0697  0.0104
  365loPI   C3B 5839  10.700  15.225   8.483 -0.3016  0.1266  0.2005
  365loPI   C4B 5840  10.842  15.394   8.055  0.2843  0.0302 -0.0689
  366loPI    C1 5841  10.175   3.078  10.675  0.1607  0.1136 -0.1532
  366loPI    C2 5842  10.031   3.450  10.707 -0.0718  0.0124  0.0053
  366loPI    C3 5843   9.801   3.137  10.806  0.1622 -0.1680 -0.0138
  366loPI   PO4 5844  10.236   3.004  10.483 -0.2009 -0.2663 -0.0503
  366loPI   GL1 5845  10.128   2.806  10.064 -0.3038  0.1221 -0.1075
  366loPI   GL2 5846  10.162   3.103   9.924  0.0334  0.0351  0.0143
  366loPI   C1A 5847  10.186   2.641   9.665 -0.0031 -0.1700  0.2317
  366loPI   C2A 5848  10.354   2.696   9.190 -0.2690  0.3379 -0.0559
  366loPI   C3A 5849  10.233   2.855   8.698  0.0633  0.0205 -0.0811
  366loPI   C4A 5850   9.971   2.895   8.334 -0.3085  0.0571  0.1388
  366loPI   C5A 5851   9.766   2.731   7.990  0.0124 -0.4007  0.0456
  366loPI   C6A 5852   9.849   2.356   7.866  0.1183  0.0661 -0.0826
  366loPI   C1B 5853  10.230   3.198   9.585  0.0774  0.2623  0.0224
  366loPI   C2B 5854  10.207   3.508   9.130  0.1079 -0.0059  0.2798
  366loPI   C3B 5855   9.972   3.613   8.885 -0.0893  0.1107  0.4137
  366loPI   C4B 5856  10.011   3.889   8.650  0.3706 -0.1259 -0.2508
  367loPI    C1 5857   0.339   3.756  10.005 -0.0009 -0.0220  0.1786
  367loPI    C2 5858  -0.010   3.784  10.197 -0.1035 -0.2939  0.0383
  367loPI    C3 5859   0.261   4.076  10.231 -0.3343 -0.0901  0.1656
  367loPI   PO4 5860   0.273   3.650   9.771  0.2046  0.0027 -0.0968
  367loPI   GL1 5861   0.181   3.792   9.341  0.0579 -0.2029 -0.1257
  367loPI   GL2 5862   0.420   4.118   9.388 -0.0229  0.1738 -0.0729
  367loPI   C1A 5863   0.180   3.582   9.093  0.2117 -0.4106  0.0677
  367loPI   C2A 5864   0.238   3.541   8.676  0.3361 -0.1309  0.1869
  367loPI   C3A 5865   0.301   3.882   8.357  0.2274  0.1177  0.0895
  367loPI   C4A 5866   0.280   3.914   7.844 -0.0523 -0.3070 -0.1676
  367loPI   C5A 5867   0.121   3.677   7.599 -0.1497 -0.1497 -0.1112
  367loPI   C6A 5868  -0.148   3.453   7.239 -0.0687 -0.0509 -0.0688
  367loPI   C1B 5869   0.433   4.050   8.944 -0.0713 -0.0388 -0.1664
  367loPI   C2B 5870   0.352   4.310   8.611 -0.1678 -0.1311  0.0914
  367loPI   C3B 5871   0.451   4.375   8.194  0.0379  0.0380 -0.0008
  367loPI   C4B 5872   0.399   4.620   7.822  0.1278 -0.1632 -0.0898
  368loPI    C1 5873   1.207   8.367  10.142 -0.1109 -0.0295  0.0903
  368loPI    C2 5874   1.580   8.450  10.260 -0.1092  0.5206 -0.2649
  368loPI    C3 5875   1.285   8.423  10.530  0.1870  0.0253  0.0246
  368loPI   PO4 5876   1.220   8.208   9.958 -0.1932 -0.0758 -0.0599
  368loPI   GL1 5877   1.246   8.095   9.580 -0.0155  0.1266  0.0887
  368loPI   GL2 5878   1.128   8.212   9.428  0.3765 -0.0420 -0.0190
  368loPI   C1A 5879   1.364   7.849   9.105 -0.1266  0.2442 -0.3041
  368loPI   C2A 5880   1.198   7.698   8.665 -0.0219 -0.1898 -0.1335
  368loPI   C3A 5881   1.081   7.666   8.206 -0.0864 -0.3809 -0.2843
  368loPI   C4A 5882   1.320   7.615   7.868 -0.0169 -0.0909  0.5077
  368loPI   C5A 5883   1.802   7.572   7.704  0.1152 -0.4080 -0.0268
  368loPI   C6A 5884   2.201   7.456   7.443 -0.0547  0.1595 -0.2672
  368loPI   C1B 5885   0.933   8.435   9.040  0.0597 -0.0956  0.1598
  368loPI   C2B 5886   0.974   8.555   8.724  0.2203 -0.2667 -0.1166
  368loPI   C3B 5887   1.036   8.567   8.271  0.1799 -0.0743 -0.2372
  368loPI   C4B 5888   1.041   8.602   7.870  0.1160 -0.0759 -0.3364
  369loPI    C1 5889   5.817  10.971   9.662 -0.0960  0.0488 -0.1953
  369loPI    C2 5890   5.647  10.790   9.975 -0.2433 -0.0214 -0.3146
  369loPI    C3 5891   5.931  11.065  10.033 -0.4718  0.1750 -0.1079
  369loPI   PO4 5892   5.927  10.715   9.454 -0.2806 -0.2335  0.0739
  369loPI   GL1 5893   6.077  10.893   9.141 -0.0835  0.2638 -0.1774
  369loPI   GL2 5894   6.440  10.882   8.993 -0.3063  0.2155  0.0181
  369loPI   C1A 5895   5.980  10.749   8.766  0.3561 -0.0661  0.0543
  369loPI   C2A 5896   5.854  11.003   8.452 -0.0258  0.1926  0.0677
  369loPI   C3A 5897   5.782  11.127   8.046 -0.0104  0.0414  0.0207
  369loPI   C4A 5898   5.651  11.140   7.597  0.3101 -0.0106  0.1797
  369loPI   C5A 5899   5.153  11.096   7.503 -0.0329 -0.0501 -0.4796
  369loPI   C6A 5900   4.752  11.185   7.676  0.0876  0.0731  0.1201
  369loPI   C1B 5901   6.300  11.162   8.715 -0.0370 -0.1315  0.1994
  369loPI   C2B 5902   6.287  11.240   8.290  0.1739 -0.0144 -0.0781
  369loPI   C3B 5903   6.270  11.050   7.930 -0.0082 -0.3515  0.3487
  369loPI   C4B 5904   6.589  10.714   7.889  0.1421 -0.3749  0.3613
  370loPI    C1 5905   3.698  16.927  10.200 -0.2781 -0.1830 -0.0020
  370loPI    C2 5906   3.559  17.298  10.143 -0.0783 -0.0815  0.1570
  370loPI    C3 5907   3.345  17.034  10.355 -0.2028 -0.0457  0.0773
  370loPI   PO4 5908   3.813  16.869   9.941  0.0490  0.4246 -0.1133
  370loPI   GL1 5909   3.793  16.797   9.467  0.0607  0.0894  0.2223
  370loPI   GL2 5910   3.520  16.566   9.476  0.2640  0.2533  0.0567
  370loPI   C1A 5911   3.554  16.884   9.117 -0.0128  0.2115 -0.2893
  370loPI   C2A 5912   3.447  16.565   8.712  0.0452 -0.0645 -0.3412
  370loPI   C3A 5913   3.294  16.255   8.410  0.0615  0.0318  0.2289
  370loPI   C4A 5914   3.488  15.886   8.210 -0.0737 -0.2329 -0.0424
  370loPI   C5A 5915   3.780  15.626   7.818  0.2043  0.0955  0.2007
  370loPI   C6A 5916   3.953  15.120   7.793 -0.1817  0.0469  0.2746
  370loPI   C1B 5917   3.329  16.317   9.191 -0.1925 -0.1006 -0.2971
  370loPI   C2B 5918   3.312  15.945   8.967  0.1050  0.2861 -0.0530
  370loPI   C3B 5919   3.452  15.639   8.719 -0.0857  0.3492 -0.4605
  370loPI   C4B 5920   3.578  15.413   8.276  0.0314 -0.0670 -0.3266
  371loPI    C1 5921   6.851  12.473   9.676  0.3349  0.0557  0.0440
  371loPI    C2 5922   6.663  12.612  10.000 -0.1366 -0.0552 -0.1744
  371loPI    C3 5923   6.870  12.270  10.020  0.3061  0.2217  0.1442
  371loPI   PO4 5924   6.689  12.417   9.439 -0.1511  0.0394 -0.3478
  371loPI   GL1 5925   6.610  12.534   9.054 -0.1167  0.2833  0.0310
  371loPI   GL2 5926   6.332  12.834   9.200  0.1290 -0.1335 -0.0375
  371loPI   C1A 5927   6.407  12.348   8.754  0.3635  0.2471 -0.2644
  371loPI   C2A 5928   6.425  12.488   8.310 -0.3361 -0.0996  0.1191
  371loPI   C3A 5929   6.486  12.329   7.990  0.2816  0.3256 -0.0512
  371loPI   C4A 5930   6.458  12.427   7.495  0.1222 -0.0264  0.1103
  371loPI   C5A 5931   6.680  12.781   7.403 -0.0405  0.4809 -0.0779
  371loPI   C6A 5932   6.974  12.896   7.513  0.1817  0.0397 -0.3079
  371loPI   C1B 5933   6.199  12.800   8.873  0.0631 -0.0822  0.0627
  371loPI   C2B 5934   5.970  12.695   8.523  0.0323  0.2189  0.0273
  371loPI   C3B 5935   5.768  12.557   8.133  0.3768  0.1831  0.0649
  371loPI   C4B 5936   5.524  12.247   7.951  0.1289  0.3578  0.4260
  372loPI    C1 5937  16.119   2.791   9.783  0.0452  0.1663 -0.0555
  372loPI    C2 5938  16.335   2.749  10.117  0.2888  0.4047 -0.1782
  372loPI    C3 5939  16.472   2.603   9.771 -0.0366  0.0166 -0.1516
  372loPI   PO4 5940  15.895   2.710   9.763  0.0029 -0.1154 -0.2410
  372loPI   GL1 5941  15.617   2.470   9.567  0.1619  0.2510 -0.0128
  372loPI   GL2 5942  15.304   2.454   9.624  0.0696  0.1844  0.0827
  372loPI   C1A 5943  15.577   2.529   9.149  0.3096  0.2746  0.0804
  372loPI   C2A 5944  15.809   2.284   8.841 -0.0067  0.1791 -0.0779
  372loPI   C3A 5945  15.651   2.269   8.446  0.2968 -0.2666  0.1671
  372loPI   C4A 5946  15.884   2.253   8.094  0.0124  0.3294 -0.2088
  372loPI   C5A 5947  16.202   2.053   7.856  0.1775  0.3208  0.0831
  372loPI   C6A 5948  16.160   1.868   7.442  0.0504  0.0266 -0.3111
  372loPI   C1B 5949  15.078   2.425   9.186 -0.2112  0.1360  0.1103
  372loPI   C2B 5950  14.806   2.358   8.710  0.4067 -0.1428  0.0658
  372loPI   C3B 5951  14.671   2.269   8.357 -0.1802  0.0149 -0.4105
  372loPI   C4B 5952  14.481   2.002   8.090 -0.1422 -0.0977  0.0420
  373loPI    C1 5953   7.072   1.342  10.579 -0.2197  0.1027 -0.3117
  373loPI    C2 5954   6.745   1.442  10.786 -0.0540  0.1088 -0.0479
  373loPI    C3 5955   6.919   1.710  10.545 -0.0869  0.1927  0.0207
  373loPI   PO4 5956   6.947   1.088  10.472 -0.0318 -0.2680 -0.1323
  373loPI   GL1 5957   6.901   1.141  10.112  0.0084 -0.1903 -0.0898
  373loPI   GL2 5958   7.055   1.377  10.038  0.0379 -0.1771  0.1290
  373loPI   C1A 5959   7.143   1.014   9.740 -0.1111  0.1431  0.0767
  373loPI   C2A 5960   7.416   0.983   9.469  0.0507  0.0714 -0.0368
  373loPI   C3A 5961   7.575   0.765   9.004 -0.1613 -0.2667  0.1140
  373loPI   C4A 5962   7.793   0.532   8.730 -0.4557  0.1174 -0.0162
  373loPI   C5A 5963   7.720   0.312   8.405 -0.0974 -0.4779  0.4280
  373loPI   C6A 5964   7.540   0.530   8.078 -0.1624 -0.2357 -0.3186
  373loPI   C1B 5965   6.724   1.573   9.688  0.1030  0.0115 -0.3290
  373loPI   C2B 5966   6.387   1.502   9.459  0.3027  0.3213  0.0298
  373loPI   C3B 5967   6.075   1.501   9.173 -0.0225  0.1330 -0.1061
  373loPI   C4B 5968   5.725   1.520   9.081 -0.1272 -0.0167 -0.2269
  374loPI    C1 5969   5.827  12.441   9.813  0.0473 -0.0786  0.0909
  374loPI    C2 5970   6.111  12.500  10.089  0.1546  0.3311 -0.0990
  374loPI    C3 5971   5.829  12.778  10.029 -0.1417  0.0394 -0.0870
  374loPI   PO4 5972   5.944  12.280   9.645 -0.2893  0.1412  0.3055
  374loPI   GL1 5973   6.049  12.385   9.183 -0.0323 -0.0984  0.1796
  374loPI   GL2 5974   6.218  12.112   9.271 -0.5144 -0.0613  0.3275
  374loPI   C1A 5975   5.728  12.390   8.897 -0.0105 -0.2380 -0.2396
  374loPI   C2A 5976   5.488  12.300   8.490 -0.3134  0.1717  0.2772
  374loPI   C3A 5977   5.570  11.921   8.351  0.0549  0.0592  0.2214
  374loPI   C4A 5978   5.424  11.747   7.872  0.4784  0.0730  0.0545
  374loPI   C5A 5979   5.762  11.884   7.538  0.0154 -0.2266  0.2021
  374loPI   C6A 5980   5.901  11.726   7.060 -0.0836  0.2766  0.1574
  374loPI   C1B 5981   6.027  11.953   8.899 -0.4078 -0.3592 -0.0990
  374loPI   C2B 5982   5.974  12.150   8.453  0.2022 -0.0007  0.1920
  374loPI   C3B 5983   6.011  12.098   7.933  0.0479  0.1675  0.0823
  374loPI   C4B 5984   5.943  12.373   7.598 -0.0890 -0.1441 -0.3953
  375loPI    C1 5985   3.843   2.930  10.163  0.0921  0.0687  0.0369
  375loPI    C2 5986   3.536   2.782   9.954  0.2895 -0.2113 -0.0610
  375loPI    C3 5987   3.607   2.650  10.324  0.2138 -0.0481  0.0131
  375loPI   PO4 5988   4.003   2.930   9.997 -0.0322  0.1666  0.2893
  375loPI   GL1 5989   4.091   2.867   9.518  0.1722  0.0710  0.0786
  375loPI   GL2 5990   3.847   2.995   9.413  0.2743 -0.0277 -0.0810
  375loPI   C1A 5991   4.168   2.559   9.260 -0.0488 -0.1980  0.0226
  375loPI   C2A 5992   4.128   2.395   8.847  0.0412  0.1610  0.2985
  375loPI   C3A 5993   3.795   2.460   8.646 -0.1548  0.4776 -0.0448
  375loPI   C4A 5994   3.464   2.143   8.539 -0.0349 -0.1744  0.0355
  375loPI   C5A 5995   3.125   2.166   8.204 -0.2003  0.0235  0.2601
  375loPI   C6A 5996   2.775   2.369   8.072 -0.2379  0.1175  0.3013
  375loPI   C1B 5997   3.936   2.907   8.998 -0.1345  0.2584 -0.0730
  375loPI   C2B 5998   3.877   2.901   8.623  0.0867 -0.1106 -0.1232
  375loPI   C3B 5999   3.868   2.855   8.121  0.2023 -0.0051  0.3038
  375loPI   C4B 6000   4.086   2.750   7.796  0.0359  0.1404  0.0245
  376loPI    C1 6001  18.255  14.852   9.667 -0.2816  0.1028 -0.1857
  376loPI    C2 6002  18.032  14.614   9.898 -0.1877  0.1699 -0.0246
  376loPI    C3 6003  18.431  14.604   9.927 -0.1814  0.2959 -0.0677
  376loPI   PO4 6004  18.152  14.834   9.374 -0.1979  0.2303  0.1276
  376loPI   GL1 6005  18.424  14.812   8.991  0.1711  0.1202  0.0675
  376loPI   GL2 6006  18.128  14.630   8.871 -0.3155 -0.2677 -0.1328
  376loPI   C1A 6007  18.673  14.675   8.671  0.1523 -0.1017 -0.2960
  376loPI   C2A 6008  18.902  14.697   8.340  0.0804  0.2055 -0.0125
  376loPI   C3A 6009  18.787  14.427   7.964  0.1331  0.1819  0.1191
  376loPI   C4A 6010  18.613  14.054   7.969 -0.4566  0.3853  0.2852
  376loPI   C5A 6011  18.386  13.713   8.061  0.0608  0.0313 -0.1397
  376loPI   C6A 6012  18.367  13.331   8.288  0.1367 -0.2414  0.0809
  376loPI   C1B 6013  18.040  14.777   8.388  0.0171  0.1233  0.2426
  376loPI   C2B 6014  17.713  14.835   8.054  0.1626  0.1573 -0.1828
  376loPI   C3B 6015  17.579  14.717   7.660 -0.0628  0.1918  0.0929
  376loPI   C4B 6016  17.440  14.566   7.262 -0.1132  0.1075 -0.1106
  377loPI    C1 6017   1.125   7.625  10.090 -0.0434  0.0452 -0.1318
  377loPI    C2 6018   1.264   7.873  10.372 -0.1532 -0.1656  0.1113
  377loPI    C3 6019   0.870   7.840  10.311 -0.1247  0.0055 -0.1866
  377loPI   PO4 6020   1.203   7.669   9.836 -0.3719  0.2853 -0.1721
  377loPI   GL1 6021   1.203   7.322   9.396 -0.3928  0.0736  0.1478
  377loPI   GL2 6022   0.952   7.664   9.387  0.2846  0.0009 -0.3479
  377loPI   C1A 6023   1.149   7.091   8.992 -0.1214  0.0586 -0.1756
  377loPI   C2A 6024   1.185   7.206   8.576 -0.1803  0.2891 -0.0307
  377loPI   C3A 6025   1.122   7.141   8.043  0.1248  0.0455  0.0455
  377loPI   C4A 6026   1.064   7.261   7.642  0.1835  0.0525  0.1082
  377loPI   C5A 6027   0.773   7.610   7.577  0.0042  0.1690  0.0814
  377loPI   C6A 6028   0.330   7.456   7.642 -0.1985 -0.1228  0.0958
  377loPI   C1B 6029   0.792   7.378   9.075  0.2214  0.1090  0.0993
  377loPI   C2B 6030   0.747   7.484   8.632  0.0422  0.1046 -0.0661
  377loPI   C3B 6031   0.638   7.738   8.348 -0.1798 -0.0723 -0.2700
  377loPI   C4B 6032   0.497   7.836   8.014  0.1370  0.3574 -0.0045
  378loPI    C1 6033  17.911   9.220  10.233 -0.1014 -0.0324 -0.1317
  378loPI    C2 6034  18.066   8.853  10.272 -0.1038 -0.0022  0.1919
  378loPI    C3 6035  17.798   8.986  10.537 -0.1498  0.2116  0.0413
  378loPI   PO4 6036  17.724   9.189   9.983  0.0462  0.1040 -0.1523
  378loPI   GL1 6037  17.740   9.251   9.516  0.3011 -0.0403  0.1923
  378loPI   GL2 6038  17.998   9.255   9.327  0.1624  0.0706 -0.4768
  378loPI   C1A 6039  17.633   9.157   9.024  0.0138  0.3691  0.1533
  378loPI   C2A 6040  17.599   8.741   8.673  0.1464  0.0136  0.0977
  378loPI   C3A 6041  17.585   8.449   8.382  0.0157 -0.1548  0.0149
  378loPI   C4A 6042  17.333   8.603   8.019 -0.1425 -0.3106  0.0603
  378loPI   C5A 6043  17.270   8.707   7.528  0.2536 -0.0093  0.1246
  378loPI   C6A 6044  17.113   8.891   7.243 -0.1700 -0.3108  0.0272
  378loPI   C1B 6045  18.189   9.095   8.971  0.2389 -0.0574  0.0338
  378loPI   C2B 6046  17.994   9.126   8.627  0.0046  0.1732  0.0636
  378loPI   C3B 6047  17.602   9.142   8.318  0.2168 -0.1824  0.0926
  378loPI   C4B 6048  17.208   8.929   8.378  0.2114  0.0225 -0.0389
  379loPI    C1 6049   1.218   0.740  10.012  0.0139  0.1283 -0.2893
  379loPI    C2 6050   1.530   0.984  10.068  0.1704 -0.1232 -0.0424
  379loPI    C3 6051   1.333   0.837  10.383 -0.1225 -0.0650 -0.1950
  379loPI   PO4 6052   1.064   0.886   9.828  0.3033  0.1579  0.0753
  379loPI   GL1 6053   0.987   0.954   9.362 -0.1355  0.1949  0.2956
  379loPI   GL2 6054   0.826   0.833   9.041  0.0961  0.1583  0.2626
  379loPI   C1A 6055   1.079   1.210   9.016  0.2287  0.0910 -0.0602
  379loPI   C2A 6056   1.104   1.337   8.620 -0.3363  0.1231 -0.0559
  379loPI   C3A 6057   1.114   1.447   8.266 -0.0937  0.1866  0.0582
  379loPI   C4A 6058   1.057   1.465   7.833 -0.0431  0.1460 -0.2747
  379loPI   C5A 6059   1.272   1.390   7.408  0.0702 -0.1805  0.0001
  379loPI   C6A 6060   1.458   1.081   7.181  0.3340  0.2656  0.3396
  379loPI   C1B 6061   0.698   1.017   8.689  0.1971  0.2268  0.3113
  379loPI   C2B 6062   0.708   1.196   8.314 -0.1222  0.1816 -0.0913
  379loPI   C3B 6063   0.712   1.056   7.989  0.0455  0.2270  0.1874
  379loPI   C4B 6064   0.520   1.037   7.549  0.1365  0.0852  0.1118
  380loPI    C1 6065   2.996  15.296   9.757  0.2595 -0.0003 -0.1011
  380loPI    C2 6066   2.915  14.927   9.628  0.0485 -0.0369  0.1290
  380loPI    C3 6067   3.169  14.981   9.932  0.1463  0.0145  0.0389
  380loPI   PO4 6068   2.809  15.445   9.795  0.0950  0.0215 -0.0970
  380loPI   GL1 6069   2.625  15.700   9.503  0.0480 -0.0806  0.0778
  380loPI   GL2 6070   2.602  15.378   9.310 -0.2829  0.5093  0.0117
  380loPI   C1A 6071   2.466  15.759   9.036 -0.2612  0.3178  0.1548
  380loPI   C2A 6072   2.450  15.800   8.555  0.1944  0.0698 -0.1529
  380loPI   C3A 6073   2.249  15.764   8.088 -0.0623 -0.3099  0.2414
  380loPI   C4A 6074   2.081  15.712   7.646  0.2858  0.1741  0.0970
  380loPI   C5A 6075   1.914  15.436   7.362  0.0810 -0.2362  0.0647
  380loPI   C6A 6076   1.886  15.346   6.871 -0.3378  0.3732  0.0769
  380loPI   C1B 6077   2.742  15.091   9.129  0.1144  0.0518 -0.0964
  380loPI   C2B 6078   2.566  14.896   8.708 -0.0885 -0.1272  0.0334
  380loPI   C3B 6079   2.665  14.724   8.265  0.1420  0.0010  0.4738
  380loPI   C4B 6080   2.423  14.959   7.970  0.0494  0.1935  0.0056
  381loPI    C1 6081   9.713   6.190  10.082 -0.0133 -0.1079  0.1071
  381loPI    C2 6082  10.030   6.382  10.233 -0.1637  0.0826  0.1843
  381loPI    C3 6083   9.685   6.373  10.436 -0.2933  0.1235 -0.0299
  381loPI   PO4 6084   9.675   6.365   9.841  0.0430  0.1722  0.1463
  381loPI   GL1 6085   9.741   6.283   9.408 -0.0814  0.0305 -0.0479
  381loPI   GL2 6086   9.405   6.294   9.404  0.2064  0.1125 -0.1020
  381loPI   C1A 6087  10.097   6.258   9.029 -0.1604  0.4073  0.2399
  381loPI   C2A 6088  10.257   6.408   8.586  0.1280  0.4481  0.1946
  381loPI   C3A 6089  10.358   6.389   8.175 -0.4316  0.1681 -0.3500
  381loPI   C4A 6090  10.485   6.285   7.779  0.2863 -0.0426 -0.0183
  381loPI   C5A 6091  10.305   6.127   7.419 -0.3909 -0.0735 -0.0775
  381loPI   C6A 6092  10.052   5.694   7.470 -0.3874 -0.0539  0.1097
  381loPI   C1B 6093   9.536   6.425   8.969 -0.1045 -0.0967 -0.2647
  381loPI   C2B 6094   9.388   6.633   8.589  0.4567 -0.0585  0.0764
  381loPI   C3B 6095   9.436   6.596   8.221  0.1148 -0.0161  0.2405
  381loPI   C4B 6096   9.608   6.756   7.850 -0.2042 -0.0477  0.2157
  382loPI    C1 6097  15.458   3.709  10.284  0.0527  0.3424 -0.1013
  382loPI    C2 6098  15.707   3.398  10.251 -0.1566  0.1540  0.0681
  382loPI    C3 6099  15.817   3.719  10.462 -0.0947  0.0306  0.2262
  382loPI   PO4 6100  15.352   3.686  10.022  0.2104  0.1322 -0.0228
  382loPI   GL1 6101  15.250   3.515   9.710 -0.0515 -0.0678  0.2680
  382loPI   GL2 6102  15.424   3.514   9.507 -0.1064 -0.0236 -0.3520
  382loPI   C1A 6103  14.986   3.261   9.448  0.0638 -0.1334 -0.2753
  382loPI   C2A 6104  14.872   3.190   9.092 -0.0539 -0.0890 -0.2044
  382loPI   C3A 6105  14.988   3.294   8.652 -0.2670 -0.1104  0.1097
  382loPI   C4A 6106  14.912   3.197   8.279  0.0140 -0.0680 -0.2277
  382loPI   C5A 6107  14.805   3.131   7.856 -0.0426  0.2296  0.0902
  382loPI   C6A 6108  14.865   3.199   7.475 -0.0640  0.1195  0.0939
  382loPI   C1B 6109  15.257   3.635   9.081  0.0696 -0.2326 -0.0071
  382loPI   C2B 6110  15.486   3.559   8.717  0.2906 -0.1252  0.1932
  382loPI   C3B 6111  15.809   3.299   8.619 -0.0409 -0.1707  0.0163
  382loPI   C4B 6112  15.992   3.092   8.333 -0.3043  0.0684  0.4359
  383loPI    C1 6113   6.573  15.481   9.842 -0.1596  0.3306  0.1780
  383loPI    C2 6114   6.214  15.387   9.692 -0.2113  0.2652  0.3402
  383loPI    C3 6115   6.493  15.103   9.736 -0.0582  0.3577  0.0009
  383loPI   PO4 6116   6.680  15.819   9.935  0.0389  0.2964  0.0664
  383loPI   GL1 6117   6.806  16.120   9.617 -0.3960 -0.4850 -0.4190
  383loPI   GL2 6118   6.936  16.399   9.651  0.2629 -0.1838 -0.1465
  383loPI   C1A 6119   6.682  15.953   9.165 -0.2624  0.3421 -0.2605
  383loPI   C2A 6120   6.653  15.972   8.818  0.0448  0.0031  0.1374
  383loPI   C3A 6121   6.390  15.797   8.403  0.4985  0.1016  0.2486
  383loPI   C4A 6122   6.359  15.611   7.972  0.0522  0.1308  0.1966
  383loPI   C5A 6123   6.242  15.211   7.820  0.3135  0.0131  0.0344
  383loPI   C6A 6124   6.300  14.743   7.656 -0.3709  0.0036  0.2440
  383loPI   C1B 6125   6.908  16.501   9.159 -0.0664  0.2415 -0.0353
  383loPI   C2B 6126   6.733  16.442   8.742  0.0724 -0.5253 -0.2443
  383loPI   C3B 6127   6.771  16.161   8.344 -0.1212 -0.0859  0.1750
  383loPI   C4B 6128   6.619  16.200   7.985  0.3131 -0.0681 -0.3767
  384loPI    C1 6129   8.887  10.989   9.890  0.0315 -0.0010  0.0480
  384loPI    C2 6130   9.019  10.656   9.712  0.0952  0.0606 -0.0210
  384loPI    C3 6131   9.076  10.709  10.105 -0.2606 -0.1853  0.0690
  384loPI   PO4 6132   8.796  11.095   9.687  0.2001  0.3828 -0.4051
  384loPI   GL1 6133   8.492  11.164   9.358  0.1727  0.1499 -0.1674
  384loPI   GL2 6134   8.129  11.145   9.404 -0.1965 -0.3235 -0.0335
  384loPI   C1A 6135   8.403  11.178   8.907  0.1390  0.1040  0.2806
  384loPI   C2A 6136   8.220  11.410   8.496 -0.1397 -0.0972 -0.1545
  384loPI   C3A 6137   8.128  11.420   8.038  0.0833 -0.1377  0.0646
  384loPI   C4A 6138   7.706  11.421   7.731 -0.2558 -0.0668 -0.0394
  384loPI   C5A 6139   7.474  11.586   7.233  0.0501 -0.2287  0.1054
  384loPI   C6A 6140   6.938  11.587   7.220  0.2103  0.0009  0.0926
  384loPI   C1B 6141   7.867  11.068   9.017 -0.0654  0.0776  0.2401
  384loPI   C2B 6142   7.810  11.166   8.518 -0.0779  0.2115 -0.0630
  384loPI   C3B 6143   7.775  11.063   8.032  0.1236 -0.1919 -0.1932
  384loPI   C4B 6144   8.027  11.036   7.621 -0.2185  0.2007 -0.0831
  385loPI    C1 6145  12.568  15.167  10.126 -0.2447  0.2113 -0.0017
  385loPI    C2 6146  12.426  14.843  10.313  0.0697 -0.0846 -0.2610
  385loPI    C3 6147  12.414  15.200  10.493 -0.0228 -0.2867  0.1455
  385loPI   PO4 6148  12.793  15.093  10.010 -0.0903  0.2919  0.5003
  385loPI   GL1 6149  12.873  14.824   9.595 -0.0601  0.2806  0.3509
  385loPI   GL2 6150  13.132  14.809   9.483  0.0996  0.2655 -0.0167
  385loPI   C1A 6151  12.693  14.716   9.186 -0.0491 -0.2724 -0.0116
  385loPI   C2A 6152  12.731  14.474   8.794 -0.1857 -0.0627  0.1053
  385loPI   C3A 6153  12.676  14.240   8.413 -0.3374 -0.1295 -0.0031
  385loPI   C4A 6154  12.802  14.191   8.035 -0.0888  0.1335 -0.1481
  385loPI   C5A 6155  12.493  14.049   7.674  0.0316  0.2740  0.0697
  385loPI   C6A 6156  12.457  13.883   7.303 -0.2271  0.0164 -0.3707
  385loPI   C1B 6157  13.165  14.793   8.985 -0.2069 -0.1833  0.2260
  385loPI   C2B 6158  13.088  14.663   8.550  0.1636 -0.0471 -0.3219
  385loPI   C3B 6159  12.966  14.628   8.030  0.0331  0.1373  0.0375
  385loPI   C4B 6160  12.735  14.531   7.637 -0.3860  0.1562  0.0856
  386loPI    C1 6161  18.091   1.375   9.850 -0.0656  0.1363  0.0295
  386loPI    C2 6162  18.339   1.442  10.157 -0.1855 -0.2167  0.2083
  386loPI    C3 6163  17.947   1.514  10.197 -0.1686 -0.0353  0.0568
  386loPI   PO4 6164  18.223   1.283   9.568 -0.1295  0.3333  0.1308
  386loPI   GL1 6165  18.246   1.148   9.234 -0.3687 -0.2978  0.1233
  386loPI   GL2 6166  18.523   1.004   9.178  0.0223  0.0340  0.0792
  386loPI   C1A 6167  18.112   1.146   8.830 -0.0755  0.0001  0.0157
  386loPI   C2A 6168  18.224   1.192   8.383 -0.2580 -0.0257  0.2228
  386loPI   C3A 6169  18.255   0.998   7.939  0.2962  0.0420  0.0128
  386loPI   C4A 6170  18.149   0.748   7.489 -0.1105 -0.3507  0.1457
  386loPI   C5A 6171  18.068   0.861   7.086  0.2243 -0.0581  0.2595
  386loPI   C6A 6172  17.835   0.858   6.589 -0.1819  0.0573  0.0854
  386loPI   C1B 6173  18.580   0.992   8.757  0.1404  0.1387 -0.0500
  386loPI   C2B 6174  18.714   0.998   8.392  0.1186 -0.0006  0.0533
  386loPI   C3B 6175  18.798   1.029   8.020  0.1422  0.1896 -0.1257
  386loPI   C4B 6176  18.566   1.131   7.639  0.3731 -0.2667  0.4419
  387loPI    C1 6177  14.238  12.411   9.598 -0.0561  0.0337  0.0191
  387loPI    C2 6178  14.028  12.751   9.606  0.2032  0.1990 -0.0553
  387loPI    C3 6179  14.179  12.601   9.945 -0.1586 -0.0037  0.0227
  387loPI   PO4 6180  14.447  12.439   9.396  0.1821  0.0179  0.2343
  387loPI   GL1 6181  14.834  12.389   9.267 -0.0326 -0.0945  0.0288
  387loPI   GL2 6182  14.976  12.505   9.552  0.0941 -0.1985 -0.7140
  387loPI   C1A 6183  14.635  12.372   8.770 -0.4110 -0.2982 -0.1785
  387loPI   C2A 6184  14.399  12.481   8.459  0.1131  0.2493 -0.0122
  387loPI   C3A 6185  14.388  12.370   8.107 -0.1727 -0.3444 -0.0614
  387loPI   C4A 6186  14.412  12.134   7.659  0.2885 -0.0953 -0.0287
  387loPI   C5A 6187  14.806  12.012   7.423  0.0690 -0.2349 -0.0597
  387loPI   C6A 6188  15.133  11.689   7.429 -0.0869 -0.0253 -0.0846
  387loPI   C1B 6189  15.273  12.718   9.335 -0.1763  0.3165 -0.1189
  387loPI   C2B 6190  15.451  12.741   8.965  0.0667  0.2659 -0.0923
  387loPI   C3B 6191  15.217  12.860   8.598  0.0234  0.0212  0.3475
  387loPI   C4B 6192  15.459  13.169   8.228  0.2958  0.1948  0.0128
  388loPI    C1 6193  15.242  14.288   9.946 -0.0012 -0.3328  0.0939
  388loPI    C2 6194  14.929  14.220  10.186 -0.0242  0.0369  0.1751
  388loPI    C3 6195  15.265  14.378  10.335  0.1083 -0.1117  0.0377
  388loPI   PO4 6196  15.114  14.081   9.758  0.3326  0.1368  0.0133
  388loPI   GL1 6197  15.081  14.113   9.390 -0.0691  0.2037  0.0856
  388loPI   GL2 6198  15.297  14.426   9.395  0.0739 -0.3778 -0.0412
  388loPI   C1A 6199  15.231  14.163   8.916 -0.2038  0.1484  0.1974
  388loPI   C2A 6200  15.139  14.318   8.523 -0.0615  0.0339 -0.0701
  388loPI   C3A 6201  15.025  14.038   8.129 -0.2703 -0.0147  0.0202
  388loPI   C4A 6202  14.749  13.695   8.212 -0.1774  0.1236  0.5902
  388loPI   C5A 6203  14.515  13.466   7.931  0.0366  0.0348 -0.2268
  388loPI   C6A 6204  14.466  13.196   7.617 -0.3437  0.2298  0.2128
  388loPI   C1B 6205  15.681  14.294   9.133  0.0794  0.1402  0.1921
  388loPI   C2B 6206  15.678  14.199   8.723  0.1573 -0.1216 -0.2541
  388loPI   C3B 6207  15.701  14.334   8.310 -0.0833  0.1852 -0.0534
  388loPI   C4B 6208  15.802  14.541   7.908  0.0234 -0.1287  0.0139
  389loPI    C1 6209   2.510   1.052  10.098 -0.1280 -0.0717 -0.0708
  389loPI    C2 6210   2.447   0.969   9.712 -0.0817 -0.3232 -0.0261
  389loPI    C3 6211   2.342   0.705   9.993  0.1234 -0.2541  0.1175
  389loPI   PO4 6212   2.808   1.194  10.070 -0.2037  0.2038 -0.2261
  389loPI   GL1 6213   3.024   1.338   9.693  0.3399  0.0828 -0.0006
  389loPI   GL2 6214   3.297   1.537   9.618 -0.1688 -0.1115  0.0679
  389loPI   C1A 6215   2.943   0.930   9.434 -0.1697 -0.3325  0.2752
  389loPI   C2A 6216   3.018   0.922   9.013  0.2915 -0.1045 -0.1906
  389loPI   C3A 6217   3.304   1.259   8.663 -0.0811  0.2678  0.3952
  389loPI   C4A 6218   3.494   1.281   8.223  0.2091  0.0387 -0.1184
  389loPI   C5A 6219   3.584   1.232   7.840 -0.2542 -0.0997  0.0182
  389loPI   C6A 6220   3.643   1.092   7.354 -0.0513  0.3251  0.1528
  389loPI   C1B 6221   3.073   1.376   9.199 -0.2800 -0.3458  0.0027
  389loPI   C2B 6222   2.822   1.390   8.876  0.2507 -0.1707 -0.0928
  389loPI   C3B 6223   2.670   1.311   8.526 -0.0544  0.2968  0.4506
  389loPI   C4B 6224   2.444   1.312   8.074  0.0105  0.0936 -0.4125
  390loPI    C1 6225   3.710  18.531  10.251 -0.0100  0.0794 -0.1480
  390loPI    C2 6226   3.338  18.385  10.226  0.0176 -0.0582  0.1921
  390loPI    C3 6227   3.614  18.194  10.443  0.2965  0.0292 -0.0782
  390loPI   PO4 6228   3.597  18.826  10.078 -0.3024  0.1692  0.0525
  390loPI   GL1 6229   3.394  18.972   9.706  0.0044 -0.0758 -0.3607
  390loPI   GL2 6230   3.280  19.111   9.397  0.2008  0.3498 -0.0117
  390loPI   C1A 6231   3.123  18.618   9.521  0.0423 -0.1870  0.0502
  390loPI   C2A 6232   2.851  18.442   9.352  0.0900  0.2156  0.5779
  390loPI   C3A 6233   2.805  18.597   8.872  0.0518  0.0899  0.3269
  390loPI   C4A 6234   2.492  18.686   8.570 -0.2153  0.0137  0.0255
  390loPI   C5A 6235   2.180  18.884   8.297  0.0656  0.1351  0.4154
  390loPI   C6A 6236   2.171  18.919   7.848  0.2089 -0.2391  0.4633
  390loPI   C1B 6237   3.444  18.771   9.171  0.0418  0.5637  0.0957
  390loPI   C2B 6238   3.340  18.457   8.893 -0.0975 -0.1037  0.1583
  390loPI   C3B 6239   3.485  18.129   8.510 -0.0343  0.2796 -0.1352
  390loPI   C4B 6240   3.352  18.193   8.051  0.2843  0.0870 -0.3415
  391loPI    C1 6241  11.554   9.005   9.832  0.1012  0.0253  0.0910
  391loPI    C2 6242  11.627   9.310  10.081 -0.1765  0.0744  0.1160
  391loPI    C3 6243  11.500   8.959  10.226 -0.1537  0.0426  0.0598
  391loPI   PO4 6244  11.787   9.041   9.630 -0.2212  0.0561  0.1726
  391loPI   GL1 6245  12.073   9.047   9.262  0.1149 -0.1767  0.0075
  391loPI   GL2 6246  11.804   9.187   9.127 -0.0819  0.0478 -0.1504
  391loPI   C1A 6247  12.122   8.704   8.877  0.2316  0.1596 -0.1249
  391loPI   C2A 6248  12.289   8.688   8.424  0.2479  0.0038 -0.1795
  391loPI   C3A 6249  12.487   8.703   8.075  0.2684 -0.1874 -0.1305
  391loPI   C4A 6250  12.850   8.469   7.892  0.1236  0.2551 -0.0998
  391loPI   C5A 6251  13.009   8.074   7.955 -0.2727  0.2778 -0.3680
  391loPI   C6A 6252  13.134   7.842   7.667 -0.1543 -0.1515  0.3242
  391loPI   C1B 6253  11.649   8.942   8.780  0.0701  0.2076 -0.0248
  391loPI   C2B 6254  11.832   8.752   8.432 -0.2079 -0.0712 -0.1671
  391loPI   C3B 6255  11.827   8.782   8.041 -0.2651  0.2014 -0.3525
  391loPI   C4B 6256  11.841   8.971   7.551 -0.0596 -0.0189 -0.0053
  392loPI    C1 6257   4.631   2.152  10.130 -0.3015 -0.1047 -0.1206
  392loPI    C2 6258   4.624   1.852  10.394 -0.0163 -0.0167 -0.0097
  392loPI    C3 6259   4.361   2.152  10.425 -0.1454 -0.1324  0.0236
  392loPI   PO4 6260   4.647   2.021   9.927  0.3396 -0.0286 -0.0778
  392loPI   GL1 6261   4.817   1.856   9.535 -0.1544  0.1853  0.1883
  392loPI   GL2 6262   5.072   2.054   9.456  0.1229 -0.3730  0.1213
  392loPI   C1A 6263   4.469   1.980   9.160 -0.1748  0.4065 -0.1796
  392loPI   C2A 6264   4.234   1.895   8.841 -0.3107 -0.2332  0.0794
  392loPI   C3A 6265   4.247   1.675   8.575 -0.3751 -0.1409  0.0370
  392loPI   C4A 6266   4.490   1.348   8.417 -0.0658  0.0590  0.0496
  392loPI   C5A 6267   4.461   1.095   8.040 -0.3569  0.3062  0.0086
  392loPI   C6A 6268   4.359   0.672   7.903 -0.2555 -0.1486 -0.0896
  392loPI   C1B 6269   5.049   1.973   8.956 -0.2128 -0.0408 -0.0823
  392loPI   C2B 6270   5.339   1.672   8.718  0.0008  0.2843 -0.0935
  392loPI   C3B 6271   5.731   1.385   8.575  0.3007 -0.0279  0.1716
  392loPI   C4B 6272   5.928   1.146   8.292 -0.2184  0.0853  0.0397
  393loPI    C1 6273   7.355   0.589  10.256  0.1772 -0.3774  0.3413
  393loPI    C2 6274   7.387   0.987  10.286 -0.2709 -0.2928 -0.1598
  393loPI    C3 6275   7.553   0.752  10.563  0.0408  0.2371  0.1189
  393loPI   PO4 6276   7.052   0.504  10.113 -0.1089  0.0933 -0.1004
  393loPI   GL1 6277   6.899   0.581   9.780  0.3596 -0.0378 -0.0935
  393loPI   GL2 6278   7.344   0.583   9.729 -0.0993  0.0503  0.0351
  393loPI   C1A 6279   6.782   0.651   9.398  0.0469  0.1536 -0.0812
  393loPI   C2A 6280   6.765   0.647   9.011  0.1900  0.2046  0.1963
  393loPI   C3A 6281   6.751   0.824   8.609  0.2463 -0.1310 -0.0439
  393loPI   C4A 6282   6.863   0.950   8.242  0.3422  0.2512 -0.1105
  393loPI   C5A 6283   6.798   1.289   8.014  0.0142 -0.0244  0.0278
  393loPI   C6A 6284   6.624   1.582   7.680 -0.1706  0.1151  0.0727
  393loPI   C1B 6285   7.214   0.519   9.256  0.1097  0.4455 -0.0463
  393loPI   C2B 6286   7.212   0.501   8.716  0.0439 -0.0207  0.1357
  393loPI   C3B 6287   7.102   0.524   8.261 -0.0701  0.1818 -0.1495
  393loPI   C4B 6288   7.131   0.565   7.741 -0.0016  0.2653 -0.2760
  394loPI    C1 6289   4.419  13.300   9.524 -0.0531  0.2297  0.0869
  394loPI    C2 6290   4.376  13.285   9.921 -0.2352 -0.2101  0.0560
  394loPI    C3 6291   4.490  12.959   9.719 -0.0083  0.0468 -0.2412
  394loPI   PO4 6292   4.180  13.444   9.476 -0.2504 -0.0033 -0.0492
  394loPI   GL1 6293   3.960  13.362   9.119 -0.1491  0.3549 -0.1441
  394loPI   GL2 6294   4.285  13.361   8.989  0.1883 -0.6008 -0.0442
  394loPI   C1A 6295   3.883  12.989   8.856  0.1316  0.1000  0.1420
  394loPI   C2A 6296   3.938  13.076   8.401  0.4579 -0.0860 -0.1463
  394loPI   C3A 6297   3.992  13.256   7.916  0.0321 -0.1490 -0.0487
  394loPI   C4A 6298   3.819  13.386   7.462 -0.1266  0.2329  0.2962
  394loPI   C5A 6299   3.686  13.192   7.089  0.0632 -0.2029 -0.1143
  394loPI   C6A 6300   3.570  12.830   7.074  0.0831 -0.5085 -0.3807
  394loPI   C1B 6301   4.611  13.598   8.772  0.1726  0.1829 -0.1000
  394loPI   C2B 6302   4.763  13.620   8.332  0.0175  0.3138 -0.1375
  394loPI   C3B 6303   4.764  13.618   7.966  0.0859  0.1644 -0.3751
  394loPI   C4B 6304   4.939  13.514   7.645  0.0570  0.1712  0.0800
  395loPI    C1 6305  11.173   4.882  10.004  0.0737 -0.0049 -0.1099
  395loPI    C2 6306  10.864   5.131   9.956  0.0887  0.0531  0.0866
  395loPI    C3 6307  11.029   5.085  10.317  0.1074 -0.2172  0.0454
  395loPI   PO4 6308  11.121   4.717   9.685 -0.0523 -0.2019  0.0638
  395loPI   GL1 6309  11.062   4.294   9.620  0.3567 -0.2328 -0.5442
  395loPI   GL2 6310  10.883   4.045   9.527 -0.2139  0.0241 -0.2420
  395loPI   C1A 6311  10.905   4.494   9.193  0.1099 -0.0030 -0.0634
  395loPI   C2A 6312  10.734   4.351   8.781  0.0416 -0.2059 -0.1468
  395loPI   C3A 6313  10.671   4.233   8.352 -0.4282 -0.2787 -0.0749
  395loPI   C4A 6314  10.862   4.125   7.915  0.0387 -0.2216  0.2182
  395loPI   C5A 6315  10.858   3.959   7.506  0.4254 -0.2306  0.0595
  395loPI   C6A 6316  11.044   3.689   7.225  0.0041 -0.1412 -0.3651
  395loPI   C1B 6317  11.030   4.045   9.069 -0.1724  0.0689 -0.0624
  395loPI   C2B 6318  11.186   4.030   8.682  0.3566 -0.0431  0.0571
  395loPI   C3B 6319  11.167   4.198   8.392  0.0710 -0.4700  0.0093
  395loPI   C4B 6320  11.332   4.349   7.951  0.2166  0.2765  0.0967
  396loPI    C1 6321   0.187   7.875   9.902  0.0673  0.2604 -0.1676
  396loPI    C2 6322   0.415   8.005  10.204  0.0058  0.0610 -0.0330
  396loPI    C3 6323   0.023   8.087  10.198 -0.0664 -0.2566  0.1410
  396loPI   PO4 6324   0.284   7.876   9.671  0.1320  0.0865 -0.4494
  396loPI   GL1 6325  -0.009   7.883   9.440  0.0843 -0.1844  0.0040
  396loPI   GL2 6326  -0.426   7.948   9.432 -0.0790  0.1604  0.0725
  396loPI   C1A 6327  -0.068   7.958   9.005  0.0830 -0.1689 -0.0715
  396loPI   C2A 6328  -0.008   8.327   8.710 -0.0749  0.1241  0.2293
  396loPI   C3A 6329   0.021   8.766   8.645  0.0010 -0.1495 -0.0227
  396loPI   C4A 6330  -0.271   8.788   8.218  0.0430  0.1346  0.0767
  396loPI   C5A 6331  -0.526   8.755   7.903 -0.0707  0.0364  0.0769
  396loPI   C6A 6332  -0.866   8.992   7.668 -0.0405  0.2691 -0.1708
  396loPI   C1B 6333  -0.623   8.198   9.084 -0.1633 -0.3036  0.0251
  396loPI   C2B 6334  -0.514   8.307   8.670  0.1547 -0.0889  0.0541
  396loPI   C3B 6335  -0.549   8.323   8.191  0.2185 -0.0022  0.0916
  396loPI   C4B 6336  -0.305   8.199   7.788  0.0274 -0.4766 -0.0727
  397loPI    C1 6337  17.854  12.708  10.210  0.1122  0.0673  0.1635
  397loPI    C2 6338  17.823  12.312  10.164 -0.0443  0.1043 -0.0693
  397loPI    C3 6339  17.594  12.501  10.432  0.0549  0.0342  0.0664
  397loPI   PO4 6340  17.937  12.748   9.963 -0.1211 -0.0457  0.1846
  397loPI   GL1 6341  17.845  12.918   9.459 -0.0348 -0.0770  0.2500
  397loPI   GL2 6342  18.092  12.811   9.281  0.1540 -0.2361  0.3596
  397loPI   C1A 6343  17.474  12.850   9.071 -0.0304 -0.0060  0.0522
  397loPI   C2A 6344  17.232  12.411   8.802  0.1984 -0.4300  0.1709
  397loPI   C3A 6345  17.079  12.352   8.403  0.0463  0.0232  0.1066
  397loPI   C4A 6346  16.686  12.343   8.227 -0.3851  0.0984  0.0324
  397loPI   C5A 6347  16.422  12.051   7.954 -0.0429 -0.3061 -0.3102
  397loPI   C6A 6348  16.494  11.721   7.704 -0.1023  0.1508 -0.0367
  397loPI   C1B 6349  17.932  13.028   8.914  0.0679 -0.1890 -0.0065
  397loPI   C2B 6350  18.008  13.010   8.385 -0.0912 -0.1072 -0.1548
  397loPI   C3B 6351  18.297  12.909   8.010 -0.2936  0.1674  0.0251
  397loPI   C4B 6352  18.447  12.970   7.655  0.1241  0.1448 -0.0707
  398loPI    C1 6353   1.105   8.805  10.245  0.1714  0.2618  0.3796
  398loPI    C2 6354   1.004   9.158  10.405 -0.4547  0.2694  0.0011
  398loPI    C3 6355   0.749   8.850  10.422 -0.1065 -0.0307 -0.0826
  398loPI   PO4 6356   1.207   8.881  10.017 -0.1422  0.2514  0.0741
  398loPI   GL1 6357   1.163   9.076   9.584 -0.1601  0.0292  0.1744
  398loPI   GL2 6358   1.069   9.274   9.413  0.3237 -0.1785 -0.2204
  398loPI   C1A 6359   1.295   8.751   9.253 -0.1828  0.2017 -0.0225
  398loPI   C2A 6360   1.383   8.796   8.732 -0.0833  0.0110 -0.1174
  398loPI   C3A 6361   1.506   8.800   8.320 -0.0761  0.0066  0.3995
  398loPI   C4A 6362   1.841   8.803   8.085 -0.1526 -0.0413  0.0931
  398loPI   C5A 6363   2.172   9.051   7.952  0.2338  0.3129 -0.2978
  398loPI   C6A 6364   2.176   9.497   7.799 -0.2696 -0.3041 -0.2317
  398loPI   C1B 6365   1.278   9.205   9.027 -0.0198 -0.0412  0.1122
  398loPI   C2B 6366   1.264   9.249   8.659  0.2264 -0.2169  0.3068
  398loPI   C3B 6367   1.216   9.191   8.317  0.1356  0.1305  0.0390
  398loPI   C4B 6368   1.105   9.158   7.821  0.1483 -0.1129 -0.0663
  399loPI    C1 6369   9.824   7.602   9.903 -0.0912  0.3500  0.0202
  399loPI    C2 6370   9.474   7.738  10.040 -0.1490 -0.0103  0.2459
  399loPI    C3 6371   9.637   7.411  10.201 -0.0182 -0.2158 -0.2836
  399loPI   PO4 6372   9.823   7.643   9.629  0.3544  0.1185  0.0847
  399loPI   GL1 6373   9.880   7.804   9.165  0.0151  0.0909  0.1551
  399loPI   GL2 6374  10.157   7.746   9.072  0.0431 -0.0224  0.1217
  399loPI   C1A 6375   9.539   7.787   8.773  0.0706 -0.1354  0.0895
  399loPI   C2A 6376   9.459   7.697   8.379  0.0918 -0.2254  0.4640
  399loPI   C3A 6377   9.165   7.922   8.028 -0.0173  0.1269 -0.0433
  399loPI   C4A 6378   9.221   8.146   7.570 -0.1627 -0.1251 -0.0385
  399loPI   C5A 6379   9.271   8.575   7.555 -0.1296  0.0659 -0.0334
  399loPI   C6A 6380   9.480   8.889   7.811  0.0063  0.1575 -0.0660
  399loPI   C1B 6381  10.079   7.733   8.652 -0.4528  0.0818  0.1594
  399loPI   C2B 6382   9.980   7.690   8.244 -0.2853  0.0889  0.0404
  399loPI   C3B 6383   9.638   7.722   7.870 -0.3941 -0.0909  0.0537
  399loPI   C4B 6384   9.308   7.584   7.606 -0.0555 -0.0979  0.0461
  400loPI    C1 6385  17.155   9.910  10.199 -0.0992  0.0239  0.2635
  400loPI    C2 6386  17.182   9.551  10.373 -0.1015 -0.0769  0.0586
  400loPI    C3 6387  17.378   9.863  10.528  0.0210 -0.1992  0.1526
  400loPI   PO4 6388  17.236   9.848   9.902  0.2018  0.2042 -0.3684
  400loPI   GL1 6389  17.563   9.666   9.669 -0.2125  0.1961  0.1140
  400loPI   GL2 6390  17.279   9.577   9.307  0.0972 -0.1766  0.1740
  400loPI   C1A 6391  17.776   9.772   9.201  0.2063  0.0372  0.0688
  400loPI   C2A 6392  17.743  10.084   8.951  0.3252  0.2274 -0.1717
  400loPI   C3A 6393  17.909  10.375   8.656 -0.1906 -0.4461  0.3185
  400loPI   C4A 6394  17.935  10.306   8.325  0.3239 -0.0372  0.1409
  400loPI   C5A 6395  18.067  10.536   7.926  0.0849 -0.2119  0.3002
  400loPI   C6A 6396  17.646  10.704   7.724  0.1760 -0.1591  0.0546
  400loPI   C1B 6397  17.356   9.512   8.794 -0.0365  0.1797 -0.1892
  400loPI   C2B 6398  17.538   9.615   8.481  0.1439  0.1568 -0.3396
  400loPI   C3B 6399  17.444   9.552   8.033 -0.0699 -0.1126 -0.0496
  400loPI   C4B 6400  17.180   9.536   7.647  0.3747 -0.2699  0.0732
  401loPI    C1 6401   8.700   9.445   9.956 -0.0452 -0.0284  0.0084
  401loPI    C2 6402   8.421   9.493   9.674 -0.0761  0.0306  0.0489
  401loPI    C3 6403   8.347   9.608  10.050  0.1076  0.3138  0.0015
  401loPI   PO4 6404   8.845   9.701   9.921 -0.0409 -0.1961  0.3132
  401loPI   GL1 6405   9.094   9.901   9.540 -0.0407 -0.3137 -0.0657
  401loPI   GL2 6406   9.372   9.787   9.337  0.2216  0.0817 -0.0874
  401loPI   C1A 6407   8.727   9.805   9.257 -0.0124  0.2086 -0.2666
  401loPI   C2A 6408   8.566   9.953   8.893 -0.1026 -0.0021 -0.1154
  401loPI   C3A 6409   8.782  10.004   8.523  0.1198  0.1846  0.0402
  401loPI   C4A 6410   8.964  10.054   8.074  0.1806 -0.1682  0.3293
  401loPI   C5A 6411   9.369  10.117   7.763 -0.2470  0.0750 -0.1130
  401loPI   C6A 6412   9.726   9.991   7.791  0.2177  0.0855 -0.0420
  401loPI   C1B 6413   9.604   9.749   9.021 -0.0105 -0.0290  0.2216
  401loPI   C2B 6414   9.743   9.467   8.689 -0.1633 -0.1666  0.1047
  401loPI   C3B 6415   9.516   9.303   8.190 -0.0165 -0.1233 -0.3381
  401loPI   C4B 6416   9.307   9.622   7.872 -0.2567  0.0498 -0.1776
  402loPI    C1 6417   1.329  13.371  10.036 -0.3536 -0.0214  0.2385
  402loPI    C2 6418   1.568  13.055  10.087  0.0638  0.2146 -0.1745
  402loPI    C3 6419   1.711  13.424  10.140 -0.2707  0.3553 -0.2228
  402loPI   PO4 6420   1.119  13.366   9.815  0.0835 -0.2220 -0.0869
  402loPI   GL1 6421   1.098  13.480   9.439 -0.0985 -0.0586 -0.0949
  402loPI   GL2 6422   1.398  13.362   9.320 -0.0688 -0.1828 -0.3450
  402loPI   C1A 6423   1.050  13.548   8.932  0.2380 -0.2558  0.0299
  402loPI   C2A 6424   0.937  13.520   8.454  0.2124 -0.0119  0.3803
  402loPI   C3A 6425   0.863  13.526   7.949  0.0447  0.2016 -0.0238
  402loPI   C4A 6426   0.797  13.742   7.602  0.3751 -0.0626  0.3295
  402loPI   C5A 6427   0.936  14.015   7.265  0.0071 -0.0079 -0.1904
  402loPI   C6A 6428   0.756  14.349   7.180 -0.1568  0.1278  0.2441
  402loPI   C1B 6429   1.227  13.010   9.097  0.2587  0.0719 -0.1940
  402loPI   C2B 6430   1.138  13.072   8.647 -0.0801 -0.2373  0.1319
  402loPI   C3B 6431   1.165  13.052   8.221  0.1150  0.0500  0.0456
  402loPI   C4B 6432   1.040  12.961   7.767 -0.1558  0.0115 -0.0748
  403loPI    C1 6433   6.004   4.772  10.032  0.3772 -0.0014 -0.2149
  403loPI    C2 6434   6.007   4.670  10.419  0.1340 -0.1204 -0.2427
  403loPI    C3 6435   6.257   4.952  10.284  0.2102 -0.0684  0.0032
  403loPI   PO4 6436   6.002   4.554   9.898 -0.0782  0.2055  0.1785
  403loPI   GL1 6437   6.067   4.222   9.530 -0.0224 -0.3628  0.0370
  403loPI   GL2 6438   6.381   4.184   9.740  0.2150 -0.0385  0.3165
  403loPI   C1A 6439   5.894   4.135   9.165  0.2156  0.2580 -0.1506
  403loPI   C2A 6440   5.887   4.034   8.744  0.3470 -0.3138  0.0885
  403loPI   C3A 6441   5.685   3.793   8.446 -0.1303  0.1452 -0.0413
  403loPI   C4A 6442   5.559   3.835   8.000  0.0502  0.0677 -0.2183
  403loPI   C5A 6443   5.274   3.783   7.744 -0.0333 -0.2828 -0.0554
  403loPI   C6A 6444   5.145   3.554   7.317  0.3784 -0.4552 -0.0472
  403loPI   C1B 6445   6.557   4.048   9.370  0.0338 -0.0767  0.4856
  403loPI   C2B 6446   6.417   3.992   8.964  0.2782  0.0278 -0.1408
  403loPI   C3B 6447   6.336   3.903   8.566  0.1466  0.1749 -0.1556
  403loPI   C4B 6448   6.385   4.054   8.124  0.0461  0.3701  0.0608
  404loPI    C1 6449  10.035   1.971  10.753 -0.0969  0.2033 -0.0229
  404loPI    C2 6450  10.377   1.807  10.880 -0.0235  0.3694 -0.0035
  404loPI    C3 6451  10.361   2.199  10.799 -0.1585  0.3270 -0.1884
  404loPI   PO4 6452   9.944   1.761  10.619  0.2211  0.3859 -0.1485
  404loPI   GL1 6453  10.098   1.544  10.213  0.0744 -0.0513 -0.0837
  404loPI   GL2 6454   9.848   1.594  10.116 -0.2120 -0.1750 -0.0095
  404loPI   C1A 6455  10.251   1.424   9.688  0.3111 -0.0105  0.1902
  404loPI   C2A 6456  10.141   1.693   9.215 -0.1140 -0.1600 -0.0826
  404loPI   C3A 6457  10.221   1.806   8.787 -0.4830 -0.0027  0.0201
  404loPI   C4A 6458  10.155   2.104   8.551 -0.1675 -0.0125 -0.1677
  404loPI   C5A 6459  10.191   2.400   8.310 -0.1049  0.2095  0.2549
  404loPI   C6A 6460  10.529   2.615   8.309 -0.1664 -0.0410 -0.0288
  404loPI   C1B 6461   9.992   1.915   9.758  0.0321 -0.1240 -0.0320
  404loPI   C2B 6462  10.177   2.126   9.469  0.4024  0.0942  0.0026
  404loPI   C3B 6463  10.292   2.208   9.073 -0.0533  0.0622 -0.2403
  404loPI   C4B 6464  10.441   2.403   8.778  0.2252 -0.2664  0.2079
  405loPI    C1 6465  11.299   4.228  10.229 -0.1101 -0.1159  0.0985
  405loPI    C2 6466  11.043   3.961  10.077 -0.0488 -0.1576  0.0683
  405loPI    C3 6467  10.947   4.164  10.407 -0.1794 -0.0721 -0.0215
  405loPI   PO4 6468  11.330   4.470  10.147  0.0959  0.2151  0.2819
  405loPI   GL1 6469  11.520   4.474   9.763  0.3391  0.0513  0.0504
  405loPI   GL2 6470  11.632   4.707   9.804  0.2707  0.0396  0.0995
  405loPI   C1A 6471  11.523   4.336   9.362  0.0403  0.0283 -0.2941
  405loPI   C2A 6472  11.606   4.282   8.969 -0.0421 -0.1743 -0.1608
  405loPI   C3A 6473  11.640   4.211   8.480 -0.1182  0.0393  0.1306
  405loPI   C4A 6474  11.751   4.116   8.008 -0.0294 -0.1360 -0.1123
  405loPI   C5A 6475  12.048   4.039   7.752 -0.0418 -0.0637  0.2993
  405loPI   C6A 6476  12.163   4.014   7.392  0.0981 -0.1963  0.1189
  405loPI   C1B 6477  11.722   4.757   9.389 -0.1349 -0.1950 -0.2334
  405loPI   C2B 6478  11.339   4.775   9.072  0.0204  0.1295 -0.4364
  405loPI   C3B 6479  11.153   4.611   8.690  0.0011  0.0734 -0.3040
  405loPI   C4B 6480  10.851   4.729   8.420  0.6068  0.0939 -0.1539
  406POPI    C1 6481  13.290   1.798  10.478  0.2411 -0.0073 -0.1889
  406POPI    C2 6482  13.531   1.548  10.679 -0.0743 -0.0328  0.1690
  406POPI    C3 6483  13.151   1.596  10.794 -0.2641 -0.0346 -0.4198
  406POPI   PO4 6484  13.332   1.759  10.171  0.0244  0.2231 -0.0101
  406POPI   GL1 6485  13.209   1.600   9.812  0.0820 -0.4060  0.1106
  406POPI   GL2 6486  13.111   1.546   9.555 -0.0285  0.2234  0.0366
  406POPI   C1A 6487  13.562   1.724   9.463 -0.1107  0.0364 -0.1515
  406POPI   D2A 6488  13.586   1.981   9.128 -0.3646  0.1989  0.0193
  406POPI   C3A 6489  13.899   1.849   8.725  0.0817  0.1168 -0.3856
  406POPI   C4A 6490  14.308   1.710   8.448  0.0526 -0.0873  0.1441
  406POPI   C1B 6491  12.838   1.280   9.395 -0.1363  0.0249  0.4201
  406POPI   C2B 6492  12.604   1.009   9.082  0.0649 -0.3376  0.0470
  406POPI   C3B 6493  12.415   1.007   8.663 -0.0757  0.1891 -0.2018
  406POPI   C4B 6494  12.457   0.968   8.223  0.0981 -0.0666  0.1512
  407POPI    C1 6495   6.693   5.487   9.970  0.1228 -0.0622 -0.1232
  407POPI    C2 6496   6.648   5.172  10.213 -0.1241 -0.0180 -0.1096
  407POPI    C3 6497   6.434   5.504  10.274  0.0098  0.0913 -0.2272
  407POPI   PO4 6498   6.780   5.422   9.779 -0.2730  0.1169 -0.4730
  407POPI   GL1 6499   6.728   5.809   9.427 -0.3294  0.1371 -0.0369
  407POPI   GL2 6500   6.442   5.888   9.213 -0.2012  0.2247  0.2209
  407POPI   C1A 6501   6.929   6.212   9.142  0.1034  0.0999  0.0312
  407POPI   D2A 6502   7.360   6.282   8.925 -0.1896 -0.2648  0.3592
  407POPI   C3A 6503   7.816   6.138   9.110  0.1994  0.1595 -0.2910
  407POPI   C4A 6504   8.031   6.499   9.060 -0.3911 -0.0819  0.0127
  407POPI   C1B 6505   6.605   5.890   8.933  0.0916 -0.2086  0.1404
  407POPI   C2B 6506   6.947   5.937   8.659  0.0390 -0.0819  0.3611
  407POPI   C3B 6507   7.065   5.751   8.339 -0.4269  0.0653 -0.1669
  407POPI   C4B 6508   6.976   5.439   8.093 -0.4004  0.0424 -0.1249
  408POPI    C1 6509  12.585  18.215   9.918  0.1483 -0.0632 -0.3128
  408POPI    C2 6510  12.584  18.285  10.312  0.2488 -0.2790 -0.2727
  408POPI    C3 6511  12.782  18.531  10.066  0.0454 -0.0471 -0.2092
  408POPI   PO4 6512  12.374  18.196   9.814  0.2314 -0.2236  0.0701
  408POPI   GL1 6513  12.346  18.300   9.364 -0.2239  0.1587  0.1595
  408POPI   GL2 6514  12.380  18.629   9.215  0.1442  0.1832 -0.0094
  408POPI   C1A 6515  12.375  18.245   8.913 -0.0095 -0.0365  0.2802
  408POPI   D2A 6516  12.088  18.206   8.531 -0.1038 -0.0135 -0.1437
  408POPI   C3A 6517  12.078  18.091   8.134  0.1725 -0.1408 -0.2806
  408POPI   C4A 6518  12.208  17.688   7.958  0.1466 -0.0497 -0.1037
  408POPI   C1B 6519  12.557  18.809   8.875 -0.2401 -0.2815 -0.0993
  408POPI   C2B 6520  12.805  18.831   8.523  0.1145  0.2450  0.3631
  408POPI   C3B 6521  12.931  18.669   8.051  0.1709 -0.5513 -0.1511
  408POPI   C4B 6522  12.984  18.407   7.634 -0.1706 -0.0496 -0.0758
  409POPI    C1 6523   7.773  16.756  10.343 -0.1453  0.1640 -0.0174
  409POPI    C2 6524   7.774  16.406  10.536 -0.3145 -0.1273 -0.5246
  409POPI    C3 6525   7.466  16.658  10.579 -0.2189 -0.0608 -0.2023
  409POPI   PO4 6526   7.809  16.743  10.065 -0.0085  0.1008  0.4005
  409POPI   GL1 6527   7.624  16.928   9.795  0.3810 -0.2064  0.1963
  409POPI   GL2 6528   8.022  16.868   9.540  0.3741 -0.1176  0.3441
  409POPI   C1A 6529   7.296  16.721   9.482  0.0453 -0.3089  0.1582
  409POPI   D2A 6530   7.222  16.738   8.951 -0.0902  0.1749 -0.1720
  409POPI   C3A 6531   7.196  16.507   8.551  0.0160 -0.4451  0.1570
  409POPI   C4A 6532   7.142  16.356   8.114  0.2087  0.0476  0.0299
  409POPI   C1B 6533   7.720  16.731   9.187  0.0507 -0.1955 -0.0256
  409POPI   C2B 6534   7.671  16.851   8.807  0.2361 -0.2105 -0.0543
  409POPI   C3B 6535   7.532  16.858   8.461  0.0501 -0.2094 -0.0939
  409POPI   C4B 6536   7.576  16.815   7.996  0.1078  0.1009 -0.4600
  410POPI    C1 6537   5.154  12.224   9.940 -0.0300 -0.1518 -0.1497
  410POPI    C2 6538   4.793  12.150  10.096  0.0259 -0.1332 -0.0100
  410POPI    C3 6539   5.037  12.414  10.272 -0.0360  0.1307 -0.3105
  410POPI   PO4 6540   5.125  12.273   9.665 -0.2646 -0.0176  0.1703
  410POPI   GL1 6541   4.988  12.576   9.339 -0.1186 -0.1197  0.1948
  410POPI   GL2 6542   4.909  12.872   9.371 -0.1975  0.2196  0.0812
  410POPI   C1A 6543   5.196  12.322   9.021 -0.2047  0.0670 -0.1101
  410POPI   D2A 6544   5.464  11.865   8.965  0.3315 -0.2297 -0.1169
  410POPI   C3A 6545   5.458  11.602   8.725  0.4019 -0.2735  0.1309
  410POPI   C4A 6546   5.530  11.398   8.376 -0.0635 -0.0365 -0.1336
  410POPI   C1B 6547   5.290  12.829   9.042  0.0166 -0.0300  0.0513
  410POPI   C2B 6548   5.275  12.699   8.590 -0.0664  0.0398  0.0513
  410POPI   C3B 6549   5.221  12.752   8.170 -0.1164 -0.0732  0.1080
  410POPI   C4B 6550   5.240  12.710   7.764  0.2318  0.4129 -0.1717
  411POPI    C1 6551  18.219   8.418  10.036 -0.0838 -0.0354  0.1356
  411POPI    C2 6552  18.369   8.495  10.399  0.0830  0.0403  0.0522
  411POPI    C3 6553  18.540   8.218  10.167 -0.1044 -0.1033  0.0823
  411POPI   PO4 6554  17.869   8.318  10.006 -0.1264  0.2212  0.2239
  411POPI   GL1 6555  17.660   8.450   9.581 -0.0824  0.0858 -0.2972
  411POPI   GL2 6556  17.998   8.316   9.519  0.1141  0.2231  0.1971
  411POPI   C1A 6557  17.398   8.250   9.415  0.0398 -0.2946  0.2381
  411POPI   D2A 6558  16.955   8.266   9.247  0.3692  0.0143 -0.1038
  411POPI   C3A 6559  16.731   8.066   8.866 -0.1358  0.0575 -0.0156
  411POPI   C4A 6560  16.847   7.998   8.435  0.0639 -0.1258  0.0615
  411POPI   C1B 6561  17.814   8.365   9.095 -0.3137 -0.2326  0.3722
  411POPI   C2B 6562  18.017   8.075   8.814 -0.1348  0.1234 -0.1065
  411POPI   C3B 6563  18.118   8.099   8.328 -0.0691  0.3119  0.1747
  411POPI   C4B 6564  17.855   8.261   8.041 -0.0552  0.2814  0.1318
  412POPI    C1 6565   1.852   0.568   9.983  0.0401 -0.0076  0.1115
  412POPI    C2 6566   1.969   0.763  10.311 -0.0115  0.0801  0.0782
  412POPI    C3 6567   1.698   0.471  10.339 -0.1128  0.1751  0.0966
  412POPI   PO4 6568   1.931   0.694   9.667 -0.1827 -0.1846 -0.0419
  412POPI   GL1 6569   2.019   0.946   9.367 -0.1709  0.2327  0.0263
  412POPI   GL2 6570   1.747   1.108   9.210  0.0001  0.0429 -0.1197
  412POPI   C1A 6571   2.092   0.975   8.874  0.0927 -0.1186 -0.1593
  412POPI   D2A 6572   2.429   0.928   8.700 -0.3098  0.1568  0.3004
  412POPI   C3A 6573   2.465   0.853   8.317 -0.5207 -0.0583  0.1301
  412POPI   C4A 6574   2.635   0.600   8.071 -0.2009  0.1696 -0.0983
  412POPI   C1B 6575   1.555   0.831   8.917 -0.0639 -0.3378  0.1747
  412POPI   C2B 6576   1.562   0.535   8.531  0.0119  0.0744  0.0709
  412POPI   C3B 6577   1.404   0.517   8.108  0.1109 -0.1640  0.0734
  412POPI   C4B 6578   1.631   0.624   7.792  0.0831 -0.0275  0.0983
  413POPI    C1 6579   2.513   6.379  10.037 -0.1408  0.1679  0.2294
  413POPI    C2 6580   2.627   6.738  10.171 -0.1358  0.2156  0.0987
  413POPI    C3 6581   2.676   6.415  10.400 -0.1238  0.2956  0.2098
  413POPI   PO4 6582   2.656   6.359   9.789 -0.1374 -0.0039 -0.1566
  413POPI   GL1 6583   2.664   6.267   9.382 -0.1026 -0.0398 -0.0078
  413POPI   GL2 6584   2.501   5.997   9.444 -0.0396  0.1757  0.0790
  413POPI   C1A 6585   2.627   6.335   8.982  0.4228  0.3877  0.3386
  413POPI   D2A 6586   2.559   6.569   8.590 -0.0293 -0.1017  0.0643
  413POPI   C3A 6587   2.726   6.364   8.286 -0.2710  0.0937 -0.0128
  413POPI   C4A 6588   2.845   6.125   7.971 -0.0383 -0.0623 -0.3892
  413POPI   C1B 6589   2.534   5.877   9.020  0.0777  0.2324  0.3583
  413POPI   C2B 6590   2.557   6.048   8.599 -0.0143  0.2037  0.1590
  413POPI   C3B 6591   2.535   5.821   8.235 -0.1938  0.0849  0.0342
  413POPI   C4B 6592   2.729   5.638   7.881 -0.0943  0.0225 -0.0607
  414POPI    C1 6593   3.047  17.316   9.986  0.0522 -0.2829 -0.2350
  414POPI    C2 6594   2.649  17.318   9.955  0.0483  0.1237 -0.2089
  414POPI    C3 6595   2.827  17.513  10.255  0.2598 -0.2793 -0.0656
  414POPI   PO4 6596   3.203  17.382   9.792  0.4675 -0.3750  0.0365
  414POPI   GL1 6597   3.231  17.190   9.419  0.1140 -0.0631  0.1411
  414POPI   GL2 6598   2.855  17.193   9.462 -0.1775 -0.0237  0.0562
  414POPI   C1A 6599   3.641  17.341   9.167  0.1251 -0.0519 -0.0980
  414POPI   D2A 6600   3.672  17.703   8.851  0.2258  0.1234 -0.3638
  414POPI   C3A 6601   3.960  17.983   8.555  0.0750 -0.0846 -0.0215
  414POPI   C4A 6602   4.396  18.044   8.426  0.1528 -0.2095  0.5036
  414POPI   C1B 6603   3.025  16.737   9.147  0.0861  0.0001  0.0029
  414POPI   C2B 6604   2.965  16.518   8.765  0.1103 -0.0214 -0.0608
  414POPI   C3B 6605   2.808  16.426   8.426 -0.2830 -0.1504 -0.0364
  414POPI   C4B 6606   2.722  16.426   7.908  0.2054  0.0860 -0.4690
  415POPI    C1 6607  12.566   1.992  10.422  0.1818  0.0465 -0.1861
  415POPI    C2 6608  12.743   2.329  10.301  0.3307  0.0666  0.0806
  415POPI    C3 6609  12.899   2.118  10.603  0.0361 -0.0482  0.1559
  415POPI   PO4 6610  12.409   1.879  10.215  0.0034 -0.1845  0.0847
  415POPI   GL1 6611  12.481   1.550   9.917  0.1095 -0.0237  0.0602
  415POPI   GL2 6612  12.659   1.723   9.566  0.0271  0.0285 -0.0601
  415POPI   C1A 6613  12.020   1.519   9.825 -0.3989  0.1390  0.0914
  415POPI   D2A 6614  11.750   1.735   9.772 -0.1205  0.0104  0.0984
  415POPI   C3A 6615  11.737   2.108   9.587  0.1082  0.1122 -0.0982
  415POPI   C4A 6616  11.611   2.369   9.264  0.1324  0.0381  0.1151
  415POPI   C1B 6617  12.605   1.842   9.135  0.0060  0.1452  0.1034
  415POPI   C2B 6618  12.344   1.888   8.877 -0.0358  0.0952 -0.2019
  415POPI   C3B 6619  11.867   1.954   8.786  0.3163 -0.4261  0.2647
  415POPI   C4B 6620  11.566   2.142   8.392 -0.1365 -0.4131 -0.0176
  416POPI    C1 6621  12.488   8.393   9.831 -0.0776 -0.1494  0.1712
  416POPI    C2 6622  12.119   8.413   9.983 -0.0325 -0.0054  0.2637
  416POPI    C3 6623  12.422   8.596  10.169  0.0943 -0.1611  0.2130
  416POPI   PO4 6624  12.443   8.363   9.603  0.3452  0.1801  0.0504
  416POPI   GL1 6625  12.715   8.078   9.404 -0.2175 -0.2467 -0.1090
  416POPI   GL2 6626  12.987   7.769   9.595 -0.3253 -0.0886  0.2311
  416POPI   C1A 6627  12.603   7.992   8.996  0.1097  0.1434 -0.3848
  416POPI   D2A 6628  12.552   7.977   8.647 -0.2466  0.2891  0.2238
  416POPI   C3A 6629  12.771   7.722   8.286 -0.3309 -0.1533  0.0458
  416POPI   C4A 6630  12.819   7.521   7.945 -0.1992 -0.0804  0.2496
  416POPI   C1B 6631  13.011   7.680   9.176 -0.0856 -0.0163  0.3670
  416POPI   C2B 6632  12.935   7.475   8.691  0.0475 -0.0507 -0.1618
  416POPI   C3B 6633  12.866   7.219   8.481  0.2053  0.1333  0.0152
  416POPI   C4B 6634  12.551   7.141   8.119 -0.2360 -0.1372  0.0132
  417POPI    C1 6635  11.939   0.969  10.705  0.1199  0.0037  0.1449
  417POPI    C2 6636  11.765   0.612  10.751  0.0097  0.0035 -0.2399
  417POPI    C3 6637  11.932   0.795  11.065 -0.3957 -0.1447  0.0712
  417POPI   PO4 6638  11.991   1.021  10.490  0.2850  0.0629  0.1956
  417POPI   GL1 6639  11.965   0.926   9.970 -0.0542 -0.5275  0.2318
  417POPI   GL2 6640  11.876   0.568   9.800 -0.2559  0.1652 -0.1697
  417POPI   C1A 6641  11.794   1.130   9.579  0.2886  0.1010  0.2965
  417POPI   D2A 6642  11.791   1.185   9.136  0.1372 -0.1066  0.3595
  417POPI   C3A 6643  11.761   1.007   8.796 -0.2335  0.3505  0.0725
  417POPI   C4A 6644  11.948   0.991   8.265 -0.0501  0.1881 -0.0211
  417POPI   C1B 6645  11.840   0.591   9.395  0.2059 -0.0254 -0.0895
  417POPI   C2B 6646  11.857   0.323   8.997 -0.2071 -0.1573  0.1528
  417POPI   C3B 6647  11.798   0.090   8.587  0.1358  0.1707 -0.0233
  417POPI   C4B 6648  11.679   0.180   8.103 -0.0540  0.0626 -0.2142
  418POPI    C1 6649   1.801  11.145  10.068  0.0505 -0.1110  0.0673
  418POPI    C2 6650   1.760  11.511  10.223 -0.1406 -0.1159  0.0308
  418POPI    C3 6651   1.736  11.190  10.460 -0.2890 -0.1173  0.0145
  418POPI   PO4 6652   1.686  11.094   9.842  0.0238 -0.3587 -0.0679
  418POPI   GL1 6653   1.620  11.191   9.478 -0.2859  0.1952 -0.2390
  418POPI   GL2 6654   1.879  11.384   9.399  0.1041  0.2513  0.2253
  418POPI   C1A 6655   1.254  11.123   9.232 -0.3197  0.0134  0.1216
  418POPI   D2A 6656   1.221  10.978   8.831  0.2614  0.1486 -0.0788
  418POPI   C3A 6657   1.404  11.208   8.565  0.0084  0.1652  0.0217
  418POPI   C4A 6658   1.592  11.338   8.240 -0.0631 -0.3806  0.1615
  418POPI   C1B 6659   1.696  11.356   8.964  0.0293  0.0558  0.0412
  418POPI   C2B 6660   1.707  11.621   8.627 -0.0340  0.0185  0.3402
  418POPI   C3B 6661   1.773  11.850   8.168  0.0458  0.2635 -0.1114
  418POPI   C4B 6662   1.914  12.012   7.792  0.1589  0.3296 -0.3423
  419POPI    C1 6663  14.006   0.973  10.168  0.1283 -0.1271  0.0290
  419POPI    C2 6664  13.624   0.890  10.254  0.0772  0.1111  0.0379
  419POPI    C3 6665  13.846   1.102  10.511  0.1825  0.0702 -0.0186
  419POPI   PO4 6666  14.040   1.023   9.896 -0.0564  0.0902 -0.1220
  419POPI   GL1 6667  14.052   1.108   9.514 -0.1235  0.1316 -0.2135
  419POPI   GL2 6668  13.937   1.470   9.472  0.1993 -0.0297 -0.1807
  419POPI   C1A 6669  14.220   1.174   9.202  0.1177  0.0105  0.0385
  419POPI   D2A 6670  14.465   1.121   8.866  0.2634  0.1253 -0.2862
  419POPI   C3A 6671  14.707   1.325   8.583  0.4007 -0.1146 -0.0715
  419POPI   C4A 6672  14.779   1.308   8.167 -0.1466 -0.0879  0.4777
  419POPI   C1B 6673  13.801   1.461   9.108 -0.1798  0.2180  0.1125
  419POPI   C2B 6674  13.478   1.590   8.830 -0.0659 -0.0622  0.2736
  419POPI   C3B 6675  13.262   1.677   8.447 -0.1968 -0.0492  0.1801
  419POPI   C4B 6676  12.849   1.637   8.031  0.0992 -0.2364 -0.0321
  420POPI    C1 6677   4.507  11.942   9.726 -0.1315 -0.0033 -0.1289
  420POPI    C2 6678   4.440  11.548   9.699 -0.1218  0.0083 -0.3418
  420POPI    C3 6679   4.266  11.761   9.989 -0.1030 -0.1575 -0.2071
  420POPI   PO4 6680   4.764  11.915   9.623 -0.0683 -0.1191  0.2295
  420POPI   GL1 6681   4.890  12.025   9.174  0.2478 -0.2307 -0.0868
  420POPI   GL2 6682   4.648  12.286   9.039  0.0032 -0.6859  0.0812
  420POPI   C1A 6683   4.993  12.052   8.630 -0.0585  0.2856  0.1090
  420POPI   D2A 6684   5.094  12.305   8.229 -0.0650  0.1475 -0.2269
  420POPI   C3A 6685   5.020  12.097   7.860 -0.0785  0.1387 -0.1309
  420POPI   C4A 6686   4.825  11.996   7.416 -0.0495 -0.1473 -0.0285
  420POPI   C1B 6687   4.752  12.599   8.831  0.3245  0.1157  0.2452
  420POPI   C2B 6688   4.784  12.658   8.466 -0.0343  0.1761 -0.0711
  420POPI   C3B 6689   4.674  12.700   8.159 -0.3220 -0.3580 -0.1566
  420POPI   C4B 6690   4.801  12.528   7.671  0.1859  0.1145  0.0338
  421POPI    C1 6691  11.085   3.447  10.499  0.2414 -0.0046  0.0494
  421POPI    C2 6692  11.002   3.119  10.712 -0.0606  0.2020  0.2586
  421POPI    C3 6693  11.067   3.467  10.898 -0.0340  0.3237  0.0260
  421POPI   PO4 6694  10.837   3.539  10.277 -0.4095  0.3071  0.0037
  421POPI   GL1 6695  10.694   3.306   9.898 -0.0662 -0.1763 -0.1242
  421POPI   GL2 6696  10.873   3.493   9.724  0.1266 -0.0404 -0.2322
  421POPI   C1A 6697  10.613   2.765   9.840  0.3720  0.4480  0.1094
  421POPI   D2A 6698  10.648   2.428   9.476  0.3525 -0.5725 -0.1590
  421POPI   C3A 6699  10.758   2.486   9.083 -0.0624  0.1144 -0.3991
  421POPI   C4A 6700  10.969   2.605   8.761 -0.2622 -0.3642  0.0503
  421POPI   C1B 6701  10.751   3.605   9.427 -0.2358  0.1268  0.1846
  421POPI   C2B 6702  10.628   3.734   9.053 -0.2466 -0.0272  0.1654
  421POPI   C3B 6703  10.536   3.836   8.657  0.1641  0.2729  0.1913
  421POPI   C4B 6704  10.302   3.833   8.293  0.1017  0.1288  0.0556
  422POPI    C1 6705   9.221   5.231  10.230  0.3585  0.1683 -0.0724
  422POPI    C2 6706   9.417   5.434  10.513 -0.0238  0.4623 -0.0096
  422POPI    C3 6707   9.059   5.561  10.388 -0.2607 -0.1590  0.0070
  422POPI   PO4 6708   9.401   5.238  10.000  0.3032 -0.4206 -0.0743
  422POPI   GL1 6709   9.714   5.175   9.654 -0.0886  0.0226  0.2787
  422POPI   GL2 6710   9.434   5.414   9.555 -0.0876 -0.2825  0.1641
  422POPI   C1A 6711   9.535   4.903   9.233 -0.0660 -0.1637  0.1449
  422POPI   D2A 6712   9.401   4.851   8.821 -0.0505  0.2571  0.0795
  422POPI   C3A 6713   9.131   5.181   8.613  0.1772  0.1900 -0.3753
  422POPI   C4A 6714   9.113   5.156   8.206  0.0077  0.3774  0.1063
  422POPI   C1B 6715   9.409   5.811   9.305  0.0282 -0.0291  0.1108
  422POPI   C2B 6716   9.587   5.961   8.925  0.3239  0.2878  0.0574
  422POPI   C3B 6717   9.811   6.124   8.641  0.1469  0.0577 -0.2314
  422POPI   C4B 6718   9.807   6.263   8.300  0.2097 -0.3921  0.0386
  423POPI    C1 6719   6.093  14.531  10.036 -0.1193 -0.1550 -0.1618
  423POPI    C2 6720   6.383  14.398  10.276  0.2068  0.0551 -0.4307
  423POPI    C3 6721   6.002  14.306  10.354  0.2967  0.1719  0.2011
  423POPI   PO4 6722   6.185  14.761  10.023  0.1361  0.2568 -0.2102
  423POPI   GL1 6723   6.017  14.790   9.610 -0.4956 -0.0921 -0.1755
  423POPI   GL2 6724   6.260  14.852   9.391 -0.1924 -0.1976 -0.1394
  423POPI   C1A 6725   5.834  15.030   9.244  0.0216  0.3360 -0.0130
  423POPI   D2A 6726   5.656  15.195   8.881  0.0935  0.3548  0.0405
  423POPI   C3A 6727   5.891  15.497   8.730  0.1164 -0.3705 -0.1765
  423POPI   C4A 6728   6.228  15.644   8.827  0.0515 -0.0936 -0.1486
  423POPI   C1B 6729   6.619  14.871   9.039 -0.2004 -0.5100  0.0526
  423POPI   C2B 6730   6.575  14.920   8.539  0.0822 -0.2610 -0.0566
  423POPI   C3B 6731   6.364  15.246   8.327  0.1052  0.1490 -0.1145
  423POPI   C4B 6732   6.057  15.435   8.320 -0.1489  0.1002  0.0710
  424POPI    C1 6733   3.189   3.826  10.267 -0.1052 -0.0255 -0.0693
  424POPI    C2 6734   3.080   3.511  10.488  0.2148 -0.2179 -0.1778
  424POPI    C3 6735   3.400   3.728  10.593  0.3003 -0.2412 -0.3870
  424POPI   PO4 6736   3.228   3.733   9.923 -0.0777  0.0957  0.2262
  424POPI   GL1 6737   3.297   3.606   9.531 -0.0539  0.2151  0.1381
  424POPI   GL2 6738   3.114   3.590   9.386  0.1932 -0.0749  0.1209
  424POPI   C1A 6739   3.503   3.384   9.224  0.0108  0.3398  0.5784
  424POPI   D2A 6740   3.672   3.665   8.908 -0.1255 -0.0998  0.1534
  424POPI   C3A 6741   4.009   3.420   8.738 -0.4816 -0.0971  0.2703
  424POPI   C4A 6742   4.327   3.562   8.391  0.2048 -0.1088 -0.1369
  424POPI   C1B 6743   3.100   3.498   8.832 -0.3275  0.0692  0.0227
  424POPI   C2B 6744   2.947   3.388   8.449 -0.1545 -0.1955  0.1000
  424POPI   C3B 6745   2.703   3.082   8.129 -0.1563 -0.0173  0.0898
  424POPI   C4B 6746   2.729   2.922   7.705  0.4010 -0.2148 -0.1132
  425POPI    C1 6747   0.061   5.016  10.217  0.0857 -0.2187 -0.2033
  425POPI    C2 6748  -0.205   4.756  10.363  0.0999 -0.1502 -0.0543
  425POPI    C3 6749   0.170   4.639  10.288  0.1510 -0.1334  0.1674
  425POPI   PO4 6750  -0.061   5.083   9.943  0.1668  0.4817  0.2300
  425POPI   GL1 6751  -0.088   5.141   9.534 -0.0388  0.2371  0.1457
  425POPI   GL2 6752   0.190   4.986   9.514 -0.1906 -0.2182  0.0872
  425POPI   C1A 6753  -0.103   5.258   9.242 -0.1385 -0.2005  0.2119
  425POPI   D2A 6754  -0.024   5.234   8.895 -0.2573 -0.3638 -0.0020
  425POPI   C3A 6755  -0.104   5.173   8.496 -0.1424 -0.0546  0.1506
  425POPI   C4A 6756  -0.165   5.325   8.003  0.2547 -0.2204 -0.1101
  425POPI   C1B 6757   0.244   4.908   9.132  0.2443 -0.0601  0.2655
  425POPI   C2B 6758   0.306   4.884   8.705 -0.1458 -0.2506  0.1373
  425POPI   C3B 6759   0.275   4.867   8.309 -0.1851  0.0990 -0.1911
  425POPI   C4B 6760  -0.113   4.831   7.902 -0.2276  0.2895 -0.2922
  426POPI    C1 6761  17.735   3.939   9.540 -0.0130  0.0070  0.0107
  426POPI    C2 6762  17.538   3.699   9.792  0.0629 -0.2168 -0.1395
  426POPI    C3 6763  17.864   3.566   9.603  0.0798 -0.0091 -0.2603
  426POPI   PO4 6764  17.854   4.128   9.743  0.0122  0.2953  0.1380
  426POPI   GL1 6765  18.128   4.352   9.471 -0.1711  0.0214  0.0267
  426POPI   GL2 6766  18.330   4.561   9.481  0.0549  0.0325 -0.2514
  426POPI   C1A 6767  17.942   4.356   8.966  0.0718 -0.2861 -0.0519
  426POPI   D2A 6768  17.934   4.333   8.618 -0.0759  0.1023  0.2241
  426POPI   C3A 6769  17.939   4.403   8.262  0.0356 -0.0127  0.0430
  426POPI   C4A 6770  18.127   4.578   7.958 -0.1774 -0.1662 -0.4054
  426POPI   C1B 6771  18.718   4.711   9.381 -0.1483 -0.1551 -0.0612
  426POPI   C2B 6772  18.751   4.829   9.057 -0.5578  0.3040 -0.5353
  426POPI   C3B 6773  18.936   4.644   8.749 -0.0011 -0.2836  0.1257
  426POPI   C4B 6774  19.036   4.504   8.300  0.0689  0.0574 -0.3958
  427POPI    C1 6775  14.415   7.217  10.142  0.1566  0.0096 -0.0297
  427POPI    C2 6776  14.378   6.931  10.419  0.1384  0.1689  0.1335
  427POPI    C3 6777  14.726   7.124  10.377  0.1836  0.0499 -0.0492
  427POPI   PO4 6778  14.252   7.089   9.887 -0.1899  0.1285 -0.2001
  427POPI   GL1 6779  14.236   6.876   9.460  0.0112 -0.3484  0.2212
  427POPI   GL2 6780  14.404   7.147   9.368 -0.1805 -0.1318 -0.0454
  427POPI   C1A 6781  14.332   6.695   9.114  0.0518 -0.0077  0.0642
  427POPI   D2A 6782  14.516   6.467   8.869  0.0042 -0.0807  0.1585
  427POPI   C3A 6783  14.533   6.435   8.339  0.0422  0.5116 -0.1445
  427POPI   C4A 6784  14.338   6.332   7.941  0.2373 -0.0641 -0.2258
  427POPI   C1B 6785  14.404   7.186   8.976  0.1717  0.1079 -0.3674
  427POPI   C2B 6786  14.461   6.997   8.573 -0.1299  0.0133 -0.0022
  427POPI   C3B 6787  14.202   6.787   8.299 -0.1813 -0.0506  0.2431
  427POPI   C4B 6788  14.043   6.833   7.897 -0.0616  0.0141 -0.1532
  428POPI    C1 6789  11.927   7.962   9.807  0.0684  0.0630  0.0012
  428POPI    C2 6790  12.310   7.924   9.699  0.0975  0.2818  0.0229
  428POPI    C3 6791  12.209   7.912  10.086  0.0206 -0.2724 -0.0070
  428POPI   PO4 6792  11.826   8.134   9.574 -0.3424 -0.0243 -0.2026
  428POPI   GL1 6793  11.685   7.932   9.224 -0.0499 -0.0488  0.3329
  428POPI   GL2 6794  11.388   8.132   9.252  0.0687  0.4151  0.0109
  428POPI   C1A 6795  11.774   8.248   8.874  0.3599 -0.1031  0.1297
  428POPI   D2A 6796  12.108   8.238   8.667  0.4280  0.0085  0.0571
  428POPI   C3A 6797  11.994   8.287   8.250  0.2226 -0.0805  0.3581
  428POPI   C4A 6798  12.025   8.399   7.792 -0.5047  0.0459  0.0964
  428POPI   C1B 6799  11.240   8.069   8.862  0.3215  0.2981 -0.2757
  428POPI   C2B 6800  11.069   8.074   8.494 -0.2441 -0.1550 -0.2544
  428POPI   C3B 6801  10.751   7.969   8.256 -0.0688 -0.1898  0.0011
  428POPI   C4B 6802  10.515   7.709   8.063  0.1161  0.2113 -0.1045
  429POPI    C1 6803   1.388   4.219  10.381  0.4322  0.0511 -0.1319
  429POPI    C2 6804   1.311   4.601  10.473  0.3370 -0.0087  0.0419
  429POPI    C3 6805   1.486   4.362  10.742 -0.0671 -0.2227  0.1225
  429POPI   PO4 6806   1.193   4.145  10.232 -0.0982 -0.0593  0.0600
  429POPI   GL1 6807   1.082   4.198   9.776  0.0153  0.0276  0.1584
  429POPI   GL2 6808   0.820   4.078   9.642 -0.0158 -0.1851  0.0796
  429POPI   C1A 6809   1.360   4.339   9.506  0.0327  0.0672  0.2749
  429POPI   D2A 6810   1.726   4.086   9.196 -0.1731  0.3768 -0.0560
  429POPI   C3A 6811   1.679   4.332   8.758  0.0308  0.2919  0.3507
  429POPI   C4A 6812   1.637   4.359   8.352 -0.2215 -0.0394  0.1827
  429POPI   C1B 6813   0.856   4.139   9.159 -0.1700 -0.1381 -0.3702
  429POPI   C2B 6814   0.905   4.106   8.738 -0.1492 -0.1093 -0.0058
  429POPI   C3B 6815   0.821   3.999   8.334 -0.3412 -0.1707 -0.1405
  429POPI   C4B 6816   0.769   4.088   7.967 -0.1669  0.0612 -0.0875
  430POPI    C1 6817  13.352  17.536  10.358 -0.0646  0.1155  0.0677
  430POPI    C2 6818  13.703  17.349  10.320 -0.0415  0.2127 -0.2180
  430POPI    C3 6819  13.364  17.137  10.335  0.0342  0.1112  0.1823
  430POPI   PO4 6820  13.339  17.721  10.098  0.2405 -0.1604 -0.0935
  430POPI   GL1 6821  13.315  17.655   9.496 -0.1783 -0.3178 -0.4072
  430POPI   GL2 6822  13.592  17.594   9.306  0.1430 -0.2248  0.1757
  430POPI   C1A 6823  13.187  17.269   9.458  0.2955 -0.2065 -0.0342
  430POPI   D2A 6824  13.053  16.864   9.592  0.1145  0.3318 -0.2805
  430POPI   C3A 6825  12.673  16.611   9.466  0.0928 -0.0332  0.2141
  430POPI   C4A 6826  12.292  16.596   9.659  0.0302 -0.2010 -0.2555
  430POPI   C1B 6827  13.487  17.465   8.873 -0.1816  0.1457 -0.2117
  430POPI   C2B 6828  13.426  17.224   8.572 -0.1152  0.0363  0.1414
  430POPI   C3B 6829  13.463  17.251   8.122  0.1569  0.0981  0.0840
  430POPI   C4B 6830  13.706  17.283   7.817  0.0708  0.3916 -0.0396
  431POPI    C1 6831   3.686  15.743  10.191 -0.2034  0.1298 -0.2166
  431POPI    C2 6832   3.466  15.412  10.237  0.0680 -0.0388 -0.1035
  431POPI    C3 6833   3.437  15.709  10.503 -0.0231 -0.0590 -0.0904
  431POPI   PO4 6834   3.625  15.826   9.939 -0.3060 -0.1240 -0.1644
  431POPI   GL1 6835   3.358  16.005   9.637  0.2580  0.0953  0.0242
  431POPI   GL2 6836   3.100  15.790   9.526  0.0411 -0.1737  0.3705
  431POPI   C1A 6837   3.536  15.702   9.292 -0.1680 -0.1013  0.0896
  431POPI   D2A 6838   4.009  15.648   9.157  0.2695 -0.2155  0.1364
  431POPI   C3A 6839   4.141  15.317   9.177 -0.0013 -0.0185  0.2087
  431POPI   C4A 6840   4.271  14.823   9.160 -0.1599  0.1663  0.2343
  431POPI   C1B 6841   3.010  15.626   9.116 -0.1808 -0.1423 -0.5676
  431POPI   C2B 6842   2.844  15.475   8.735 -0.0644 -0.0028  0.1153
  431POPI   C3B 6843   3.067  15.517   8.369 -0.1767  0.0324  0.1224
  431POPI   C4B 6844   3.228  15.559   7.946  0.3511  0.2601 -0.1425
  432POPI    C1 6845   8.115   0.614  10.463 -0.0592  0.0558 -0.0173
  432POPI    C2 6846   7.968   0.443  10.794  0.1788 -0.2856 -0.0820
  432POPI    C3 6847   8.041   0.837  10.787 -0.3376 -0.1794  0.0850
  432POPI   PO4 6848   7.928   0.484  10.254  0.1108 -0.0268 -0.2737
  432POPI   GL1 6849   7.648   0.207   9.987  0.3998  0.2241  0.1198
  432POPI   GL2 6850   7.323   0.150   9.937  0.3541  0.1255 -0.1154
  432POPI   C1A 6851   7.636  -0.171   9.590  0.2927  0.0309  0.0110
  432POPI   D2A 6852   7.695  -0.637   9.368  0.0073  0.1119 -0.2268
  432POPI   C3A 6853   7.607  -0.756   8.955  0.2638 -0.2401  0.2108
  432POPI   C4A 6854   7.565  -0.568   8.505  0.1976  0.0217  0.3386
  432POPI   C1B 6855   7.256   0.088   9.492  0.1553 -0.1885 -0.2210
  432POPI   C2B 6856   7.083   0.076   9.074 -0.2042  0.0194 -0.1614
  432POPI   C3B 6857   7.241  -0.075   8.643 -0.2936 -0.1190  0.3016
  432POPI   C4B 6858   7.025   0.047   8.296  0.0416 -0.2568  0.0845
  433POPI    C1 6859  15.944  17.435   9.943  0.0613  0.0266 -0.1044
  433POPI    C2 6860  16.198  17.718  10.065  0.0366  0.0263 -0.0517
  433POPI    C3 6861  16.063  17.445  10.325 -0.0794  0.0747 -0.0612
  433POPI   PO4 6862  16.072  17.450   9.641  0.1257 -0.0713  0.4400
  433POPI   GL1 6863  16.005  17.233   9.237 -0.3908 -0.1815 -0.0226
  433POPI   GL2 6864  16.326  17.294   9.102  0.5241  0.1094 -0.1121
  433POPI   C1A 6865  15.688  17.345   8.994 -0.1309  0.1407  0.4766
  433POPI   D2A 6866  15.425  17.085   9.048 -0.0401  0.3165  0.2742
  433POPI   C3A 6867  15.477  16.854   8.712 -0.0147  0.0275  0.3988
  433POPI   C4A 6868  15.312  16.709   8.330 -0.1831  0.0122 -0.1325
  433POPI   C1B 6869  16.130  17.197   8.758  0.2153 -0.1889  0.1851
  433POPI   C2B 6870  15.760  17.157   8.497  0.1226 -0.1128 -0.2266
  433POPI   C3B 6871  15.554  17.294   8.173  0.2739 -0.0213  0.2697
  433POPI   C4B 6872  15.593  17.290   7.771  0.0474 -0.1830 -0.0567
  434POPI    C1 6873  15.641  17.999   9.865 -0.0452 -0.0437 -0.0130
  434POPI    C2 6874  15.778  17.892  10.225  0.0873  0.1140 -0.0154
  434POPI    C3 6875  15.978  18.160  10.006  0.0984 -0.1046 -0.2794
  434POPI   PO4 6876  15.646  17.799   9.732  0.2094  0.0826  0.5428
  434POPI   GL1 6877  15.724  17.661   9.353 -0.2538  0.2940  0.0842
  434POPI   GL2 6878  15.428  17.472   9.390 -0.3036  0.4378 -0.1153
  434POPI   C1A 6879  15.589  17.781   9.027 -0.0627 -0.1709  0.3572
  434POPI   D2A 6880  15.721  18.147   8.590 -0.1301  0.1374 -0.0629
  434POPI   C3A 6881  15.633  18.123   8.139 -0.0294  0.2096 -0.0750
  434POPI   C4A 6882  15.661  17.795   7.910  0.3405  0.3564  0.2091
  434POPI   C1B 6883  15.153  17.501   8.970  0.3150 -0.0372 -0.1330
  434POPI   C2B 6884  15.296  17.287   8.589 -0.0143  0.0582 -0.1320
  434POPI   C3B 6885  15.077  17.168   8.239  0.2614  0.1551  0.1258
  434POPI   C4B 6886  14.725  17.203   7.884 -0.0868  0.0125 -0.3607
  435POPI    C1 6887   0.169  12.298   9.767 -0.1293  0.0809 -0.2427
  435POPI    C2 6888   0.075  12.039  10.056 -0.0381  0.4030  0.0833
  435POPI    C3 6889   0.435  12.213  10.053  0.0048  0.3161 -0.2949
  435POPI   PO4 6890  -0.068  12.160   9.590 -0.2632 -0.0334  0.3432
  435POPI   GL1 6891  -0.311  12.006   9.320  0.2669 -0.2163 -0.2832
  435POPI   GL2 6892  -0.270  11.647   9.476  0.1471 -0.1749  0.0833
  435POPI   C1A 6893  -0.149  11.963   8.924  0.0834 -0.1868 -0.3352
  435POPI   D2A 6894   0.086  11.986   8.479 -0.0434  0.3888 -0.0274
  435POPI   C3A 6895   0.169  11.903   8.047  0.1132  0.1331 -0.2275
  435POPI   C4A 6896   0.256  11.468   7.903 -0.0438  0.1061 -0.0144
  435POPI   C1B 6897  -0.116  11.443   9.188  0.0242  0.2171 -0.3027
  435POPI   C2B 6898   0.004  11.488   8.640 -0.3780 -0.0444 -0.2459
  435POPI   C3B 6899  -0.176  11.516   8.123 -0.0904  0.1997 -0.0102
  435POPI   C4B 6900  -0.218  11.268   7.710  0.3774 -0.2275 -0.3314
  436POPI    C1 6901  18.230   6.860  10.106  0.3965 -0.1960  0.2753
  436POPI    C2 6902  18.000   6.843  10.433 -0.3603  0.1235 -0.2139
  436POPI    C3 6903  18.189   7.183  10.339 -0.0147 -0.0147 -0.0368
  436POPI   PO4 6904  18.146   6.763   9.892  0.1078  0.0782 -0.1514
  436POPI   GL1 6905  18.157   6.958   9.457 -0.1289  0.1673  0.1460
  436POPI   GL2 6906  18.109   7.247   9.260  0.2102  0.0113 -0.4063
  436POPI   C1A 6907  18.327   6.696   9.035  0.0774  0.2782 -0.0532
  436POPI   D2A 6908  18.711   6.678   8.820  0.1829 -0.0562  0.1437
  436POPI   C3A 6909  18.704   6.785   8.387 -0.0463 -0.4686  0.4194
  436POPI   C4A 6910  18.783   6.661   7.940 -0.4294  0.0417  0.1193
  436POPI   C1B 6911  17.999   7.389   8.952 -0.1622 -0.0795 -0.2965
  436POPI   C2B 6912  17.990   7.617   8.577 -0.3431  0.3762  0.6370
  436POPI   C3B 6913  17.713   7.685   8.354 -0.1581 -0.0715  0.0511
  436POPI   C4B 6914  17.749   7.794   7.910  0.0032  0.1682 -0.0142
  437POPI    C1 6915   3.858   6.219  10.573  0.3668 -0.0468 -0.0494
  437POPI    C2 6916   4.090   5.926  10.715  0.1273 -0.1551  0.1261
  437POPI    C3 6917   3.695   5.914  10.774  0.1265  0.2656  0.2411
  437POPI   PO4 6918   4.060   6.316  10.310 -0.1887  0.1460  0.2671
  437POPI   GL1 6919   4.097   6.212   9.923 -0.0795 -0.2303  0.0136
  437POPI   GL2 6920   4.258   6.340   9.655 -0.1231 -0.3667  0.0033
  437POPI   C1A 6921   3.866   5.923   9.758 -0.2207  0.0827  0.0491
  437POPI   D2A 6922   3.661   5.573   9.447 -0.2217  0.3060 -0.0490
  437POPI   C3A 6923   3.282   5.534   9.225 -0.2565 -0.1106 -0.1262
  437POPI   C4A 6924   3.116   5.731   8.901  0.1480  0.4150  0.0779
  437POPI   C1B 6925   4.190   6.276   9.152 -0.0209 -0.0726 -0.4521
  437POPI   C2B 6926   4.132   6.247   8.802  0.0214  0.0681  0.0147
  437POPI   C3B 6927   4.242   6.493   8.490  0.3274  0.0520  0.1256
  437POPI   C4B 6928   4.476   6.624   8.180  0.0733 -0.3242  0.3135
  438POPI    C1 6929   5.129  15.129  10.083 -0.2962 -0.1178  0.1565
  438POPI    C2 6930   4.748  15.205   9.985 -0.1916 -0.1657 -0.3137
  438POPI    C3 6931   4.831  14.954  10.285 -0.5295 -0.2302 -0.2701
  438POPI   PO4 6932   5.296  15.029   9.897  0.0537 -0.1120 -0.1169
  438POPI   GL1 6933   5.174  14.980   9.537 -0.0888 -0.2109  0.1928
  438POPI   GL2 6934   5.008  15.264   9.441 -0.2259 -0.0792  0.0150
  438POPI   C1A 6935   5.158  14.842   9.216  0.0892 -0.1831  0.3359
  438POPI   D2A 6936   4.828  14.620   9.095  0.3557  0.1419  0.1007
  438POPI   C3A 6937   4.762  14.565   8.695 -0.0827  0.2592  0.2158
  438POPI   C4A 6938   4.633  14.571   8.357  0.0716  0.2131  0.0998
  438POPI   C1B 6939   5.178  15.272   8.994  0.1347  0.5711 -0.0762
  438POPI   C2B 6940   5.197  15.059   8.623 -0.0754  0.1453 -0.0815
  438POPI   C3B 6941   5.079  14.830   8.384  0.2322 -0.2716 -0.2290
  438POPI   C4B 6942   4.891  14.741   7.952  0.1911 -0.2574 -0.2548
  439POPI    C1 6943  12.963  19.012   9.787  0.0431 -0.0065  0.2041
  439POPI    C2 6944  13.359  19.009   9.737  0.0188 -0.0970  0.0116
  439POPI    C3 6945  13.171  18.680   9.864 -0.0158 -0.1096 -0.0715
  439POPI   PO4 6946  12.873  19.353   9.632  0.0457 -0.0359 -0.2641
  439POPI   GL1 6947  12.885  19.416   9.280 -0.2556  0.1272  0.0130
  439POPI   GL2 6948  13.068  19.014   9.274  0.2118  0.1568 -0.0168
  439POPI   C1A 6949  12.612  19.593   8.864 -0.1139 -0.1255  0.1522
  439POPI   D2A 6950  12.483  19.529   8.458  0.1527  0.4644  0.0032
  439POPI   C3A 6951  12.497  19.517   7.986  0.0572 -0.3711 -0.4269
  439POPI   C4A 6952  12.451  19.280   7.535 -0.1480 -0.1042 -0.1404
  439POPI   C1B 6953  12.999  19.193   8.855 -0.0190  0.0740  0.1289
  439POPI   C2B 6954  12.937  19.388   8.462 -0.1192  0.4686  0.1502
  439POPI   C3B 6955  12.942  19.313   8.121  0.2940  0.0699 -0.1642
  439POPI   C4B 6956  12.620  19.044   7.988  0.1324 -0.0822 -0.3453
  440POPI    C1 6957   5.132   2.017  10.009  0.1457  0.0524 -0.2530
  440POPI    C2 6958   5.081   2.139  10.387 -0.1285 -0.2110 -0.2009
  440POPI    C3 6959   5.408   2.248  10.184  0.1071 -0.2108  0.1697
  440POPI   PO4 6960   5.029   1.723   9.999 -0.1241 -0.3171  0.4427
  440POPI   GL1 6961   4.935   1.372   9.614 -0.0357  0.1330 -0.0508
  440POPI   GL2 6962   4.848   0.973   9.694 -0.0724 -0.1340  0.0664
  440POPI   C1A 6963   4.643   1.508   9.276 -0.0851  0.4328 -0.3154
  440POPI   D2A 6964   4.377   1.247   9.025  0.0100 -0.1303  0.0016
  440POPI   C3A 6965   4.602   1.026   8.810  0.1480  0.0028 -0.0009
  440POPI   C4A 6966   4.760   0.568   8.923 -0.0569 -0.2494  0.1041
  440POPI   C1B 6967   5.226   0.894   9.578  0.1407  0.1313  0.0167
  440POPI   C2B 6968   5.473   1.156   9.257 -0.0733 -0.1154  0.0010
  440POPI   C3B 6969   5.807   1.037   9.132  0.3321  0.0337 -0.0378
  440POPI   C4B 6970   6.122   1.145   8.875  0.1478  0.1431  0.0307
  441POPI    C1 6971  16.534   0.380   9.635 -0.1702  0.0206 -0.0639
  441POPI    C2 6972  16.265   0.338   9.928  0.0566 -0.1544  0.1231
  441POPI    C3 6973  16.644   0.428  10.017  0.0685  0.0636 -0.1365
  441POPI   PO4 6974  16.563   0.109   9.391 -0.1071  0.2127 -0.1835
  441POPI   GL1 6975  16.373   0.254   9.094 -0.1118 -0.0552  0.4176
  441POPI   GL2 6976  16.132   0.392   8.906 -0.0531 -0.1666 -0.0016
  441POPI   C1A 6977  16.520   0.121   8.745 -0.1228 -0.0832 -0.1475
  441POPI   D2A 6978  16.833   0.059   8.568 -0.1424  0.1598 -0.0700
  441POPI   C3A 6979  16.940  -0.331   8.646 -0.0550 -0.1752  0.1600
  441POPI   C4A 6980  17.245  -0.714   8.669  0.1097 -0.4137  0.0928
  441POPI   C1B 6981  16.240   0.430   8.428  0.3401  0.5367  0.2792
  441POPI   C2B 6982  16.229   0.467   7.898 -0.0617 -0.1334  0.1191
  441POPI   C3B 6983  16.499   0.306   7.591  0.0516 -0.2048  0.4155
  441POPI   C4B 6984  16.849   0.125   7.324  0.0395  0.1912 -0.0607
  442POPI    C1 6985   5.230  17.211  10.279 -0.2137 -0.0887  0.1657
  442POPI    C2 6986   5.102  17.148  10.652 -0.1993 -0.2904  0.1379
  442POPI    C3 6987   5.246  16.844  10.437  0.0968 -0.1144  0.0819
  442POPI   PO4 6988   5.129  17.409  10.237 -0.0748  0.0485  0.3409
  442POPI   GL1 6989   5.186  17.474   9.824  0.0522 -0.1993 -0.1485
  442POPI   GL2 6990   5.310  17.926   9.814 -0.3658 -0.0189 -0.0819
  442POPI   C1A 6991   5.184  17.484   9.390 -0.0598 -0.0191  0.1096
  442POPI   D2A 6992   5.024  17.225   9.182 -0.5346 -0.0190  0.0689
  442POPI   C3A 6993   5.210  17.174   8.672 -0.1320  0.4991  0.1655
  442POPI   C4A 6994   5.027  17.077   8.193  0.2084 -0.0702 -0.1139
  442POPI   C1B 6995   5.287  18.329   9.588  0.4086 -0.1807 -0.1085
  442POPI   C2B 6996   5.304  18.586   9.264 -0.0156  0.1568 -0.0102
  442POPI   C3B 6997   5.346  18.478   8.825  0.1146 -0.1593 -0.3741
  442POPI   C4B 6998   5.443  18.234   8.590  0.1246  0.3253  0.0240
  443POPI    C1 6999   9.453   8.739   9.789  0.0802  0.2472  0.0008
  443POPI    C2 7000   9.825   8.774   9.933  0.0435 -0.0164  0.1672
  443POPI    C3 7001   9.521   8.961  10.115  0.0541 -0.0292  0.1982
  443POPI   PO4 7002   9.515   8.735   9.570  0.2861  0.2114  0.0340
  443POPI   GL1 7003   9.355   8.586   9.189 -0.3057 -0.1362 -0.0615
  443POPI   GL2 7004   9.169   8.498   9.103 -0.0359  0.1725  0.0648
  443POPI   C1A 7005   9.669   8.606   8.881  0.1954 -0.0703 -0.1236
  443POPI   D2A 7006   9.908   8.327   8.565 -0.0473 -0.1956 -0.2612
  443POPI   C3A 7007   9.704   8.116   8.318  0.0943 -0.4944 -0.1454
  443POPI   C4A 7008   9.575   8.344   7.980 -0.0649 -0.0144  0.1405
  443POPI   C1B 7009   9.155   8.716   8.692  0.1242  0.4084 -0.1210
  443POPI   C2B 7010   9.234   8.856   8.260 -0.0902 -0.2099 -0.2817
  443POPI   C3B 7011   9.083   9.141   7.963  0.0692  0.1085 -0.3298
  443POPI   C4B 7012   8.934   8.955   7.680 -0.0568  0.0155  0.2306
  444POPI    C1 7013  18.953   9.073  10.280  0.0240  0.3981  0.2331
  444POPI    C2 7014  19.214   8.803  10.420 -0.2131  0.0690  0.0556
  444POPI    C3 7015  19.126   9.128  10.637 -0.1995 -0.1794  0.4422
  444POPI   PO4 7016  18.954   9.170   9.998  0.0089 -0.0886  0.0791
  444POPI   GL1 7017  18.880   9.163   9.601  0.0718 -0.0226 -0.2256
  444POPI   GL2 7018  18.817   9.433   9.436 -0.1078  0.2593 -0.2579
  444POPI   C1A 7019  19.041   8.831   9.337 -0.2629  0.2443 -0.0700
  444POPI   D2A 7020  18.922   8.446   9.220  0.0934 -0.1352 -0.0681
  444POPI   C3A 7021  18.675   8.693   8.954  0.1380  0.2889  0.1739
  444POPI   C4A 7022  18.522   8.907   8.590  0.2831  0.0724  0.1410
  444POPI   C1B 7023  19.147   9.564   9.175  0.2832 -0.0692  0.0002
  444POPI   C2B 7024  19.231   9.613   8.773 -0.0123 -0.0754  0.1462
  444POPI   C3B 7025  19.254   9.414   8.237  0.1923  0.2070  0.0415
  444POPI   C4B 7026  19.211   9.575   7.886  0.2055  0.0028 -0.1968
  445POPI    C1 7027   3.804  14.640  10.202 -0.3972 -0.2856  0.3176
  445POPI    C2 7028   3.667  14.974  10.374 -0.0652  0.0027  0.0374
  445POPI    C3 7029   4.034  14.841  10.460 -0.2162 -0.3272  0.1903
  445POPI   PO4 7030   3.719  14.704   9.958 -0.0174 -0.3059 -0.0261
  445POPI   GL1 7031   3.670  15.002   9.709  0.2514 -0.3670  0.0726
  445POPI   GL2 7032   3.525  15.389   9.724 -0.1000  0.2798 -0.0423
  445POPI   C1A 7033   3.763  15.163   9.371 -0.0957 -0.0836 -0.2648
  445POPI   D2A 7034   3.622  15.240   8.992 -0.0101  0.4932 -0.0684
  445POPI   C3A 7035   3.924  15.401   8.691 -0.2344  0.0931 -0.2524
  445POPI   C4A 7036   4.272  15.610   8.643 -0.0986 -0.1431  0.0625
  445POPI   C1B 7037   3.258  15.176   9.382 -0.1003  0.2347 -0.3165
  445POPI   C2B 7038   3.165  15.211   8.873  0.2420 -0.0729 -0.0946
  445POPI   C3B 7039   2.971  15.056   8.469  0.2037 -0.3256 -0.0169
  445POPI   C4B 7040   2.936  15.145   8.107  0.2468  0.0379  0.0032
  446POPI    C1 7041  15.354  16.907   9.554  0.0972  0.1686 -0.0324
  446POPI    C2 7042  15.695  16.806   9.372  0.0869  0.1627 -0.0486
  446POPI    C3 7043  15.690  17.112   9.629  0.0803  0.2342 -0.1333
  446POPI   PO4 7044  15.285  16.715   9.653 -0.1118  0.3403  0.2344
  446POPI   GL1 7045  15.124  16.324   9.543 -0.1333 -0.3811  0.0551
  446POPI   GL2 7046  14.979  16.201   9.747 -0.0144  0.3942  0.1617
  446POPI   C1A 7047  15.094  16.073   9.269  0.0461  0.2808  0.0870
  446POPI   D2A 7048  14.650  16.005   9.148  0.0338 -0.1079  0.0984
  446POPI   C3A 7049  14.387  15.870   8.847 -0.2708  0.4020 -0.1138
  446POPI   C4A 7050  14.094  15.812   8.432  0.1549  0.0298 -0.3504
  446POPI   C1B 7051  14.500  16.254   9.656 -0.3607 -0.1885  0.2647
  446POPI   C2B 7052  14.133  16.056   9.416 -0.2034 -0.4952  0.0804
  446POPI   C3B 7053  13.921  16.147   9.022 -0.0579 -0.3354 -0.1054
  446POPI   C4B 7054  13.475  16.187   8.892 -0.0231 -0.0756  0.3883
  447POPI    C1 7055   9.457  16.168   9.926 -0.1268 -0.0486 -0.0959
  447POPI    C2 7056   9.632  16.048  10.265  0.1008  0.2379 -0.1078
  447POPI    C3 7057   9.361  16.343  10.273  0.0923  0.2319 -0.1724
  447POPI   PO4 7058   9.387  15.923   9.750  0.1895  0.0863  0.0088
  447POPI   GL1 7059   9.609  16.027   9.350  0.5581 -0.1332 -0.1566
  447POPI   GL2 7060   9.726  15.742   9.410 -0.0109 -0.1438 -0.3058
  447POPI   C1A 7061   9.700  15.894   8.909  0.1579 -0.0197 -0.2564
  447POPI   D2A 7062   9.810  15.545   8.729 -0.5129  0.1908  0.0555
  447POPI   C3A 7063   9.835  15.577   8.305  0.0963 -0.2593  0.0482
  447POPI   C4A 7064  10.111  15.371   8.060  0.0066  0.0467  0.2641
  447POPI   C1B 7065   9.426  15.497   9.129 -0.0550 -0.2193  0.1449
  447POPI   C2B 7066   9.326  15.598   8.600  0.2593 -0.0678  0.2713
  447POPI   C3B 7067   9.206  15.746   8.278 -0.0002  0.0587  0.0851
  447POPI   C4B 7068   9.535  15.892   7.946  0.0225  0.3077 -0.1706
  448POPI    C1 7069   8.647   4.891  10.137  0.0370 -0.0178 -0.0980
  448POPI    C2 7070   8.724   4.587  10.385  0.0847 -0.0966 -0.2085
  448POPI    C3 7071   8.346   4.680  10.294  0.0662 -0.0522 -0.0881
  448POPI   PO4 7072   8.843   4.793   9.985 -0.0331  0.2572 -0.1505
  448POPI   GL1 7073   9.023   4.829   9.674  0.2105 -0.1340  0.2134
  448POPI   GL2 7074   9.230   4.923   9.597  0.2378 -0.1070  0.0601
  448POPI   C1A 7075   8.826   4.762   9.193 -0.1010  0.1421  0.1456
  448POPI   D2A 7076   8.394   4.764   9.089 -0.0123  0.1475 -0.0710
  448POPI   C3A 7077   8.358   4.632   8.651  0.3026 -0.1918  0.2278
  448POPI   C4A 7078   8.117   4.621   8.249 -0.1437 -0.1258  0.0860
  448POPI   C1B 7079   9.103   5.173   9.270 -0.0002  0.0535  0.0783
  448POPI   C2B 7080   9.209   5.483   9.030  0.2890  0.1602 -0.0181
  448POPI   C3B 7081   9.397   5.559   8.585  0.2306  0.0985  0.4613
  448POPI   C4B 7082   9.723   5.722   8.239  0.2516  0.2410 -0.0193
  449POPI    C1 7083  17.345   6.955  10.121  0.0493  0.2247 -0.1737
  449POPI    C2 7084  17.197   6.969  10.492  0.1075 -0.0861 -0.1364
  449POPI    C3 7085  17.259   7.308  10.289  0.0944  0.0877  0.1444
  449POPI   PO4 7086  17.204   6.925   9.838  0.1143 -0.0563  0.0827
  449POPI   GL1 7087  17.215   6.939   9.364  0.1236  0.1401  0.0647
  449POPI   GL2 7088  16.937   6.969   9.233 -0.0581 -0.2944  0.0941
  449POPI   C1A 7089  17.562   7.103   8.999 -0.2214 -0.0267  0.1990
  449POPI   D2A 7090  17.518   7.354   8.647  0.2347 -0.2675 -0.0695
  449POPI   C3A 7091  17.275   7.150   8.363  0.2378 -0.0536 -0.1235
  449POPI   C4A 7092  17.015   6.780   8.202  0.0631 -0.2012 -0.0270
  449POPI   C1B 7093  17.057   6.895   8.873  0.0635 -0.1902  0.3602
  449POPI   C2B 7094  17.407   6.704   8.555 -0.0092 -0.4432 -0.4357
  449POPI   C3B 7095  17.550   6.762   8.168 -0.1209  0.2978  0.0192
  449POPI   C4B 7096  17.446   6.708   7.802  0.0710 -0.1848  0.0858
  450POPI    C1 7097   8.671  15.239   9.999  0.1929 -0.1402 -0.0328
  450POPI    C2 7098   8.672  15.039  10.345 -0.1930 -0.2157 -0.0712
  450POPI    C3 7099   8.521  15.409  10.328 -0.0866 -0.1749 -0.1399
  450POPI   PO4 7100   8.514  15.053   9.891 -0.1632 -0.1048  0.0461
  450POPI   GL1 7101   8.332  14.941   9.501 -0.0365 -0.1198  0.0097
  450POPI   GL2 7102   8.023  14.905   9.211 -0.1187  0.0838  0.0798
  450POPI   C1A 7103   8.377  15.226   9.116 -0.1697  0.4259 -0.3554
  450POPI   D2A 7104   8.531  15.312   8.851  0.4008 -0.2305  0.1053
  450POPI   C3A 7105   8.685  15.141   8.584 -0.0354 -0.0098  0.0741
  450POPI   C4A 7106   8.642  15.090   8.091  0.0386  0.3288 -0.0650
  450POPI   C1B 7107   8.063  15.020   8.777 -0.0904  0.2470 -0.2794
  450POPI   C2B 7108   8.193  15.061   8.392 -0.1834  0.2042 -0.2760
  450POPI   C3B 7109   8.096  15.065   8.014 -0.0730 -0.0815 -0.2718
  450POPI   C4B 7110   7.803  15.172   7.575 -0.1759  0.0445 -0.2194
  451POPI    C1 7111   8.276  12.175   9.971 -0.1073  0.0975 -0.1084
  451POPI    C2 7112   8.138  11.801   9.941  0.1330 -0.0251  0.2479
  451POPI    C3 7113   7.927  12.077  10.140  0.0268 -0.0078  0.1127
  451POPI   PO4 7114   8.494  12.178   9.836 -0.3694  0.0019  0.0112
  451POPI   GL1 7115   8.385  12.071   9.366 -0.1241  0.0970 -0.1017
  451POPI   GL2 7116   8.675  12.114   9.076  0.2642 -0.1866  0.1594
  451POPI   C1A 7117   8.177  12.202   9.052 -0.2458 -0.1567 -0.0121
  451POPI   D2A 7118   8.089  12.258   8.591  0.0262  0.2522 -0.1812
  451POPI   C3A 7119   8.018  12.354   8.151  0.2090  0.0813 -0.2597
  451POPI   C4A 7120   7.957  12.278   7.669  0.0384  0.1726 -0.0487
  451POPI   C1B 7121   8.585  12.263   8.683  0.2691  0.2107  0.0364
  451POPI   C2B 7122   8.510  12.285   8.278  0.2042  0.0602  0.1396
  451POPI   C3B 7123   8.637  12.177   7.830 -0.0019 -0.0780  0.0652
  451POPI   C4B 7124   8.837  11.863   7.591 -0.1013  0.3813  0.1568
  452POPI    C1 7125   9.617  12.548   9.868 -0.0468 -0.3684  0.1893
  452POPI    C2 7126   9.943  12.717   9.710 -0.1966  0.0955  0.3583
  452POPI    C3 7127   9.858  12.771  10.097 -0.4203 -0.1084  0.3395
  452POPI   PO4 7128   9.564  12.372   9.632  0.0338 -0.1162  0.2971
  452POPI   GL1 7129   9.549  12.313   9.288  0.0980  0.1459  0.4028
  452POPI   GL2 7130   9.122  12.364   9.371  0.0383 -0.1892 -0.0142
  452POPI   C1A 7131   9.512  12.236   8.905  0.2581 -0.0627  0.1846
  452POPI   D2A 7132   9.549  12.157   8.568  0.0360  0.4253 -0.1448
  452POPI   C3A 7133   9.398  12.271   8.255  0.0510 -0.1338  0.1456
  452POPI   C4A 7134   9.552  12.594   7.909 -0.1527  0.0866 -0.2590
  452POPI   C1B 7135   8.942  12.486   8.982  0.2049  0.0326  0.1642
  452POPI   C2B 7136   9.003  12.453   8.490 -0.1257  0.1021 -0.2839
  452POPI   C3B 7137   8.896  12.498   8.126  0.1668 -0.4357 -0.0310
  452POPI   C4B 7138   9.133  12.624   7.728 -0.0768  0.1477  0.0549
  453POPI    C1 7139  15.997  13.062  10.054 -0.1292  0.1488  0.2178
  453POPI    C2 7140  16.142  13.421   9.952 -0.0805  0.0849  0.0607
  453POPI    C3 7141  16.197  13.281  10.323  0.0702  0.1558  0.0656
  453POPI   PO4 7142  16.095  12.867   9.828 -0.2464 -0.1795  0.1917
  453POPI   GL1 7143  16.165  12.515   9.590 -0.2029  0.3122  0.0955
  453POPI   GL2 7144  16.436  12.518   9.408 -0.0965 -0.1293 -0.2379
  453POPI   C1A 7145  15.877  12.604   9.242 -0.1810 -0.3495 -0.0048
  453POPI   D2A 7146  15.970  12.538   8.873  0.1126 -0.3434 -0.0329
  453POPI   C3A 7147  15.608  12.410   8.606  0.1975 -0.1006  0.3811
  453POPI   C4A 7148  15.197  12.415   8.762 -0.1045 -0.1775  0.0237
  453POPI   C1B 7149  16.347  12.263   9.073 -0.4221 -0.0288  0.0090
  453POPI   C2B 7150  16.510  12.088   8.703  0.1757 -0.2308  0.1104
  453POPI   C3B 7151  16.742  11.876   8.369  0.2273 -0.1522 -0.0157
  453POPI   C4B 7152  16.913  11.943   7.926  0.1143 -0.0031  0.1313
  454POPI    C1 7153   8.775   6.764   9.840  0.4645 -0.2291 -0.4458
  454POPI    C2 7154   8.862   6.848  10.221 -0.2479  0.2973 -0.3790
  454POPI    C3 7155   8.857   6.468  10.097 -0.2439  0.0982  0.1976
  454POPI   PO4 7156   8.560   6.977   9.731  0.1783  0.3015 -0.1429
  454POPI   GL1 7157   8.305   7.114   9.469 -0.2216 -0.1345  0.1879
  454POPI   GL2 7158   8.114   7.365   9.494 -0.2060 -0.0747 -0.3437
  454POPI   C1A 7159   8.230   7.215   9.061 -0.2200 -0.1718  0.1751
  454POPI   D2A 7160   8.204   6.850   8.710 -0.1042 -0.2401  0.2133
  454POPI   C3A 7161   8.434   6.744   8.465  0.0828  0.0015  0.0709
  454POPI   C4A 7162   8.322   6.511   8.126 -0.1384 -0.2526 -0.0926
  454POPI   C1B 7163   7.959   7.696   9.219  0.2601  0.1370 -0.2319
  454POPI   C2B 7164   7.880   7.963   8.818 -0.1575 -0.1985 -0.0069
  454POPI   C3B 7165   7.880   8.205   8.480 -0.1649 -0.0063  0.1744
  454POPI   C4B 7166   7.806   8.367   8.157  0.3831  0.1918 -0.1761
  455POPI    C1 7167   0.052  16.878   9.294  0.0556 -0.1518 -0.0044
  455POPI    C2 7168   0.435  16.779   9.236  0.0131 -0.1962 -0.2179
  455POPI    C3 7169   0.341  17.140   9.379  0.1395 -0.2304 -0.0459
  455POPI   PO4 7170  -0.051  16.643   9.343 -0.1397  0.0411 -0.2649
  455POPI   GL1 7171  -0.077  16.341   8.947  0.3115  0.1327 -0.0508
  455POPI   GL2 7172   0.182  16.424   8.979 -0.1275 -0.2463 -0.1912
  455POPI   C1A 7173  -0.163  16.344   8.470  0.1191  0.1261  0.1010
  455POPI   D2A 7174  -0.138  16.238   8.004 -0.3556  0.1766 -0.0457
  455POPI   C3A 7175  -0.534  16.090   7.955  0.0806 -0.1636 -0.0806
  455POPI   C4A 7176  -0.704  16.349   7.645  0.0548  0.1594  0.0282
  455POPI   C1B 7177   0.276  16.577   8.702  0.2607  0.0185 -0.0084
  455POPI   C2B 7178   0.122  16.690   8.281  0.0872  0.1266 -0.0423
  455POPI   C3B 7179   0.215  16.752   7.773  0.0101 -0.4870 -0.3184
  455POPI   C4B 7180   0.445  16.819   7.392  0.1223  0.1716  0.0288
  456POPI    C1 7181   0.532  11.654  10.020 -0.1947 -0.0330 -0.1121
  456POPI    C2 7182   0.540  11.849  10.369 -0.1265  0.1955 -0.2396
  456POPI    C3 7183   0.814  11.569  10.290 -0.2639 -0.0016 -0.0296
  456POPI   PO4 7184   0.499  11.778   9.818 -0.3343 -0.1254  0.0520
  456POPI   GL1 7185   0.351  11.748   9.344 -0.1807  0.2320 -0.2145
  456POPI   GL2 7186   0.381  12.031   9.318 -0.0121  0.1127  0.0764
  456POPI   C1A 7187   0.347  11.792   8.839 -0.0193  0.2335 -0.0199
  456POPI   D2A 7188   0.400  11.563   8.390  0.0383 -0.5746  0.1380
  456POPI   C3A 7189   0.765  11.458   8.090  0.0976  0.0531 -0.2040
  456POPI   C4A 7190   1.076  11.498   7.817  0.1325 -0.2295 -0.0930
  456POPI   C1B 7191   0.375  12.331   9.026 -0.0127 -0.0590 -0.5560
  456POPI   C2B 7192   0.445  12.272   8.575 -0.1256 -0.2810 -0.0921
  456POPI   C3B 7193   0.495  12.286   8.124 -0.0460 -0.0135  0.1692
  456POPI   C4B 7194   0.706  12.313   7.861 -0.3432  0.1646 -0.3325
  457POPI    C1 7195  10.442   4.889  10.308 -0.2109  0.0606 -0.0460
  457POPI    C2 7196  10.087   4.763  10.443 -0.2864  0.1387 -0.1703
  457POPI    C3 7197  10.227   5.121  10.553 -0.0145 -0.0980  0.2848
  457POPI   PO4 7198  10.432   4.908  10.123  0.0120 -0.1253  0.0571
  457POPI   GL1 7199  10.631   4.775   9.689  0.2839 -0.1141 -0.0449
  457POPI   GL2 7200  10.596   4.432   9.619  0.4172  0.0355  0.1815
  457POPI   C1A 7201  10.662   4.960   9.328  0.0744 -0.1276  0.2595
  457POPI   D2A 7202  10.920   5.092   9.036 -0.0195  0.0066 -0.1998
  457POPI   C3A 7203  10.886   5.193   8.635  0.1761 -0.0403  0.0536
  457POPI   C4A 7204  10.752   5.186   8.236  0.2852 -0.1379 -0.0981
  457POPI   C1B 7205  10.402   4.566   9.287 -0.0667  0.1098  0.0178
  457POPI   C2B 7206  10.533   4.826   8.863  0.1491 -0.0033 -0.2311
  457POPI   C3B 7207  10.361   4.787   8.387  0.1337 -0.2754  0.0894
  457POPI   C4B 7208  10.348   4.981   7.984  0.0189 -0.1636  0.2569
  458POPI    C1 7209   1.102  18.058   9.392 -0.1213 -0.0806 -0.0507
  458POPI    C2 7210   0.892  17.868   9.675  0.0894 -0.1211  0.0808
  458POPI    C3 7211   1.100  18.197   9.768  0.0511 -0.0571 -0.0575
  458POPI   PO4 7212   0.932  18.004   9.163  0.0598 -0.0025 -0.0245
  458POPI   GL1 7213   0.875  17.670   8.849  0.2850 -0.2041 -0.2603
  458POPI   GL2 7214   0.512  17.886   8.869 -0.1523 -0.0955  0.0902
  458POPI   C1A 7215   0.829  17.856   8.424  0.1883 -0.0100 -0.1757
  458POPI   D2A 7216   0.853  17.862   8.006  0.1992  0.1367 -0.0053
  458POPI   C3A 7217   0.899  18.045   7.648  0.0893  0.1794 -0.1551
  458POPI   C4A 7218   0.901  18.387   7.301  0.0895 -0.3666 -0.1606
  458POPI   C1B 7219   0.379  18.044   8.552 -0.1762 -0.3548  0.3394
  458POPI   C2B 7220   0.366  18.267   8.148  0.1622 -0.1746 -0.0141
  458POPI   C3B 7221   0.441  18.365   7.751 -0.1206  0.1739  0.0412
  458POPI   C4B 7222   0.582  18.657   7.525 -0.2728 -0.0609 -0.1103
  459POPI    C1 7223   7.078   5.927  10.128  0.2024 -0.2790 -0.0862
  459POPI    C2 7224   7.254   5.685  10.394 -0.3491 -0.0507  0.5139
  459POPI    C3 7225   7.140   6.052  10.502 -0.1368  0.2419 -0.1944
  459POPI   PO4 7226   7.038   5.840   9.890 -0.0937  0.3789  0.2489
  459POPI   GL1 7227   7.237   5.771   9.499  0.4176  0.2730  0.0990
  459POPI   GL2 7228   7.094   5.436   9.414 -0.0907  0.0773 -0.3396
  459POPI   C1A 7229   7.299   5.813   9.102 -0.0827 -0.1375  0.1769
  459POPI   D2A 7230   7.382   5.808   8.746  0.0612  0.2970  0.1731
  459POPI   C3A 7231   7.894   5.974   8.644 -0.0331 -0.2029 -0.0314
  459POPI   C4A 7232   8.158   6.317   8.558 -0.1508 -0.0774  0.0071
  459POPI   C1B 7233   6.871   5.524   9.062 -0.1659  0.0598  0.1366
  459POPI   C2B 7234   6.816   5.384   8.617 -0.0420 -0.2836  0.4297
  459POPI   C3B 7235   6.512   5.178   8.443 -0.2431  0.4972 -0.1494
  459POPI   C4B 7236   6.339   5.085   7.971 -0.0360  0.2275 -0.0319
  460POPI    C1 7237   8.571   5.347  10.378  0.0964  0.1025 -0.1503
  460POPI    C2 7238   8.447   5.705  10.509 -0.1181 -0.0145 -0.0274
  460POPI    C3 7239   8.622   5.449  10.762 -0.3084 -0.1439 -0.0248
  460POPI   PO4 7240   8.415   5.374  10.088  0.1903  0.1246  0.1518
  460POPI   GL1 7241   8.278   5.342   9.720 -0.0254 -0.2254  0.3389
  460POPI   GL2 7242   8.468   5.414   9.539 -0.0285 -0.3535  0.0820
  460POPI   C1A 7243   8.040   5.059   9.453 -0.0747 -0.0326  0.0469
  460POPI   D2A 7244   7.905   5.180   9.092 -0.5274 -0.0773  0.0450
  460POPI   C3A 7245   8.205   5.163   8.669  0.0647  0.0937 -0.1812
  460POPI   C4A 7246   8.211   5.140   8.289 -0.2095  0.0596 -0.0274
  460POPI   C1B 7247   8.592   5.266   9.109 -0.0899  0.0829  0.1533
  460POPI   C2B 7248   8.708   4.954   8.654  0.3245 -0.0773  0.3099
  460POPI   C3B 7249   8.999   4.684   8.448  0.2351 -0.4316 -0.0915
  460POPI   C4B 7250   9.199   4.708   8.068  0.2999  0.0725  0.0982
  461POPI    C1 7251  16.663   7.815   9.715 -0.2554  0.1371  0.1103
  461POPI    C2 7252  16.843   7.994  10.024 -0.1116  0.3391 -0.0868
  461POPI    C3 7253  16.871   7.598   9.978  0.0654  0.3373  0.0277
  461POPI   PO4 7254  16.697   8.036   9.568 -0.1460 -0.1596 -0.1814
  461POPI   GL1 7255  16.498   8.359   9.184  0.0790  0.0204 -0.4999
  461POPI   GL2 7256  16.308   8.621   9.176 -0.0967  0.3330 -0.2641
  461POPI   C1A 7257  16.176   8.087   8.938  0.1767 -0.1322 -0.2934
  461POPI   D2A 7258  16.107   7.959   8.603 -0.2321  0.0746  0.1796
  461POPI   C3A 7259  16.046   7.599   8.494 -0.3133  0.0542  0.0548
  461POPI   C4A 7260  16.225   7.211   8.714  0.0517 -0.0621 -0.1450
  461POPI   C1B 7261  16.342   8.480   8.688  0.2302  0.1241 -0.0022
  461POPI   C2B 7262  16.380   8.312   8.277 -0.0777 -0.0282  0.1947
  461POPI   C3B 7263  16.223   8.092   8.056 -0.0629 -0.1127 -0.1764
  461POPI   C4B 7264  16.172   7.681   7.879 -0.2091 -0.1884  0.1050
  462POPI    C1 7265  15.820   7.200   9.614 -0.2323  0.2042  0.1995
  462POPI    C2 7266  16.190   7.135   9.750 -0.2894  0.3193  0.4146
  462POPI    C3 7267  15.882   6.932   9.904 -0.2416 -0.2918 -0.2406
  462POPI   PO4 7268  15.876   7.172   9.345  0.1510 -0.2095 -0.0289
  462POPI   GL1 7269  15.870   7.588   9.049 -0.4391  0.4965 -0.2645
  462POPI   GL2 7270  15.734   7.861   9.059 -0.2812  0.3172 -0.2881
  462POPI   C1A 7271  16.401   7.672   8.992  0.1522  0.0582 -0.2582
  462POPI   D2A 7272  16.746   7.622   9.186 -0.1287 -0.1532  0.1707
  462POPI   C3A 7273  17.171   7.868   9.146  0.4901 -0.3736  0.0906
  462POPI   C4A 7274  17.620   7.728   8.886 -0.0150 -0.0443 -0.1312
  462POPI   C1B 7275  15.623   7.767   8.706 -0.1516 -0.3571 -0.2984
  462POPI   C2B 7276  15.636   7.877   8.270 -0.1296 -0.2037  0.2900
  462POPI   C3B 7277  15.597   8.123   7.984  0.1424  0.2183  0.1308
  462POPI   C4B 7278  15.561   8.069   7.543  0.2143  0.1174 -0.1754
  463POPI    C1 7279  16.122  10.307  10.206  0.2366 -0.1013  0.0389
  463POPI    C2 7280  15.776  10.305  10.407  0.1981  0.0444 -0.0243
  463POPI    C3 7281  16.065  10.045  10.503  0.1668  0.0887  0.1954
  463POPI   PO4 7282  15.983  10.409   9.930  0.1621 -0.1770 -0.0847
  463POPI   GL1 7283  16.240  10.725   9.726 -0.1392 -0.1667 -0.3642
  463POPI   GL2 7284  16.414  10.353   9.647 -0.3667  0.1178  0.1336
  463POPI   C1A 7285  16.305  10.730   9.265 -0.1730  0.3530 -0.0832
  463POPI   D2A 7286  16.400  11.073   9.021  0.0723 -0.3787 -0.1609
  463POPI   C3A 7287  16.049  11.045   8.763  0.0505 -0.1042 -0.2397
  463POPI   C4A 7288  15.927  11.007   8.356  0.0552  0.1139  0.0998
  463POPI   C1B 7289  16.594  10.232   9.291 -0.2580  0.0335  0.0299
  463POPI   C2B 7290  16.721  10.073   8.837  0.1132 -0.0375  0.1821
  463POPI   C3B 7291  16.874   9.760   8.495  0.1539  0.1601  0.1809
  463POPI   C4B 7292  16.963   9.377   8.220  0.4714  0.1454 -0.0587
  464POPI    C1 7293  12.740  17.414  10.234 -0.0583  0.0545 -0.0829
  464POPI    C2 7294  12.606  17.519  10.596  0.0258 -0.0757 -0.0132
  464POPI    C3 7295  12.952  17.321  10.561  0.0591  0.0089 -0.1713
  464POPI   PO4 7296  12.543  17.325  10.151  0.2226 -0.1517 -0.1853
  464POPI   GL1 7297  12.466  17.557   9.726 -0.1042  0.0725  0.1833
  464POPI   GL2 7298  12.228  17.759   9.618  0.0168 -0.0095  0.3364
  464POPI   C1A 7299  12.714  17.523   9.405  0.0369  0.0757  0.0605
  464POPI   D2A 7300  13.053  17.468   9.024  0.1909 -0.0394 -0.2675
  464POPI   C3A 7301  13.009  17.192   8.905 -0.1085  0.3917  0.0041
  464POPI   C4A 7302  12.659  16.872   8.750 -0.0897 -0.0439  0.0436
  464POPI   C1B 7303  12.120  17.797   9.232 -0.2541  0.2632  0.0689
  464POPI   C2B 7304  12.172  17.711   8.766  0.0909 -0.1899 -0.0412
  464POPI   C3B 7305  12.484  17.870   8.504  0.1814  0.0059  0.1659
  464POPI   C4B 7306  12.942  18.130   8.395  0.3821 -0.2378  0.0945
  465POPI    C1 7307   9.427   3.059  10.038 -0.1400 -0.1996  0.0455
  465POPI    C2 7308   9.387   3.088  10.435  0.0259 -0.2122  0.0636
  465POPI    C3 7309   9.074   3.160  10.197 -0.0132  0.0309  0.1857
  465POPI   PO4 7310   9.634   3.034   9.956 -0.1629 -0.3735  0.0965
  465POPI   GL1 7311   9.788   2.963   9.580 -0.2485 -0.5183  0.1367
  465POPI   GL2 7312   9.684   2.606   9.604 -0.1366  0.2979  0.3841
  465POPI   C1A 7313   9.923   2.899   9.185  0.1220  0.2351  0.0074
  465POPI   D2A 7314   9.817   2.526   9.118  0.3249  0.3202 -0.1752
  465POPI   C3A 7315   9.828   2.444   8.687  0.3513  0.0587 -0.0392
  465POPI   C4A 7316   9.778   2.162   8.287  0.2151 -0.1964 -0.0877
  465POPI   C1B 7317   9.396   2.355   9.284 -0.2439  0.3065  0.0868
  465POPI   C2B 7318   9.374   2.264   8.873  0.0063  0.4620 -0.0987
  465POPI   C3B 7319   9.321   2.139   8.586  0.0654  0.3318 -0.2165
  465POPI   C4B 7320   9.429   1.773   8.268 -0.2142  0.0674  0.1363
  466POPI    C1 7321  11.694  13.462  10.030  0.2135 -0.1006 -0.2297
  466POPI    C2 7322  11.565  13.796  10.207 -0.0065 -0.2755 -0.0527
  466POPI    C3 7323  11.949  13.689  10.239  0.0574 -0.0612 -0.0797
  466POPI   PO4 7324  11.729  13.420   9.701  0.1578  0.1266  0.2303
  466POPI   GL1 7325  11.985  13.624   9.327  0.1668 -0.1506 -0.1874
  466POPI   GL2 7326  11.621  13.384   9.223 -0.1799 -0.3071 -0.4381
  466POPI   C1A 7327  12.280  13.794   9.065 -0.2808  0.2211  0.1313
  466POPI   D2A 7328  12.350  14.098   8.768 -0.2024 -0.0294  0.0520
  466POPI   C3A 7329  12.105  14.196   8.495 -0.1337  0.1167 -0.0650
  466POPI   C4A 7330  12.300  14.120   8.149 -0.0001  0.3208  0.2235
  466POPI   C1B 7331  11.790  13.433   8.845  0.0516  0.1537  0.0514
  466POPI   C2B 7332  11.862  13.209   8.396 -0.0478  0.2942 -0.0037
  466POPI   C3B 7333  12.005  13.172   8.001 -0.1447  0.3226 -0.0142
  466POPI   C4B 7334  11.972  12.930   7.568 -0.4226  0.3999  0.4562
  467POPI    C1 7335   7.999   8.606   9.713 -0.0434 -0.1332 -0.0205
  467POPI    C2 7336   8.214   8.654   9.379 -0.1453  0.3022 -0.0287
  467POPI    C3 7337   8.388   8.515   9.711  0.0405  0.2138 -0.1615
  467POPI   PO4 7338   7.791   8.471   9.627 -0.2186  0.2688  0.0148
  467POPI   GL1 7339   7.868   8.340   9.192  0.2121  0.0876 -0.0731
  467POPI   GL2 7340   7.619   8.254   9.175 -0.3584 -0.0083 -0.3411
  467POPI   C1A 7341   8.350   8.291   9.131 -0.0553 -0.1693 -0.0673
  467POPI   D2A 7342   8.359   8.118   8.708 -0.0678 -0.1657  0.3099
  467POPI   C3A 7343   8.226   7.867   8.321 -0.1430  0.1469  0.2433
  467POPI   C4A 7344   8.347   7.647   7.953 -0.3141  0.0861  0.0349
  467POPI   C1B 7345   7.436   8.234   8.839  0.2408 -0.0319 -0.1235
  467POPI   C2B 7346   7.417   8.079   8.506 -0.0018  0.2876  0.1956
  467POPI   C3B 7347   7.351   7.849   8.165 -0.1610 -0.0441  0.0245
  467POPI   C4B 7348   7.094   7.415   8.130 -0.0135  0.2197  0.0967
  468POPI    C1 7349  17.586   3.200  10.144 -0.1745  0.0022  0.3254
  468POPI    C2 7350  17.447   2.883   9.944  0.0536 -0.1039  0.3319
  468POPI    C3 7351  17.210   3.199  10.008  0.0031 -0.0293 -0.1863
  468POPI   PO4 7352  17.857   3.220   9.939 -0.0746  0.2155  0.1679
  468POPI   GL1 7353  18.079   3.131   9.542 -0.0847  0.2002 -0.3301
  468POPI   GL2 7354  18.188   3.227   9.228 -0.0665  0.0894 -0.3420
  468POPI   C1A 7355  18.019   2.766   9.208  0.0425 -0.1740  0.0960
  468POPI   D2A 7356  17.903   2.851   8.814 -0.1210 -0.1047  0.0544
  468POPI   C3A 7357  17.574   2.944   8.635 -0.1914  0.2245 -0.1828
  468POPI   C4A 7358  17.332   2.978   8.174  0.1612  0.0751 -0.1717
  468POPI   C1B 7359  18.165   3.337   8.831  0.2168  0.1055 -0.0281
  468POPI   C2B 7360  18.046   3.451   8.371 -0.0767  0.0064 -0.2393
  468POPI   C3B 7361  18.146   3.604   7.865 -0.1101 -0.2658  0.1711
  468POPI   C4B 7362  18.428   3.623   7.626 -0.2502 -0.1841 -0.1100
  469POPI    C1 7363  10.900   9.627   9.783  0.0194 -0.0092 -0.0027
  469POPI    C2 7364  11.164   9.329   9.828 -0.2295 -0.2815 -0.2956
  469POPI    C3 7365  10.997   9.498  10.149  0.5169  0.1041 -0.0863
  469POPI   PO4 7366  11.015   9.765   9.622 -0.1815 -0.4532  0.0678
  469POPI   GL1 7367  11.123   9.852   9.161 -0.0867 -0.2334  0.0589
  469POPI   GL2 7368  11.401   9.635   9.220  0.1022  0.0317 -0.4712
  469POPI   C1A 7369  11.185   9.875   8.687 -0.1773 -0.1347  0.1818
  469POPI   D2A 7370  11.236   9.627   8.316  0.3016 -0.0756  0.1804
  469POPI   C3A 7371  11.135   9.181   8.346  0.2926  0.0337  0.1466
  469POPI   C4A 7372  11.373   8.861   8.284 -0.3130  0.0508 -0.1355
  469POPI   C1B 7373  11.383   9.433   8.773  0.0669  0.0920 -0.1502
  469POPI   C2B 7374  11.634   9.341   8.385  0.1780  0.0583  0.0947
  469POPI   C3B 7375  11.733   9.311   7.903 -0.2391  0.1387  0.1532
  469POPI   C4B 7376  11.507   9.315   7.488  0.0423 -0.0195  0.0698
  470POPI    C1 7377   6.380   7.294   9.917  0.3683  0.0665  0.2080
  470POPI    C2 7378   6.150   6.997  10.055 -0.2540  0.4884  0.1187
  470POPI    C3 7379   6.356   7.225  10.311 -0.2919  0.3908  0.2373
  470POPI   PO4 7380   6.285   7.353   9.739 -0.3054  0.0056  0.0140
  470POPI   GL1 7381   6.571   7.358   9.347  0.1230  0.2287 -0.1035
  470POPI   GL2 7382   6.481   7.639   9.341  0.1442 -0.1285  0.0695
  470POPI   C1A 7383   6.758   7.068   9.100  0.0214 -0.0658 -0.0582
  470POPI   D2A 7384   6.627   6.992   8.677 -0.2591 -0.3679 -0.1418
  470POPI   C3A 7385   6.854   6.872   8.402  0.0781  0.1193  0.3037
  470POPI   C4A 7386   7.026   6.945   7.969  0.0840 -0.3654 -0.0139
  470POPI   C1B 7387   6.742   7.612   8.942 -0.1104 -0.1146 -0.0799
  470POPI   C2B 7388   6.863   7.446   8.564  0.3186 -0.2705 -0.0476
  470POPI   C3B 7389   6.623   7.266   8.143  0.0932 -0.0863 -0.3340
  470POPI   C4B 7390   6.637   7.061   7.726  0.0380  0.0659  0.0469
  471POPI    C1 7391   9.535   3.552  10.514  0.0461  0.0148 -0.1613
  471POPI    C2 7392   9.347   3.872  10.662  0.0306  0.0561 -0.2690
  471POPI    C3 7393   9.610   3.673  10.887 -0.1116  0.0219 -0.1313
  471POPI   PO4 7394   9.447   3.563  10.229 -0.0076  0.0269 -0.2698
  471POPI   GL1 7395   9.473   3.535   9.823 -0.3138 -0.0922  0.0219
  471POPI   GL2 7396   9.659   3.428   9.524 -0.0182 -0.0504  0.0708
  471POPI   C1A 7397   9.308   3.802   9.457 -0.2543 -0.0433  0.1757
  471POPI   D2A 7398   9.197   3.463   9.243 -0.0477  0.0377  0.2806
  471POPI   C3A 7399   9.212   3.323   8.795  0.0187 -0.1544 -0.2235
  471POPI   C4A 7400   9.061   3.302   8.421  0.3006  0.1592  0.0963
  471POPI   C1B 7401   9.707   3.384   9.163 -0.1720 -0.1479 -0.2546
  471POPI   C2B 7402   9.774   3.240   8.692 -0.0148 -0.1500 -0.2490
  471POPI   C3B 7403   9.506   3.099   8.336 -0.2128 -0.1172 -0.1252
  471POPI   C4B 7404   9.221   2.970   8.031  0.0517  0.0867 -0.2435
  472POPI    C1 7405  14.882   9.028   9.663  0.0046 -0.2423 -0.1261
  472POPI    C2 7406  14.551   8.881   9.833 -0.3239  0.6093  0.0205
  472POPI    C3 7407  14.893   8.895  10.041 -0.2006 -0.1790 -0.0971
  472POPI   PO4 7408  14.750   9.185   9.472  0.1463 -0.0189 -0.1312
  472POPI   GL1 7409  14.735   9.431   9.142 -0.0736  0.4029  0.0754
  472POPI   GL2 7410  14.625   9.219   8.950  0.1573 -0.1298  0.3376
  472POPI   C1A 7411  15.046   9.381   8.798 -0.1148 -0.4227 -0.0721
  472POPI   D2A 7412  15.150   9.388   8.378 -0.0119 -0.1837  0.0268
  472POPI   C3A 7413  14.914   9.395   8.018 -0.0695 -0.1443 -0.1227
  472POPI   C4A 7414  14.866   9.657   7.689 -0.1381 -0.1151  0.0857
  472POPI   C1B 7415  14.601   9.437   8.538  0.0067  0.0236  0.1422
  472POPI   C2B 7416  14.448   9.539   8.165 -0.0203 -0.1432  0.1342
  472POPI   C3B 7417  14.323   9.461   7.795 -0.3181 -0.0988 -0.0170
  472POPI   C4B 7418  13.870   9.582   7.728  0.1211  0.0346 -0.1882
  473DPPI    C1 7419  12.607  13.777   9.875 -0.1081 -0.0503  0.2211
  473DPPI    C2 7420  12.340  13.907   9.607  0.0012  0.1438  0.2046
  473DPPI    C3 7421  12.285  13.981   9.996 -0.0351  0.0702  0.2136
  473DPPI   PO4 7422  12.750  13.617   9.747 -0.0631 -0.0885 -0.4913
  473DPPI   GL1 7423  12.774  13.697   9.349  0.1123 -0.0468 -0.0337
  473DPPI   GL2 7424  12.524  13.496   9.325  0.0217  0.2115 -0.2878
  473DPPI   C1A 7425  12.821  13.990   8.941 -0.1312 -0.0366 -0.2513
  473DPPI   C2A 7426  12.699  13.726   8.581  0.4000  0.2059  0.1360
  473DPPI   C3A 7427  12.706  13.705   8.082 -0.2581 -0.0270 -0.0823
  473DPPI   C4A 7428  12.753  13.612   7.661  0.2748 -0.0352 -0.1234
  473DPPI   C1B 7429  12.456  13.375   8.820  0.1133 -0.0405 -0.3754
  473DPPI   C2B 7430  12.535  13.324   8.350  0.2374  0.1030  0.1092
  473DPPI   C3B 7431  12.532  13.246   7.932  0.2349  0.1581 -0.0212
  473DPPI   C4B 7432  12.633  13.174   7.431  0.0341  0.3709 -0.2222
  474DPPI    C1 7433   9.081  12.860   9.866  0.1705  0.2360 -0.1897
  474DPPI    C2 7434   9.395  12.963  10.092 -0.0074  0.0506  0.1486
  474DPPI    C3 7435   9.025  12.981  10.243 -0.1379  0.0049 -0.1584
  474DPPI   PO4 7436   9.200  12.796   9.638 -0.0014  0.2638 -0.2664
  474DPPI   GL1 7437   9.520  12.879   9.416 -0.0374 -0.1318 -0.4199
  474DPPI   GL2 7438   9.374  13.190   9.348 -0.1717  0.3068  0.2936
  474DPPI   C1A 7439   9.409  12.731   9.041  0.2656 -0.1784 -0.0399
  474DPPI   C2A 7440   9.475  12.666   8.646 -0.1315  0.2266  0.2662
  474DPPI   C3A 7441   9.303  12.777   8.269  0.2632  0.1695 -0.0768
  474DPPI   C4A 7442   9.094  13.073   7.864  0.1567  0.2453 -0.2944
  474DPPI   C1B 7443   9.393  13.120   8.756  0.3347  0.0308 -0.1150
  474DPPI   C2B 7444   9.422  13.287   8.368  0.0818  0.1948 -0.0461
  474DPPI   C3B 7445   9.611  13.561   8.041 -0.0748  0.5623 -0.3750
  474DPPI   C4B 7446   9.525  13.555   7.590  0.1034  0.1494  0.2043
  475DPPI    C1 7447   8.784  13.567   9.305 -0.0231  0.0107  0.2461
  475DPPI    C2 7448   8.947  13.274   9.522  0.2241 -0.0736 -0.0454
  475DPPI    C3 7449   9.095  13.645   9.544 -0.0182  0.0098  0.2400
  475DPPI   PO4 7450   8.536  13.573   9.418  0.0112 -0.0748 -0.3149
  475DPPI   GL1 7451   8.370  13.951   9.381  0.0469  0.2289  0.0666
  475DPPI   GL2 7452   8.509  14.072   9.207 -0.0320 -0.0805  0.1508
  475DPPI   C1A 7453   8.169  13.827   8.913 -0.1571 -0.0332  0.0310
  475DPPI   C2A 7454   7.835  13.833   8.686  0.0127 -0.1979  0.0990
  475DPPI   C3A 7455   7.577  13.550   8.452 -0.2987  0.1942 -0.0630
  475DPPI   C4A 7456   7.628  13.119   8.378  0.3297  0.1500 -0.0332
  475DPPI   C1B 7457   8.409  14.271   8.929 -0.3044  0.1687 -0.2002
  475DPPI   C2B 7458   8.200  14.178   8.523  0.1445  0.0729 -0.2161
  475DPPI   C3B 7459   8.006  13.889   8.217 -0.1124 -0.3202 -0.0577
  475DPPI   C4B 7460   7.752  13.715   7.971  0.4551  0.2728 -0.0087
  476DPPI    C1 7461  10.076  17.504   9.907  0.1381 -0.0185 -0.4151
  476DPPI    C2 7462  10.402  17.492  10.140 -0.0648 -0.0752 -0.1280
  476DPPI    C3 7463  10.328  17.815   9.914 -0.1215  0.1958  0.2680
  476DPPI   PO4 7464  10.045  17.421   9.706  0.0339  0.1500 -0.1859
  476DPPI   GL1 7465  10.399  17.571   9.360  0.2157 -0.2850 -0.0813
  476DPPI   GL2 7466  10.322  17.295   9.244 -0.1867 -0.1142 -0.0263
  476DPPI   C1A 7467  10.498  17.846   9.002 -0.1275  0.0792 -0.0967
  476DPPI   C2A 7468  10.422  17.806   8.573 -0.2270 -0.2428  0.0473
  476DPPI   C3A 7469  10.450  18.081   8.342 -0.2875  0.0799 -0.0273
  476DPPI   C4A 7470  10.528  18.093   7.811  0.0560  0.2919  0.1797
  476DPPI   C1B 7471  10.232  17.435   8.916 -0.1136 -0.0840 -0.0422
  476DPPI   C2B 7472  10.303  17.297   8.478  0.0543  0.0106 -0.1551
  476DPPI   C3B 7473  10.155  16.987   8.042 -0.0102 -0.3079  0.2071
  476DPPI   C4B 7474   9.972  17.202   7.687  0.1592 -0.1522  0.3752
  477DPPI    C1 7475   5.253  10.279   9.969  0.0026  0.1026  0.1007
  477DPPI    C2 7476   5.182  10.018   9.674 -0.2623  0.1209  0.1461
  477DPPI    C3 7477   5.412   9.912   9.984 -0.0370  0.0796 -0.0330
  477DPPI   PO4 7478   5.249  10.521   9.824 -0.1676  0.4421 -0.2240
  477DPPI   GL1 7479   5.269  10.505   9.392 -0.1688  0.0151  0.0814
  477DPPI   GL2 7480   5.066  10.250   9.222 -0.2193  0.0069  0.1745
  477DPPI   C1A 7481   5.445  10.590   9.006 -0.0247  0.4494  0.1783
  477DPPI   C2A 7482   5.425  10.740   8.552  0.0247  0.0428  0.0468
  477DPPI   C3A 7483   5.292  10.821   8.138  0.2307 -0.0684 -0.1759
  477DPPI   C4A 7484   5.287  11.253   7.967  0.2023 -0.1699  0.0786
  477DPPI   C1B 7485   5.128   9.842   9.062 -0.3576  0.1197 -0.0656
  477DPPI   C2B 7486   5.214   9.492   8.676 -0.1430  0.1459 -0.2899
  477DPPI   C3B 7487   4.923   9.182   8.494 -0.0083  0.0949 -0.2260
  477DPPI   C4B 7488   4.606   8.921   8.513 -0.3930  0.2927 -0.0627
  478DPPI    C1 7489  15.937   4.892   9.709  0.0448  0.1800  0.1788
  478DPPI    C2 7490  15.774   4.533   9.643  0.1708  0.1849 -0.1811
  478DPPI    C3 7491  15.994   4.595   9.971  0.0082 -0.0149 -0.0308
  478DPPI   PO4 7492  15.934   5.052   9.359  0.0526  0.3482 -0.0270
  478DPPI   GL1 7493  15.866   4.838   8.948 -0.0850 -0.3383 -0.1522
  478DPPI   GL2 7494  15.832   4.542   9.143  0.0650 -0.0875 -0.1402
  478DPPI   C1A 7495  15.866   4.900   8.523 -0.0892 -0.1133 -0.0487
  478DPPI   C2A 7496  15.799   4.819   8.090 -0.0339  0.0377  0.1239
  478DPPI   C3A 7497  15.914   4.754   7.672  0.2726  0.2170 -0.2761
  478DPPI   C4A 7498  16.196   4.716   7.364 -0.3329 -0.1217  0.0917
  478DPPI   C1B 7499  15.759   4.398   8.663  0.2854 -0.0295 -0.1274
  478DPPI   C2B 7500  15.496   4.089   8.457  0.1255 -0.1091 -0.1366
  478DPPI   C3B 7501  15.434   3.749   8.124  0.0179  0.1917  0.1186
  478DPPI   C4B 7502  15.496   3.263   8.164  0.0028  0.3755  0.2439
  479DPPI    C1 7503  17.157  13.090  10.030 -0.0010  0.0809 -0.2909
  479DPPI    C2 7504  17.330  12.731  10.066 -0.1638  0.0082 -0.2261
  479DPPI    C3 7505  17.076  12.861  10.347  0.0964  0.2874 -0.1141
  479DPPI   PO4 7506  17.028  13.156   9.811 -0.1866  0.0531  0.1383
  479DPPI   GL1 7507  17.170  13.193   9.397  0.2160 -0.1196  0.0236
  479DPPI   GL2 7508  16.904  12.966   9.402 -0.1012  0.0717  0.3608
  479DPPI   C1A 7509  17.044  13.034   8.931  0.1992 -0.0259  0.1843
  479DPPI   C2A 7510  16.998  12.929   8.571  0.1107  0.6175  0.0763
  479DPPI   C3A 7511  16.780  12.823   8.154 -0.0824 -0.0157 -0.2582
  479DPPI   C4A 7512  16.776  12.581   7.735  0.0970  0.1096 -0.0730
  479DPPI   C1B 7513  16.415  12.916   9.088 -0.0654  0.4214  0.2808
  479DPPI   C2B 7514  16.214  12.962   8.685 -0.2638 -0.1017 -0.1139
  479DPPI   C3B 7515  16.211  12.932   8.183 -0.0456  0.2557 -0.0512
  479DPPI   C4B 7516  15.902  12.901   7.972 -0.3769  0.1003 -0.3263
  480DPPI    C1 7517  11.651   2.576  10.268  0.0775 -0.0456  0.0547
  480DPPI    C2 7518  11.345   2.390  10.446  0.0004  0.2038  0.1869
  480DPPI    C3 7519  11.718   2.258  10.502 -0.0696 -0.0274  0.1227
  480DPPI   PO4 7520  11.562   2.559  10.027  0.1117 -0.1747  0.0405
  480DPPI   GL1 7521  11.605   2.727   9.616  0.0674 -0.1473 -0.1923
  480DPPI   GL2 7522  11.815   2.803   9.301  0.0320  0.0909  0.1509
  480DPPI   C1A 7523  11.463   3.116   9.445  0.2656  0.1115  0.1745
  480DPPI   C2A 7524  11.574   3.215   9.009 -0.1751 -0.0899  0.3112
  480DPPI   C3A 7525  11.539   3.223   8.514  0.0282  0.4377  0.0932
  480DPPI   C4A 7526  11.553   3.178   8.037 -0.0024  0.3723  0.0026
  480DPPI   C1B 7527  11.770   2.717   8.899  0.1502  0.3072 -0.2577
  480DPPI   C2B 7528  11.463   2.586   8.666 -0.0117  0.2288  0.2451
  480DPPI   C3B 7529  11.198   2.826   8.366  0.0013  0.0823 -0.3071
  480DPPI   C4B 7530  11.037   2.748   7.984  0.2248  0.1877 -0.0401
  481DPPI    C1 7531  12.443   6.298   9.614 -0.1629  0.1103 -0.1199
  481DPPI    C2 7532  12.582   6.554   9.888 -0.0947  0.0988 -0.1435
  481DPPI    C3 7533  12.404   6.215  10.003 -0.1900  0.1592 -0.1121
  481DPPI   PO4 7534  12.379   6.407   9.438  0.1309  0.2378  0.2792
  481DPPI   GL1 7535  12.564   6.286   9.060  0.4146  0.0223  0.2381
  481DPPI   GL2 7536  12.450   6.569   8.943  0.0462 -0.0640  0.1182
  481DPPI   C1A 7537  12.330   5.975   8.892  0.4866  0.0689 -0.1272
  481DPPI   C2A 7538  12.163   5.566   8.835 -0.3370 -0.2600  0.4573
  481DPPI   C3A 7539  12.196   5.158   8.718 -0.1553  0.0190  0.2461
  481DPPI   C4A 7540  12.107   4.867   8.419 -0.1777  0.1332  0.0933
  481DPPI   C1B 7541  12.253   6.463   8.605  0.0324 -0.1211 -0.0885
  481DPPI   C2B 7542  12.303   6.536   8.123 -0.0845 -0.4175 -0.2339
  481DPPI   C3B 7543  12.361   6.816   7.803 -0.0482  0.2466 -0.0669
  481DPPI   C4B 7544  12.257   7.261   7.748  0.0335  0.2101 -0.2166
  482DPPI    C1 7545   5.000   5.874  10.008  0.1385 -0.1241 -0.1700
  482DPPI    C2 7546   5.294   6.139  10.063  0.1037 -0.0621 -0.2802
  482DPPI    C3 7547   4.942   6.192  10.244  0.1385 -0.1011 -0.2008
  482DPPI   PO4 7548   4.973   5.840   9.714 -0.2791 -0.1648 -0.1294
  482DPPI   GL1 7549   4.767   5.701   9.404 -0.4136  0.1530  0.0528
  482DPPI   GL2 7550   4.923   6.107   9.277 -0.1578  0.0134 -0.3745
  482DPPI   C1A 7551   4.683   5.423   9.195  0.2935  0.2361 -0.1947
  482DPPI   C2A 7552   4.393   5.333   8.833 -0.1460 -0.1551 -0.3019
  482DPPI   C3A 7553   4.223   5.178   8.519  0.1272 -0.1290 -0.3134
  482DPPI   C4A 7554   4.009   4.833   8.553  0.0655  0.1602  0.0894
  482DPPI   C1B 7555   4.987   5.935   8.780  0.0442  0.0739  0.0331
  482DPPI   C2B 7556   5.100   5.807   8.333 -0.0592 -0.0789 -0.0336
  482DPPI   C3B 7557   5.105   5.763   7.902 -0.1136  0.0423  0.3130
  482DPPI   C4B 7558   5.426   5.566   7.494 -0.0381  0.0330 -0.0911
  483DPPI    C1 7559  12.856  15.420  10.463 -0.0324  0.0393 -0.1354
  483DPPI    C2 7560  12.944  15.651  10.778  0.1043  0.0096 -0.1509
  483DPPI    C3 7561  13.145  15.311  10.718 -0.1098 -0.1251 -0.1166
  483DPPI   PO4 7562  12.855  15.590  10.223  0.0799 -0.1441  0.0118
  483DPPI   GL1 7563  12.705  15.558   9.804  0.3049  0.1462 -0.3236
  483DPPI   GL2 7564  12.465  15.348   9.632  0.1330  0.0684  0.1600
  483DPPI   C1A 7565  12.954  15.932   9.528  0.0656  0.1115  0.2331
  483DPPI   C2A 7566  12.921  16.197   9.221 -0.1779  0.1681  0.0681
  483DPPI   C3A 7567  12.956  16.363   8.843  0.1352  0.1755  0.1342
  483DPPI   C4A 7568  12.927  16.504   8.528 -0.0453  0.3375  0.3707
  483DPPI   C1B 7569  12.373  15.623   9.226  0.1538  0.2659 -0.1219
  483DPPI   C2B 7570  12.621  15.844   8.968  0.0416 -0.2848  0.1121
  483DPPI   C3B 7571  12.572  15.612   8.540 -0.3512 -0.2142 -0.1137
  483DPPI   C4B 7572  12.518  15.428   8.088  0.0007 -0.4449 -0.0935
  484DPPI    C1 7573   9.349   0.145  10.405 -0.0483 -0.2463 -0.0780
  484DPPI    C2 7574   9.635   0.296  10.641  0.0038  0.2618 -0.4486
  484DPPI    C3 7575   9.295   0.159  10.801  0.3519 -0.1399 -0.0227
  484DPPI   PO4 7576   9.553   0.099  10.211  0.1737  0.2053 -0.1343
  484DPPI   GL1 7577   9.637   0.292   9.821 -0.0497  0.1001 -0.0986
  484DPPI   GL2 7578   9.892   0.369   9.790  0.4782 -0.4173 -0.0355
  484DPPI   C1A 7579   9.764   0.062   9.464  0.0958  0.0204  0.0359
  484DPPI   C2A 7580   9.720   0.165   9.062  0.0429 -0.0676 -0.1715
  484DPPI   C3A 7581   9.660   0.176   8.672 -0.0961  0.1079  0.5107
  484DPPI   C4A 7582   9.583   0.330   8.160  0.4221  0.1380  0.1326
  484DPPI   C1B 7583  10.027   0.512   9.226 -0.0422  0.1606 -0.2759
  484DPPI   C2B 7584  10.065   0.415   8.799  0.0751  0.2141 -0.0066
  484DPPI   C3B 7585   9.841   0.684   8.419  0.1074  0.0917 -0.1381
  484DPPI   C4B 7586   9.923   1.059   8.264 -0.0628 -0.0863 -0.0997
  485DPPI    C1 7587   0.079   0.678  10.059 -0.1698 -0.1444  0.1900
  485DPPI    C2 7588  -0.034   0.294  10.059  0.0418 -0.2105 -0.1277
  485DPPI    C3 7589   0.317   0.398  10.218 -0.0238 -0.1444 -0.0249
  485DPPI   PO4 7590  -0.188   0.784   9.724  0.2988 -0.1798 -0.1342
  485DPPI   GL1 7591  -0.595   0.584   9.687  0.2350  0.1582  0.0083
  485DPPI   GL2 7592  -0.880   0.327   9.561  0.0561  0.1101  0.4616
  485DPPI   C1A 7593  -0.519   0.361   9.223 -0.0019  0.1817  0.1318
  485DPPI   C2A 7594  -0.560   0.245   8.835  0.0254 -0.0032 -0.1085
  485DPPI   C3A 7595  -0.384   0.162   8.468 -0.1028 -0.1300  0.2226
  485DPPI   C4A 7596  -0.290   0.115   8.091 -0.0490  0.4421  0.0016
  485DPPI   C1B 7597  -0.901  -0.038   9.329  0.1160 -0.3068 -0.0519
  485DPPI   C2B 7598  -0.720  -0.219   9.004 -0.2720 -0.4450  0.2937
  485DPPI   C3B 7599  -0.650  -0.184   8.596  0.0133  0.0979  0.0458
  485DPPI   C4B 7600  -0.727  -0.095   8.112  0.2518 -0.0401 -0.0506
  486DPPI    C1 7601   2.622   3.139  10.374 -0.2118  0.0855  0.3308
  486DPPI    C2 7602   2.854   3.117  10.699  0.1678  0.0324  0.0639
  486DPPI    C3 7603   2.526   3.345  10.702  0.3082  0.2367  0.3974
  486DPPI   PO4 7604   2.794   3.158  10.222  0.1175 -0.3645 -0.0337
  486DPPI   GL1 7605   3.102   3.025   9.838  0.2935  0.1343 -0.2164
  486DPPI   GL2 7606   3.357   3.007   9.570  0.0972  0.1092 -0.0594
  486DPPI   C1A 7607   2.892   3.169   9.348  0.1205  0.3787 -0.1148
  486DPPI   C2A 7608   2.660   3.262   8.922 -0.2747 -0.0280  0.0243
  486DPPI   C3A 7609   2.436   3.269   8.510 -0.0855  0.2107 -0.1291
  486DPPI   C4A 7610   2.279   3.317   8.062 -0.0156  0.1130  0.0582
  486DPPI   C1B 7611   3.322   2.958   9.100 -0.0057 -0.1144 -0.0100
  486DPPI   C2B 7612   3.411   3.139   8.721  0.0035  0.0590 -0.0528
  486DPPI   C3B 7613   3.455   3.125   8.305  0.4385  0.1888 -0.0320
  486DPPI   C4B 7614   3.513   3.133   7.779 -0.3116  0.2101 -0.0071
  487DPPI    C1 7615   9.915  13.494   9.617 -0.0873  0.2019 -0.1224
  487DPPI    C2 7616   9.725  13.183   9.781  0.0123  0.1810 -0.0453
  487DPPI    C3 7617   9.584  13.554   9.833  0.0572  0.1769  0.1101
  487DPPI   PO4 7618  10.018  13.406   9.423  0.0280  0.3457  0.0540
  487DPPI   GL1 7619   9.776  13.378   9.065  0.0538  0.0019 -0.0885
  487DPPI   GL2 7620   9.815  13.028   9.071  0.0200  0.2557  0.0156
  487DPPI   C1A 7621   9.645  13.596   8.747  0.0059 -0.1995  0.1161
  487DPPI   C2A 7622   9.417  13.959   8.513  0.2101  0.2778 -0.0647
  487DPPI   C3A 7623   9.411  14.049   8.042  0.1319  0.2573 -0.4696
  487DPPI   C4A 7624   9.097  13.935   7.684 -0.1496  0.2142 -0.2852
  487DPPI   C1B 7625   9.859  13.175   8.593 -0.0600 -0.1060 -0.1816
  487DPPI   C2B 7626   9.795  13.045   8.201  0.3104  0.2329  0.0490
  487DPPI   C3B 7627   9.635  13.082   7.919 -0.1304  0.2076 -0.1338
  487DPPI   C4B 7628   9.531  12.877   7.453  0.2996 -0.0362 -0.0458
  488DPPI    C1 7629  10.188   7.063  10.089 -0.1560  0.0469 -0.0477
  488DPPI    C2 7630  10.381   6.756  10.258 -0.1667 -0.0514 -0.2118
  488DPPI    C3 7631  10.088   6.942  10.457  0.0505  0.0568  0.0130
  488DPPI   PO4 7632  10.361   7.111   9.897 -0.2054 -0.0026  0.0710
  488DPPI   GL1 7633  10.438   6.892   9.507 -0.3528  0.3301 -0.1064
  488DPPI   GL2 7634  10.688   6.901   9.497 -0.1335  0.2834  0.0615
  488DPPI   C1A 7635  10.425   6.797   9.106 -0.0849 -0.1028  0.1053
  488DPPI   C2A 7636  10.609   6.714   8.736  0.0778  0.1716 -0.1096
  488DPPI   C3A 7637  10.667   6.731   8.286 -0.4286 -0.0691  0.2988
  488DPPI   C4A 7638  10.483   6.858   7.921 -0.2637  0.1673  0.6286
  488DPPI   C1B 7639  11.022   6.867   9.254  0.3630  0.0217  0.0684
  488DPPI   C2B 7640  11.152   6.790   8.864 -0.0756  0.0838  0.2925
  488DPPI   C3B 7641  11.063   6.501   8.560 -0.0409 -0.0034 -0.0745
  488DPPI   C4B 7642  11.321   6.499   8.345 -0.3550 -0.0986  0.0165
  489DPPI    C1 7643   1.225   6.089   9.943 -0.0867 -0.0523  0.1521
  489DPPI    C2 7644   1.091   5.842  10.228  0.2755 -0.0314  0.3464
  489DPPI    C3 7645   1.354   5.710   9.957  0.1479  0.0272  0.1931
  489DPPI   PO4 7646   0.969   6.204   9.867 -0.0839 -0.3182 -0.0534
  489DPPI   GL1 7647   0.986   6.598   9.607 -0.0237 -0.2665  0.0522
  489DPPI   GL2 7648   1.133   6.897   9.664  0.2913 -0.1121 -0.0831
  489DPPI   C1A 7649   1.081   6.422   9.211  0.0720  0.1475  0.0319
  489DPPI   C2A 7650   1.115   6.453   8.842 -0.0404  0.0811  0.1431
  489DPPI   C3A 7651   1.225   6.216   8.526 -0.0717 -0.3750  0.1722
  489DPPI   C4A 7652   0.982   6.082   8.151  0.0723  0.0179 -0.2734
  489DPPI   C1B 7653   1.452   6.867   9.271 -0.2413  0.2836  0.0269
  489DPPI   C2B 7654   1.592   6.399   9.040 -0.2106 -0.4462  0.2445
  489DPPI   C3B 7655   1.625   6.001   8.837  0.1989  0.1104 -0.0914
  489DPPI   C4B 7656   1.368   5.778   8.700  0.2084  0.1285 -0.0502
  490DPPI    C1 7657  10.727  13.749   9.967  0.0509 -0.0621  0.0520
  490DPPI    C2 7658  10.354  13.626  10.042  0.0127 -0.0230 -0.0715
  490DPPI    C3 7659  10.484  13.974  10.191  0.0675 -0.1332  0.1419
  490DPPI   PO4 7660  10.756  13.680   9.768  0.1254 -0.3814  0.3186
  490DPPI   GL1 7661  10.687  13.815   9.238  0.0386 -0.0162 -0.1977
  490DPPI   GL2 7662  10.789  13.543   9.192 -0.1379 -0.0258  0.3564
  490DPPI   C1A 7663  10.595  13.861   8.829 -0.3574  0.2184 -0.1941
  490DPPI   C2A 7664  10.576  13.866   8.294 -0.0427  0.0021  0.0885
  490DPPI   C3A 7665  10.295  13.976   7.965 -0.2594  0.1686  0.1685
  490DPPI   C4A 7666   9.868  13.885   7.742  0.0520 -0.0153  0.0673
  490DPPI   C1B 7667  10.679  13.324   8.751  0.1949 -0.0750  0.1097
  490DPPI   C2B 7668  10.746  13.360   8.282 -0.1303 -0.1178  0.2925
  490DPPI   C3B 7669  10.657  13.572   7.874 -0.2984 -0.0339 -0.1622
  490DPPI   C4B 7670  10.922  13.836   7.531  0.2626 -0.2126 -0.1954
  491DPPI    C1 7671   0.908  14.538   9.772  0.0791 -0.0053 -0.1298
  491DPPI    C2 7672   0.914  14.290  10.086  0.0898  0.0782 -0.0637
  491DPPI    C3 7673   0.681  14.615  10.092  0.0146  0.0271 -0.1832
  491DPPI   PO4 7674   1.193  14.596   9.736 -0.1098 -0.2062  0.0011
  491DPPI   GL1 7675   1.458  14.698   9.373 -0.3144  0.0119  0.0885
  491DPPI   GL2 7676   1.624  14.875   9.329 -0.0423  0.0068 -0.1708
  491DPPI   C1A 7677   1.446  14.531   8.847  0.0137  0.0679  0.0883
  491DPPI   C2A 7678   1.472  14.464   8.408 -0.1246  0.0575 -0.1389
  491DPPI   C3A 7679   1.177  14.201   8.114 -0.0818 -0.2701  0.0474
  491DPPI   C4A 7680   1.191  13.940   7.825  0.0224  0.0975 -0.0112
  491DPPI   C1B 7681   1.486  15.037   8.926  0.2515 -0.0516  0.0425
  491DPPI   C2B 7682   1.243  14.879   8.549 -0.0917 -0.1513  0.2429
  491DPPI   C3B 7683   0.942  14.690   8.372  0.0899  0.0055  0.1412
  491DPPI   C4B 7684   0.756  14.333   8.384 -0.0084  0.3274  0.5264
  492DPPI    C1 7685   7.943   4.483  10.085  0.1234  0.0737  0.0080
  492DPPI    C2 7686   8.288   4.454   9.884  0.0752  0.0559 -0.0725
  492DPPI    C3 7687   8.093   4.803   9.897 -0.0482 -0.0042 -0.2670
  492DPPI   PO4 7688   7.812   4.344   9.905  0.1547  0.0364 -0.1426
  492DPPI   GL1 7689   8.034   4.037   9.716 -0.0687 -0.0618  0.4098
  492DPPI   GL2 7690   8.366   3.965   9.583 -0.0731 -0.1398  0.1249
  492DPPI   C1A 7691   7.746   3.995   9.447  0.1151 -0.0254  0.0842
  492DPPI   C2A 7692   7.764   3.705   9.102 -0.3157  0.3717 -0.1379
  492DPPI   C3A 7693   7.759   3.628   8.627  0.0209  0.1667 -0.0229
  492DPPI   C4A 7694   7.951   3.452   8.355  0.1644 -0.2571 -0.1268
  492DPPI   C1B 7695   8.295   3.812   9.122  0.0576 -0.2196  0.0383
  492DPPI   C2B 7696   8.181   3.408   9.020 -0.1105  0.1619  0.0800
  492DPPI   C3B 7697   7.773   3.206   8.921  0.1610  0.1436  0.0408
  492DPPI   C4B 7698   7.645   3.074   8.545 -0.1001  0.4307 -0.1432
  493DPPI    C1 7699   9.368   2.163  10.370  0.0012  0.0328  0.0807
  493DPPI    C2 7700   9.736   2.040  10.272 -0.0167  0.2922 -0.3380
  493DPPI    C3 7701   9.683   2.280  10.587  0.1204 -0.0516 -0.0452
  493DPPI   PO4 7702   9.265   2.163  10.123  0.2516  0.1585 -0.0993
  493DPPI   GL1 7703   9.398   1.835   9.952 -0.0742  0.0239  0.2379
  493DPPI   GL2 7704   9.539   2.169   9.698 -0.1287  0.3934  0.0967
  493DPPI   C1A 7705   9.219   1.753   9.508 -0.0636 -0.0272  0.0673
  493DPPI   C2A 7706   9.301   1.806   9.150  0.1098 -0.1874  0.2345
  493DPPI   C3A 7707   9.212   1.609   8.780 -0.0110  0.0010  0.2032
  493DPPI   C4A 7708   8.936   1.533   8.406 -0.0448  0.3806  0.0719
  493DPPI   C1B 7709   9.732   1.991   9.330 -0.1322 -0.0756  0.0603
  493DPPI   C2B 7710   9.636   1.848   8.799 -0.1526  0.0920  0.1258
  493DPPI   C3B 7711   9.859   1.608   8.556 -0.2192  0.1378  0.0754
  493DPPI   C4B 7712   9.902   1.586   8.157  0.0911 -0.2685 -0.3979
  494DPPI    C1 7713  16.835  12.043  10.458  0.0256  0.1962  0.2498
  494DPPI    C2 7714  16.837  11.669  10.599  0.0497  0.1085  0.0204
  494DPPI    C3 7715  17.036  11.956  10.793 -0.0715  0.0294  0.2658
  494DPPI   PO4 7716  16.798  11.982  10.102  0.0825  0.0885  0.1129
  494DPPI   GL1 7717  16.837  12.022   9.655 -0.4676  0.1129 -0.0813
  494DPPI   GL2 7718  17.072  12.148   9.564 -0.0688  0.2524  0.2700
  494DPPI   C1A 7719  16.797  11.977   9.206  0.1379 -0.2375 -0.0863
  494DPPI   C2A 7720  16.966  12.010   8.795 -0.1480 -0.1617 -0.0234
  494DPPI   C3A 7721  17.277  11.759   8.627 -0.2964  0.3445  0.0809
  494DPPI   C4A 7722  17.320  11.829   8.113 -0.2419  0.2700 -0.0391
  494DPPI   C1B 7723  17.041  12.494   9.228 -0.0155 -0.0161 -0.0392
  494DPPI   C2B 7724  16.749  12.500   8.932 -0.1401  0.1068  0.1133
  494DPPI   C3B 7725  16.472  12.626   8.571 -0.4809 -0.0040  0.2099
  494DPPI   C4B 7726  16.129  12.426   8.372 -0.0874 -0.1667 -0.1558
  495DPPI    C1 7727  12.333   9.965   9.953  0.0441 -0.1075  0.1505
  495DPPI    C2 7728  12.107  10.005  10.280 -0.4127  0.1124 -0.1818
  495DPPI    C3 7729  12.057   9.689  10.041 -0.1503  0.0045 -0.0973
  495DPPI   PO4 7730  12.305  10.184   9.779  0.1377 -0.3225  0.0289
  495DPPI   GL1 7731  12.263  10.239   9.375 -0.0469 -0.3810  0.2287
  495DPPI   GL2 7732  12.022  10.273   9.123  0.1064 -0.1873 -0.2694
  495DPPI   C1A 7733  12.555  10.387   9.050 -0.0278 -0.0707 -0.0967
  495DPPI   C2A 7734  12.857  10.534   8.835  0.2009  0.0980 -0.3810
  495DPPI   C3A 7735  13.064  10.544   8.409  0.1411 -0.0752 -0.1960
  495DPPI   C4A 7736  13.029  10.572   8.033  0.1682 -0.0679  0.0734
  495DPPI   C1B 7737  12.132  10.526   8.664 -0.3661  0.0900  0.3709
  495DPPI   C2B 7738  12.107  10.469   8.293  0.4049 -0.2252 -0.2028
  495DPPI   C3B 7739  12.008  10.740   8.011 -0.2344  0.1215 -0.1528
  495DPPI   C4B 7740  12.129  10.775   7.581 -0.1714  0.1829  0.3275
  496DPPI    C1 7741   7.868  18.550  10.367 -0.0303 -0.0740 -0.2648
  496DPPI    C2 7742   7.536  18.772  10.357 -0.1098 -0.1951 -0.3429
  496DPPI    C3 7743   7.662  18.616  10.703  0.1255  0.2368 -0.2266
  496DPPI   PO4 7744   7.891  18.378  10.147 -0.0470  0.0681 -0.0983
  496DPPI   GL1 7745   8.048  18.514   9.804 -0.0300 -0.0955  0.0100
  496DPPI   GL2 7746   8.087  18.275   9.589 -0.2235  0.0408  0.0170
  496DPPI   C1A 7747   8.142  18.766   9.527 -0.2276  0.1925  0.1911
  496DPPI   C2A 7748   8.274  18.919   9.193 -0.1251 -0.0873 -0.0078
  496DPPI   C3A 7749   8.005  19.074   8.840  0.2765 -0.1955 -0.0199
  496DPPI   C4A 7750   7.918  18.933   8.554  0.0486  0.0224  0.0215
  496DPPI   C1B 7751   8.112  18.455   9.039 -0.0631  0.1215 -0.0691
  496DPPI   C2B 7752   8.296  18.536   8.765 -0.0057 -0.3539 -0.0798
  496DPPI   C3B 7753   8.401  18.822   8.391 -0.2252 -0.0811 -0.1214
  496DPPI   C4B 7754   8.633  19.091   8.001 -0.1206 -0.1758 -0.1625
  497DPPI    C1 7755   5.509  15.545  10.009  0.1095 -0.0696  0.0496
  497DPPI    C2 7756   5.287  15.495  10.338  0.2495 -0.3235  0.1079
  497DPPI    C3 7757   5.679  15.414  10.347  0.2457 -0.3748 -0.1332
  497DPPI   PO4 7758   5.270  15.579   9.823  0.1607 -0.0492 -0.1113
  497DPPI   GL1 7759   5.232  15.813   9.494  0.1185  0.0321 -0.0765
  497DPPI   GL2 7760   5.420  16.003   9.609 -0.1597  0.0018 -0.4585
  497DPPI   C1A 7761   5.045  15.714   9.191  0.0176  0.0015 -0.0345
  497DPPI   C2A 7762   4.759  15.546   8.814  0.1003 -0.1208  0.0889
  497DPPI   C3A 7763   4.806  15.569   8.376  0.0069  0.3002  0.4010
  497DPPI   C4A 7764   4.871  15.322   7.948 -0.1114 -0.1544 -0.0230
  497DPPI   C1B 7765   5.287  16.349   9.387  0.1954 -0.0528  0.0718
  497DPPI   C2B 7766   5.482  16.734   9.307  0.2217  0.1140  0.1259
  497DPPI   C3B 7767   5.480  16.981   9.106 -0.1903 -0.3498  0.1743
  497DPPI   C4B 7768   5.468  17.400   9.017  0.1926 -0.0561 -0.1189
  498DPPI    C1 7769   1.768  16.817   9.572  0.0274 -0.0349  0.1277
  498DPPI    C2 7770   1.712  16.905   9.959  0.1070 -0.3855  0.2230
  498DPPI    C3 7771   2.026  16.684   9.848  0.0105 -0.4005 -0.0273
  498DPPI   PO4 7772   1.723  16.929   9.382  0.1124  0.2804  0.1288
  498DPPI   GL1 7773   1.756  17.112   8.984  0.0886 -0.1144 -0.2947
  498DPPI   GL2 7774   1.679  17.345   9.137  0.0207 -0.0421  0.1525
  498DPPI   C1A 7775   1.619  17.089   8.549 -0.0747 -0.2400  0.0051
  498DPPI   C2A 7776   1.474  17.228   8.209 -0.0525 -0.0831  0.2832
  498DPPI   C3A 7777   1.264  17.098   7.835  0.0531 -0.2121  0.2813
  498DPPI   C4A 7778   0.864  16.981   7.614 -0.0321  0.1817  0.2050
  498DPPI   C1B 7779   1.770  17.616   8.764 -0.2214  0.2876 -0.1083
  498DPPI   C2B 7780   1.883  17.494   8.374  0.1487 -0.0481 -0.2849
  498DPPI   C3B 7781   1.835  17.468   7.943  0.1823  0.3432  0.1108
  498DPPI   C4B 7782   2.163  17.386   7.710 -0.1707 -0.3366 -0.0922
  499DPPI    C1 7783   3.666  12.544   9.842  0.2446  0.0655 -0.0603
  499DPPI    C2 7784   3.691  12.820  10.131  0.0857  0.1854 -0.1589
  499DPPI    C3 7785   3.803  12.442  10.204  0.1192  0.2316  0.0356
  499DPPI   PO4 7786   3.434  12.668   9.704 -0.1576 -0.4747  0.1121
  499DPPI   GL1 7787   3.315  12.604   9.227  0.2192  0.1395 -0.2621
  499DPPI   GL2 7788   3.594  12.901   9.195  0.2374 -0.2384  0.0822
  499DPPI   C1A 7789   3.195  12.325   8.703 -0.1023 -0.0716 -0.1167
  499DPPI   C2A 7790   3.222  12.394   8.259  0.0329 -0.0569  0.1418
  499DPPI   C3A 7791   3.185  12.537   7.906  0.1921 -0.0110 -0.4251
  499DPPI   C4A 7792   3.279  12.921   7.601  0.0908  0.1833  0.5277
  499DPPI   C1B 7793   3.605  12.491   8.835 -0.2933  0.1644 -0.3751
  499DPPI   C2B 7794   3.741  12.589   8.449  0.1625  0.2655 -0.0897
  499DPPI   C3B 7795   3.716  12.742   8.020 -0.1479  0.1302 -0.4158
  499DPPI   C4B 7796   3.759  12.796   7.585 -0.4633 -0.1966 -0.1409
  500DPPI    C1 7797   2.314  13.997  10.165 -0.1080 -0.0112  0.2966
  500DPPI    C2 7798   2.466  14.311  10.361 -0.0067  0.1098  0.0301
  500DPPI    C3 7799   2.600  13.942  10.439  0.0941  0.1658  0.1254
  500DPPI   PO4 7800   2.230  14.103   9.877  0.1297 -0.1039  0.0269
  500DPPI   GL1 7801   2.040  13.942   9.525  0.0020  0.3773  0.0434
  500DPPI   GL2 7802   1.813  13.743   9.309  0.0113 -0.0617 -0.5515
  500DPPI   C1A 7803   2.143  14.026   9.137 -0.2788 -0.0184 -0.1685
  500DPPI   C2A 7804   2.334  13.969   8.828 -0.2982 -0.0242  0.1774
  500DPPI   C3A 7805   2.660  13.818   8.594 -0.1096  0.1696 -0.1075
  500DPPI   C4A 7806   2.992  14.021   8.558 -0.0716 -0.1109  0.3820
  500DPPI   C1B 7807   1.594  13.558   8.896 -0.0708  0.2088 -0.0950
  500DPPI   C2B 7808   1.475  13.431   8.471  0.3699 -0.0101  0.1549
  500DPPI   C3B 7809   1.422  13.486   8.073  0.1233 -0.1126 -0.0357
  500DPPI   C4B 7810   1.363  13.413   7.628 -0.0906  0.1902  0.0544
  501DPPI    C1 7811   3.001   1.811  10.373  0.0438 -0.0221  0.0102
  501DPPI    C2 7812   2.611   1.894  10.406  0.1165  0.3760 -0.0775
  501DPPI    C3 7813   2.750   1.536  10.519 -0.2395  0.3063  0.1556
  501DPPI   PO4 7814   3.133   1.982  10.114  0.1613  0.0745  0.1920
  501DPPI   GL1 7815   3.049   2.033   9.768  0.0889 -0.4353  0.0234
  501DPPI   GL2 7816   3.312   2.126   9.618  0.1781 -0.1562  0.0862
  501DPPI   C1A 7817   2.812   1.697   9.493  0.0581  0.2914  0.2613
  501DPPI   C2A 7818   2.603   1.304   9.372 -0.1717 -0.1905 -0.4549
  501DPPI   C3A 7819   2.478   0.848   9.269  0.1205  0.2799  0.2341
  501DPPI   C4A 7820   2.539   0.515   8.971  0.0890 -0.1068 -0.0921
  501DPPI   C1B 7821   3.379   1.854   9.262 -0.0262 -0.0915  0.1564
  501DPPI   C2B 7822   3.463   1.619   8.931  0.3033 -0.3066 -0.1349
  501DPPI   C3B 7823   3.673   1.661   8.518  0.1031 -0.3038  0.0667
  501DPPI   C4B 7824   3.497   1.872   8.087  0.2622  0.2651 -0.0491
  502DPPI    C1 7825   2.101  11.957  10.159  0.1510  0.0267 -0.1616
  502DPPI    C2 7826   2.459  11.986  10.334  0.0826  0.0295 -0.0215
  502DPPI    C3 7827   2.147  11.842  10.539 -0.0085  0.0763 -0.1265
  502DPPI   PO4 7828   2.067  12.179  10.038  0.1934 -0.3881 -0.3158
  502DPPI   GL1 7829   2.038  12.275   9.603 -0.0618  0.2296  0.0190
  502DPPI   GL2 7830   2.178  12.091   9.470 -0.1673 -0.1348  0.0529
  502DPPI   C1A 7831   1.763  12.324   9.134 -0.2276  0.2594  0.0369
  502DPPI   C2A 7832   1.766  12.358   8.655 -0.1284  0.1135 -0.1565
  502DPPI   C3A 7833   1.722  12.314   8.188 -0.3835 -0.0802 -0.3221
  502DPPI   C4A 7834   1.601  12.482   7.857  0.2338  0.2026 -0.0694
  502DPPI   C1B 7835   1.841  11.839   9.225  0.0931  0.0325  0.0179
  502DPPI   C2B 7836   1.468  11.953   8.964 -0.0877  0.1804 -0.2234
  502DPPI   C3B 7837   1.439  12.010   8.581  0.0887  0.0794  0.2882
  502DPPI   C4B 7838   1.223  12.307   8.390 -0.1207 -0.1126  0.2507
  503DPPI    C1 7839  15.657   4.176   9.945  0.0521 -0.2806  0.0066
  503DPPI    C2 7840  15.282   4.222  10.076 -0.0734  0.1309 -0.4682
  503DPPI    C3 7841  15.587   4.250  10.332 -0.3530 -0.0181 -0.1099
  503DPPI   PO4 7842  15.577   4.115   9.708 -0.4215  0.0099 -0.0794
  503DPPI   GL1 7843  15.805   4.062   9.345  0.1572  0.1219  0.1427
  503DPPI   GL2 7844  16.167   4.083   9.252  0.1114  0.1065  0.1595
  503DPPI   C1A 7845  15.765   3.922   8.931 -0.1483  0.2694 -0.2111
  503DPPI   C2A 7846  15.936   3.797   8.475 -0.2991  0.0583  0.1489
  503DPPI   C3A 7847  15.930   3.556   8.101 -0.0567 -0.1243  0.0741
  503DPPI   C4A 7848  15.721   3.552   7.750 -0.2839  0.3307  0.3222
  503DPPI   C1B 7849  16.347   4.256   8.929 -0.2998 -0.0695  0.0268
  503DPPI   C2B 7850  16.399   4.022   8.539  0.0205  0.0032 -0.3545
  503DPPI   C3B 7851  16.274   4.025   8.065 -0.1550  0.0460 -0.1922
  503DPPI   C4B 7852  16.194   3.772   7.672 -0.0603  0.0047 -0.0346
  504DPPI    C1 7853  15.064   6.241   9.470  0.0079  0.2040  0.1695
  504DPPI    C2 7854  14.818   6.206   9.783 -0.1043 -0.0562  0.0553
  504DPPI    C3 7855  15.127   5.956   9.742 -0.0896 -0.0226 -0.0418
  504DPPI   PO4 7856  14.873   6.262   9.258 -0.0242  0.2795 -0.0377
  504DPPI   GL1 7857  14.728   5.954   8.974 -0.0827 -0.1141  0.2809
  504DPPI   GL2 7858  14.398   6.036   8.999 -0.0223  0.2209  0.1736
  504DPPI   C1A 7859  14.842   6.070   8.549  0.0971 -0.3383  0.2618
  504DPPI   C2A 7860  14.799   6.055   7.989 -0.2915 -0.1246  0.1904
  504DPPI   C3A 7861  14.616   5.964   7.546  0.4145  0.1279  0.0335
  504DPPI   C4A 7862  14.507   5.672   7.380  0.2916 -0.3360  0.3578
  504DPPI   C1B 7863  14.244   6.110   8.629 -0.0944  0.1788  0.0348
  504DPPI   C2B 7864  14.426   5.957   8.269  0.0572  0.1229 -0.0580
  504DPPI   C3B 7865  14.396   5.692   8.002 -0.3208 -0.4485  0.2158
  504DPPI   C4B 7866  14.232   5.428   7.684  0.2462 -0.2797 -0.2805
  505DPPI    C1 7867   7.399  17.661  10.414 -0.2083 -0.2476  0.0221
  505DPPI    C2 7868   7.399  17.800  10.789  0.0070 -0.1952  0.0036
  505DPPI    C3 7869   7.745  17.747  10.594 -0.1131 -0.0041 -0.2686
  505DPPI   PO4 7870   7.133  17.574  10.367  0.4079 -0.1191 -0.3765
  505DPPI   GL1 7871   6.964  17.589   9.938 -0.0777 -0.0208  0.0391
  505DPPI   GL2 7872   7.181  17.772   9.639 -0.3023  0.0291 -0.0829
  505DPPI   C1A 7873   6.688  17.895   9.665  0.1229  0.1017 -0.2363
  505DPPI   C2A 7874   6.510  18.027   9.231  0.0077  0.1709 -0.1360
  505DPPI   C3A 7875   6.268  17.880   8.802 -0.1579 -0.0483 -0.0897
  505DPPI   C4A 7876   6.156  17.631   8.391 -0.0612 -0.1983 -0.5094
  505DPPI   C1B 7877   7.380  17.718   9.276 -0.0641 -0.2564  0.2799
  505DPPI   C2B 7878   7.451  17.831   8.810  0.3712  0.0071 -0.2044
  505DPPI   C3B 7879   7.793  18.079   8.537  0.0112 -0.0172 -0.1150
  505DPPI   C4B 7880   8.099  18.425   8.291  0.1181 -0.2243  0.1471
  506DPPI    C1 7881  12.449   4.503  10.178 -0.1954  0.0411 -0.0969
  506DPPI    C2 7882  12.589   4.804   9.954  0.1721 -0.0294  0.0314
  506DPPI    C3 7883  12.737   4.741  10.320  0.0882 -0.3562  0.0127
  506DPPI   PO4 7884  12.299   4.394   9.899 -0.3296  0.4941  0.1528
  506DPPI   GL1 7885  12.302   4.108   9.596  0.1392  0.4364 -0.1049
  506DPPI   GL2 7886  11.985   4.301   9.525  0.1990  0.1732  0.0445
  506DPPI   C1A 7887  12.250   3.992   9.175  0.4462  0.0901 -0.1892
  506DPPI   C2A 7888  12.032   3.977   8.717 -0.1955 -0.0040  0.2581
  506DPPI   C3A 7889  11.938   3.779   8.310  0.1390 -0.3611 -0.2304
  506DPPI   C4A 7890  11.707   3.632   7.915 -0.2690  0.3505 -0.3040
  506DPPI   C1B 7891  12.169   4.410   9.146  0.4612 -0.3435 -0.1701
  506DPPI   C2B 7892  11.909   4.695   8.929  0.0615  0.0681 -0.2468
  506DPPI   C3B 7893  11.648   4.711   8.566  0.0488 -0.0906 -0.2169
  506DPPI   C4B 7894  11.707   4.609   8.194 -0.1481  0.1966  0.3621
  507DPPI    C1 7895  12.347   5.580   9.933 -0.1410 -0.1763  0.0393
  507DPPI    C2 7896  12.360   5.253   9.704 -0.0519 -0.0707 -0.1084
  507DPPI    C3 7897  12.540   5.254  10.061 -0.4562 -0.3416  0.1053
  507DPPI   PO4 7898  12.441   5.764   9.785  0.3598 -0.0879  0.0464
  507DPPI   GL1 7899  12.721   5.694   9.507 -0.0941  0.0974  0.4743
  507DPPI   GL2 7900  12.984   5.791   9.411 -0.0860 -0.2014  0.0632
  507DPPI   C1A 7901  12.429   5.419   9.227  0.1353 -0.0484  0.1699
  507DPPI   C2A 7902  12.647   5.191   8.938  0.3842  0.1732  0.0573
  507DPPI   C3A 7903  12.657   5.107   8.453  0.0440 -0.0714 -0.1364
  507DPPI   C4A 7904  12.547   5.141   8.050  0.1197 -0.0613 -0.0409
  507DPPI   C1B 7905  12.746   5.766   8.958 -0.1427 -0.3831  0.2289
  507DPPI   C2B 7906  12.563   5.594   8.593  0.0043 -0.1753  0.0142
  507DPPI   C3B 7907  12.167   5.535   8.331  0.1652  0.1254 -0.0307
  507DPPI   C4B 7908  12.053   5.228   7.933 -0.0920  0.0044 -0.0055
  508DPPI    C1 7909  12.526   9.506   9.718 -0.0845  0.0505  0.2167
  508DPPI    C2 7910  12.330   9.758   9.478  0.0255 -0.0898 -0.0242
  508DPPI    C3 7911  12.142   9.440   9.631 -0.0193 -0.0515  0.0008
  508DPPI   PO4 7912  12.769   9.582   9.709  0.1201 -0.2440  0.1266
  508DPPI   GL1 7913  12.892   9.678   9.238  0.0903 -0.3499  0.1188
  508DPPI   GL2 7914  12.638   9.863   9.072  0.1491  0.0511 -0.0987
  508DPPI   C1A 7915  13.055   9.569   8.789 -0.3086  0.0381  0.0062
  508DPPI   C2A 7916  13.005   9.765   8.388  0.0888  0.1121  0.0234
  508DPPI   C3A 7917  12.744  10.171   8.180 -0.3389  0.0061 -0.0198
  508DPPI   C4A 7918  12.341  10.298   7.897  0.0640 -0.0446 -0.2440
  508DPPI   C1B 7919  12.559   9.699   8.704 -0.2748 -0.0739  0.2151
  508DPPI   C2B 7920  12.389   9.830   8.233  0.2207 -0.1614  0.2355
  508DPPI   C3B 7921  12.028   9.946   8.103  0.0562  0.0408 -0.0876
  508DPPI   C4B 7922  11.606   9.825   7.981  0.2260  0.0655  0.0183
  509DPPI    C1 7923  14.435  11.589  10.195 -0.0189 -0.1223 -0.0393
  509DPPI    C2 7924  14.569  11.868  10.448 -0.1005 -0.0112 -0.1174
  509DPPI    C3 7925  14.646  11.481  10.517  0.2035  0.0451 -0.1266
  509DPPI   PO4 7926  14.539  11.614   9.929  0.3779 -0.1037  0.1853
  509DPPI   GL1 7927  14.636  11.448   9.509  0.0344  0.2930 -0.1354
  509DPPI   GL2 7928  14.261  11.438   9.556 -0.0987  0.1159 -0.0850
  509DPPI   C1A 7929  14.724  11.536   9.096 -0.2376  0.1542 -0.2033
  509DPPI   C2A 7930  14.778  11.600   8.620 -0.1899  0.0748  0.0586
  509DPPI   C3A 7931  14.554  11.559   8.290 -0.0192  0.2489  0.1123
  509DPPI   C4A 7932  14.325  11.784   7.969  0.0914 -0.0296  0.1838
  509DPPI   C1B 7933  14.254  11.338   9.148 -0.0893 -0.0621  0.1499
  509DPPI   C2B 7934  14.335  11.315   8.674 -0.1492  0.3567 -0.1370
  509DPPI   C3B 7935  14.146  11.280   8.312  0.1300  0.0036  0.3360
  509DPPI   C4B 7936  14.366  11.305   7.895 -0.0140 -0.1255  0.0837
  510DPPI    C1 7937  14.207   4.817   9.989 -0.0836 -0.0022  0.0211
  510DPPI    C2 7938  14.548   4.631  10.084 -0.0522 -0.0409 -0.1631
  510DPPI    C3 7939  14.432   4.953  10.291  0.1276  0.0096 -0.1385
  510DPPI   PO4 7940  14.216   4.801   9.641  0.0599  0.1205 -0.1524
  510DPPI   GL1 7941  14.461   4.971   9.328 -0.1645 -0.1963  0.1042
  510DPPI   GL2 7942  14.339   5.317   9.100 -0.1363 -0.0981  0.0595
  510DPPI   C1A 7943  14.604   4.728   9.110  0.0448 -0.2133  0.2283
  510DPPI   C2A 7944  14.728   4.455   8.792 -0.1124  0.2228  0.1233
  510DPPI   C3A 7945  14.924   4.380   8.405 -0.0280 -0.1947 -0.0020
  510DPPI   C4A 7946  15.130   4.186   8.092  0.1654 -0.2184 -0.0584
  510DPPI   C1B 7947  14.625   5.182   8.770 -0.1316 -0.2917 -0.1735
  510DPPI   C2B 7948  14.688   4.887   8.472 -0.0533 -0.3779  0.2910
  510DPPI   C3B 7949  14.865   4.887   8.055  0.1288 -0.1125 -0.0121
  510DPPI   C4B 7950  14.979   4.766   7.613  0.1604 -0.0073  0.2728
  511DPPI    C1 7951  15.331  16.062  10.166  0.1204 -0.0232 -0.0196
  511DPPI    C2 7952  15.623  15.792  10.208  0.1318 -0.0073  0.0040
  511DPPI    C3 7953  15.476  15.980  10.530 -0.0314 -0.1492  0.0135
  511DPPI   PO4 7954  15.437  16.253   9.943 -0.2695  0.0213  0.0078
  511DPPI   GL1 7955  15.610  16.278   9.493  0.0173  0.1166  0.3358
  511DPPI   GL2 7956  15.881  16.301   9.497 -0.3365  0.1262 -0.1181
  511DPPI   C1A 7957  15.620  16.417   9.100 -0.1629  0.2100  0.0651
  511DPPI   C2A 7958  15.588  16.330   8.695 -0.2133  0.1660 -0.4239
  511DPPI   C3A 7959  15.458  16.265   8.271  0.1272  0.0069  0.1727
  511DPPI   C4A 7960  15.163  16.325   7.909  0.0746 -0.0856  0.0475
  511DPPI   C1B 7961  16.014  16.088   9.128  0.0584  0.1208 -0.0190
  511DPPI   C2B 7962  16.151  16.364   8.771 -0.0919  0.2320 -0.2092
  511DPPI   C3B 7963  16.131  16.284   8.406 -0.2036  0.0591  0.1031
  511DPPI   C4B 7964  16.066  16.189   7.913 -0.1429 -0.2940  0.0932
  512DPPI    C1 7965  14.195  17.701   9.941  0.0826 -0.0438  0.1491
  512DPPI    C2 7966  13.852  17.774  10.135 -0.0521 -0.1819 -0.0337
  512DPPI    C3 7967  14.152  17.586  10.322 -0.1605 -0.2652  0.0576
  512DPPI   PO4 7968  14.119  17.599   9.725  0.2094  0.0514  0.0959
  512DPPI   GL1 7969  14.371  17.459   9.383 -0.1373  0.3409  0.1532
  512DPPI   GL2 7970  14.153  17.788   9.277  0.3123 -0.0226 -0.0073
  512DPPI   C1A 7971  14.582  17.430   9.050 -0.3657 -0.2581 -0.3139
  512DPPI   C2A 7972  14.744  17.451   8.640 -0.2838  0.2321 -0.0903
  512DPPI   C3A 7973  14.803  17.799   8.372  0.2580 -0.5539 -0.1587
  512DPPI   C4A 7974  15.156  18.151   8.358  0.1376 -0.1989 -0.0790
  512DPPI   C1B 7975  13.840  17.891   8.928 -0.1567  0.0855  0.3833
  512DPPI   C2B 7976  13.663  17.709   8.504 -0.0541 -0.3559 -0.1978
  512DPPI   C3B 7977  13.424  17.794   8.159 -0.2372  0.1539  0.0354
  512DPPI   C4B 7978  13.234  18.031   7.935 -0.0603  0.0240 -0.2344
  513PYPI    C1 7979   4.934  11.363   9.894 -0.1778 -0.2322  0.1783
  513PYPI    C2 7980   5.139  11.702   9.951 -0.1450 -0.2276  0.0379
  513PYPI    C3 7981   4.792  11.643  10.141 -0.0442 -0.2092  0.2300
  513PYPI   PO4 7982   4.969  11.404   9.585 -0.3253 -0.0200  0.1278
  513PYPI   GL1 7983   4.774  11.536   9.283 -0.1922  0.0170  0.1570
  513PYPI   GL2 7984   4.528  11.659   9.151 -0.0387  0.1115 -0.2376
  513PYPI   C1A 7985   4.943  11.437   8.891 -0.0676  0.1125  0.0863
  513PYPI   C2A 7986   4.949  11.552   8.453 -0.3655 -0.3597  0.1775
  513PYPI   D3A 7987   5.052  11.761   8.254  0.2206 -0.1976  0.3709
  513PYPI   C4A 7988   4.746  11.717   7.890  0.3529  0.1000 -0.0725
  513PYPI   C1B 7989   4.612  11.877   8.781  0.0346  0.0019  0.1605
  513PYPI   C2B 7990   4.537  12.217   8.485  0.3136  0.1001 -0.1860
  513PYPI   C3B 7991   4.509  12.225   8.095 -0.1921 -0.3341 -0.0826
  513PYPI   C4B 7992   4.414  12.138   7.663 -0.0942  0.2088  0.0224
  514PYPI    C1 7993   4.327  16.527   9.940  0.0817  0.1397 -0.0504
  514PYPI    C2 7994   4.070  16.541  10.246 -0.0137  0.0244 -0.1247
  514PYPI    C3 7995   4.371  16.803  10.226  0.0498 -0.0277  0.1179
  514PYPI   PO4 7996   4.150  16.512   9.703 -0.2241 -0.0268  0.0113
  514PYPI   GL1 7997   4.292  16.693   9.404  0.1527 -0.2004  0.2743
  514PYPI   GL2 7998   4.465  16.348   9.326 -0.0645  0.0206 -0.0033
  514PYPI   C1A 7999   4.066  16.681   9.007 -0.0543 -0.1315  0.0725
  514PYPI   C2A 8000   4.013  16.706   8.657  0.1124  0.0459  0.0302
  514PYPI   D3A 8001   4.114  17.019   8.409  0.0268  0.0694 -0.2621
  514PYPI   C4A 8002   4.472  17.015   8.113 -0.1581  0.2386 -0.1470
  514PYPI   C1B 8003   4.560  16.534   8.952 -0.2493 -0.1829 -0.1680
  514PYPI   C2B 8004   4.721  16.644   8.555  0.1451 -0.1505 -0.1069
  514PYPI   C3B 8005   5.136  16.631   8.345 -0.2810  0.0398 -0.0041
  514PYPI   C4B 8006   5.511  16.799   8.083 -0.3089 -0.1461 -0.1494
  515PYPI    C1 8007   3.238   7.402   9.941  0.2369 -0.1641  0.0125
  515PYPI    C2 8008   3.290   7.338  10.332  0.1312 -0.0226  0.0507
  515PYPI    C3 8009   3.384   7.692  10.174 -0.0804  0.0115 -0.0016
  515PYPI   PO4 8010   3.235   7.231   9.800  0.0613 -0.3674 -0.3949
  515PYPI   GL1 8011   3.176   7.137   9.452 -0.0801  0.0506 -0.0780
  515PYPI   GL2 8012   3.439   7.143   9.369 -0.0696 -0.2202 -0.2260
  515PYPI   C1A 8013   3.017   7.277   9.085 -0.1991 -0.0706 -0.0018
  515PYPI   C2A 8014   3.173   7.367   8.621 -0.4627  0.1668  0.1698
  515PYPI   D3A 8015   3.432   7.488   8.301 -0.0297 -0.2323 -0.0121
  515PYPI   C4A 8016   3.248   7.668   7.917  0.0414  0.0927  0.1800
  515PYPI   C1B 8017   3.505   7.130   8.949 -0.2320  0.0743 -0.0851
  515PYPI   C2B 8018   3.495   7.004   8.551  0.1880 -0.4951 -0.1583
  515PYPI   C3B 8019   3.446   7.020   8.071 -0.0378 -0.2343  0.0972
  515PYPI   C4B 8020   3.649   6.791   7.698  0.1734  0.2625 -0.1136
  516PYPI    C1 8021  17.233  11.697  10.249 -0.1841  0.2397 -0.1178
  516PYPI    C2 8022  17.483  11.954  10.426 -0.1383 -0.0555  0.2585
  516PYPI    C3 8023  17.412  11.596  10.592 -0.2416 -0.2692 -0.2285
  516PYPI   PO4 8024  17.285  11.713   9.935 -0.0743  0.1625  0.0715
  516PYPI   GL1 8025  17.559  11.569   9.649  0.0325  0.2130 -0.0671
  516PYPI   GL2 8026  17.553  11.923   9.579  0.0857 -0.2341 -0.0138
  516PYPI   C1A 8027  17.673  11.593   9.143 -0.1652  0.3984 -0.1411
  516PYPI   C2A 8028  17.842  11.581   8.699 -0.1664  0.0996 -0.0860
  516PYPI   D3A 8029  17.614  11.405   8.350  0.0726  0.2393 -0.0427
  516PYPI   C4A 8030  17.837  11.289   7.987 -0.1967 -0.0057 -0.1706
  516PYPI   C1B 8031  17.449  12.130   9.205 -0.1437 -0.0755 -0.3829
  516PYPI   C2B 8032  17.632  12.144   8.688 -0.2580 -0.3266 -0.3924
  516PYPI   C3B 8033  17.548  12.284   8.342  0.0074 -0.0942 -0.1152
  516PYPI   C4B 8034  17.578  12.243   7.916 -0.0890 -0.2439  0.1141
  517PYPI    C1 8035  16.392   5.149   9.891  0.0057  0.2147 -0.0544
  517PYPI    C2 8036  16.758   5.311   9.910  0.1583 -0.1373  0.0925
  517PYPI    C3 8037  16.607   5.119  10.226 -0.0156 -0.2891 -0.0793
  517PYPI   PO4 8038  16.351   5.201   9.594 -0.0579  0.0980 -0.2352
  517PYPI   GL1 8039  16.261   5.370   9.188 -0.1164  0.1894 -0.1870
  517PYPI   GL2 8040  16.330   5.071   9.057  0.2543  0.0171 -0.1175
  517PYPI   C1A 8041  15.994   5.336   8.788  0.0419  0.1604  0.1134
  517PYPI   C2A 8042  15.956   5.369   8.406  0.0591 -0.3395  0.0797
  517PYPI   D3A 8043  16.196   5.608   8.085 -0.0017  0.0444 -0.1646
  517PYPI   C4A 8044  16.059   5.664   7.627  0.4069 -0.1211 -0.4368
  517PYPI   C1B 8045  16.375   4.750   8.781 -0.1180 -0.0760 -0.0845
  517PYPI   C2B 8046  16.257   4.584   8.470  0.5260  0.1845  0.1053
  517PYPI   C3B 8047  15.955   4.372   8.151  0.2364  0.1584 -0.0630
  517PYPI   C4B 8048  15.694   4.142   7.967  0.0261 -0.0549 -0.0986
  518PYPI    C1 8049  18.727   8.727   9.703  0.1536 -0.0794 -0.0119
  518PYPI    C2 8050  18.514   8.859  10.014 -0.2744 -0.1784 -0.2547
  518PYPI    C3 8051  18.845   8.644  10.076 -0.0300  0.2892  0.1334
  518PYPI   PO4 8052  18.516   8.573   9.637  0.2764 -0.0220 -0.1376
  518PYPI   GL1 8053  18.178   8.716   9.318 -0.0482  0.0523  0.3715
  518PYPI   GL2 8054  18.505   8.977   9.295  0.1348  0.1888  0.1813
  518PYPI   C1A 8055  18.166   8.600   8.856 -0.1294  0.1621  0.0836
  518PYPI   C2A 8056  18.086   8.595   8.429 -0.0075 -0.1286 -0.2614
  518PYPI   D3A 8057  17.989   8.842   8.141  0.0505  0.1303 -0.0268
  518PYPI   C4A 8058  17.739   8.684   7.775 -0.3366 -0.1949  0.2775
  518PYPI   C1B 8059  18.714   9.248   8.970  0.5406 -0.0323 -0.0602
  518PYPI   C2B 8060  18.938   9.294   8.558  0.2325  0.0359  0.1427
  518PYPI   C3B 8061  18.737   9.346   8.191  0.0674  0.0685 -0.0358
  518PYPI   C4B 8062  18.552   9.226   7.812 -0.2037 -0.6201 -0.1508
  519PYPI    C1 8063  10.958  17.620   9.782 -0.1717 -0.0094  0.2396
  519PYPI    C2 8064  10.891  17.677  10.173  0.1131 -0.1497  0.3115
  519PYPI    C3 8065  11.265  17.684  10.031  0.0065 -0.0371  0.0293
  519PYPI   PO4 8066  10.826  17.559   9.717  0.0927  0.1917  0.2344
  519PYPI   GL1 8067  10.872  17.338   9.311  0.3192  0.1616  0.1700
  519PYPI   GL2 8068  10.984  17.094   9.531  0.1494 -0.0660  0.0789
  519PYPI   C1A 8069  10.725  17.370   8.881 -0.0379 -0.1074 -0.1666
  519PYPI   C2A 8070  10.893  17.392   8.496 -0.0416 -0.5642 -0.3164
  519PYPI   D3A 8071  11.111  17.371   8.175  0.0912  0.3285 -0.1364
  519PYPI   C4A 8072  11.387  17.158   7.943 -0.0807  0.3184 -0.0684
  519PYPI   C1B 8073  11.274  17.005   9.218  0.0229 -0.3615 -0.0031
  519PYPI   C2B 8074  11.370  16.683   8.921  0.0230 -0.0579 -0.0548
  519PYPI   C3B 8075  11.494  16.537   8.625 -0.0279 -0.2445 -0.0932
  519PYPI   C4B 8076  11.689  16.524   8.308 -0.2080 -0.1634  0.0646
  520PYPI    C1 8077  18.406  17.298   9.794  0.0011  0.1572 -0.0127
  520PYPI    C2 8078  18.135  17.293  10.087 -0.1785  0.1116 -0.1776
  520PYPI    C3 8079  18.355  16.968  10.013 -0.0181  0.1752  0.0104
  520PYPI   PO4 8080  18.267  17.458   9.647  0.1319 -0.0681  0.4311
  520PYPI   GL1 8081  18.432  17.493   9.242 -0.3145  0.1611  0.3316
  520PYPI   GL2 8082  18.374  17.234   9.189  0.2054 -0.1192 -0.0274
  520PYPI   C1A 8083  18.493  17.776   8.862 -0.0984  0.0172 -0.0207
  520PYPI   C2A 8084  18.324  18.215   8.791  0.0020  0.0565  0.0313
  520PYPI   D3A 8085  18.399  18.435   8.384  0.2230  0.0373  0.1356
  520PYPI   C4A 8086  18.385  18.334   7.982 -0.1628 -0.0132 -0.0740
  520PYPI   C1B 8087  18.400  17.248   8.722 -0.2655 -0.0815 -0.1301
  520PYPI   C2B 8088  18.484  17.272   8.269 -0.1100 -0.1679 -0.1952
  520PYPI   C3B 8089  18.408  17.307   7.810 -0.2841  0.0382  0.1641
  520PYPI   C4B 8090  18.267  16.954   7.502 -0.0275 -0.1722  0.1675
  521PYPI    C1 8091   8.300   1.242  10.848  0.0133  0.0152 -0.1884
  521PYPI    C2 8092   8.226   1.598  11.014  0.1354  0.0682 -0.2460
  521PYPI    C3 8093   8.450   1.329  11.208 -0.0481 -0.0205 -0.1540
  521PYPI   PO4 8094   8.215   1.397  10.519 -0.0113  0.2394  0.0405
  521PYPI   GL1 8095   8.057   1.544  10.076 -0.0675 -0.1924  0.1700
  521PYPI   GL2 8096   7.820   1.765  10.106  0.1042  0.0539 -0.0369
  521PYPI   C1A 8097   8.105   1.265   9.674 -0.0656  0.1431  0.0103
  521PYPI   C2A 8098   7.844   1.178   9.345  0.1864  0.0814  0.3774
  521PYPI   D3A 8099   7.584   1.275   9.051  0.3038  0.0419 -0.1109
  521PYPI   C4A 8100   7.644   1.213   8.588 -0.2202 -0.0273 -0.0322
  521PYPI   C1B 8101   7.834   1.827   9.707  0.2038 -0.1957  0.0171
  521PYPI   C2B 8102   7.884   1.661   9.224  0.0026 -0.1419  0.0667
  521PYPI   C3B 8103   7.593   1.662   8.725 -0.2189 -0.1514 -0.2181
  521PYPI   C4B 8104   7.687   1.826   8.341  0.0932 -0.1283 -0.1352
  522PYPI    C1 8105   2.647   4.318  10.044 -0.2596 -0.2289  0.0818
  522PYPI    C2 8106   3.000   4.267  10.225 -0.0290 -0.2441 -0.3575
  522PYPI    C3 8107   2.827   4.628  10.222  0.0138 -0.2214 -0.1991
  522PYPI   PO4 8108   2.754   4.184   9.764  0.0190  0.0655 -0.1618
  522PYPI   GL1 8109   3.113   4.204   9.581 -0.2279 -0.2346  0.0766
  522PYPI   GL2 8110   3.348   4.274   9.614  0.0273 -0.0212 -0.1951
  522PYPI   C1A 8111   3.124   4.062   9.105  0.3768  0.1825  0.0873
  522PYPI   C2A 8112   3.136   3.963   8.693  0.3265  0.1160  0.0767
  522PYPI   D3A 8113   2.985   3.915   8.201 -0.1100 -0.4014 -0.3138
  522PYPI   C4A 8114   3.080   3.998   7.817 -0.0716 -0.1168 -0.1366
  522PYPI   C1B 8115   3.594   4.535   9.318 -0.2199  0.1595 -0.3464
  522PYPI   C2B 8116   3.621   4.742   8.871 -0.3711  0.1396  0.2024
  522PYPI   C3B 8117   3.478   4.806   8.447 -0.2042  0.1569  0.0356
  522PYPI   C4B 8118   3.308   5.096   8.103 -0.4636  0.1166  0.3242
  523PYPI    C1 8119   4.904   6.972   9.740  0.1297 -0.0658 -0.2759
  523PYPI    C2 8120   4.795   7.352   9.677  0.1785 -0.0105 -0.0366
  523PYPI    C3 8121   5.178   7.262   9.748  0.1377 -0.0784  0.1029
  523PYPI   PO4 8122   4.610   6.820   9.646  0.1529  0.1253  0.1050
  523PYPI   GL1 8123   4.196   6.989   9.541 -0.0252 -0.0368 -0.3129
  523PYPI   GL2 8124   3.997   7.176   9.364 -0.2287  0.0412  0.0910
  523PYPI   C1A 8125   3.955   6.738   9.198  0.1426 -0.0855  0.1512
  523PYPI   C2A 8126   3.852   6.726   8.778 -0.1566 -0.3057 -0.1090
  523PYPI   D3A 8127   3.805   6.630   8.276  0.1526 -0.1134 -0.1784
  523PYPI   C4A 8128   4.144   6.937   8.270 -0.3877  0.0189 -0.0745
  523PYPI   C1B 8129   4.395   7.171   9.100  0.1857  0.0800 -0.0110
  523PYPI   C2B 8130   4.698   7.522   8.968 -0.1050 -0.3010 -0.0093
  523PYPI   C3B 8131   5.112   7.703   8.887  0.0081  0.0180  0.1152
  523PYPI   C4B 8132   5.218   7.489   8.641  0.0703 -0.2168  0.0235
  524PYPI    C1 8133  14.469   7.995   9.815 -0.2342  0.1374 -0.1389
  524PYPI    C2 8134  14.330   7.622   9.781  0.1431 -0.0276  0.0725
  524PYPI    C3 8135  14.440   7.763  10.139 -0.1016  0.3286  0.0126
  524PYPI   PO4 8136  14.662   8.009   9.552 -0.3499  0.2821 -0.0008
  524PYPI   GL1 8137  14.659   7.922   9.111  0.0201 -0.0410 -0.0045
  524PYPI   GL2 8138  14.408   8.166   8.941 -0.0757  0.0066  0.0183
  524PYPI   C1A 8139  14.779   7.891   8.660 -0.0618  0.1762  0.0262
  524PYPI   C2A 8140  14.704   7.694   8.165  0.2488 -0.2600 -0.2003
  524PYPI   D3A 8141  14.816   7.595   7.707 -0.0951  0.1271 -0.0365
  524PYPI   C4A 8142  14.552   7.602   7.410 -0.3439  0.2844  0.4809
  524PYPI   C1B 8143  14.326   7.772   8.724  0.0482  0.0379 -0.0960
  524PYPI   C2B 8144  14.273   7.492   8.325  0.2973  0.3134  0.0855
  524PYPI   C3B 8145  14.214   7.393   7.963  0.6087  0.2634 -0.1678
  524PYPI   C4B 8146  14.343   7.175   7.593 -0.0376  0.2130  0.1630
  525PYPI    C1 8147   0.861   9.402  10.042 -0.2217 -0.0205  0.0973
  525PYPI    C2 8148   0.554   9.658  10.060  0.0058  0.2627  0.0228
  525PYPI    C3 8149   0.849   9.681  10.329  0.0600  0.1202 -0.0242
  525PYPI   PO4 8150   0.760   9.297   9.802  0.0263  0.0881  0.2188
  525PYPI   GL1 8151   0.512   9.120   9.566 -0.1768 -0.0185  0.0357
  525PYPI   GL2 8152   0.679   8.905   9.398 -0.2137  0.0353  0.1610
  525PYPI   C1A 8153   0.357   9.144   9.096 -0.0568  0.1916 -0.0742
  525PYPI   C2A 8154   0.335   9.143   8.638 -0.3255  0.0799  0.2057
  525PYPI   D3A 8155   0.268   8.904   8.190  0.0783  0.2520  0.1076
  525PYPI   C4A 8156  -0.017   9.153   7.850  0.0959 -0.3813 -0.0809
  525PYPI   C1B 8157   0.859   8.926   9.016  0.6387  0.1854 -0.2876
  525PYPI   C2B 8158   0.805   8.937   8.586 -0.0721 -0.0699 -0.1160
  525PYPI   C3B 8159   0.746   9.016   8.138 -0.3601  0.0224 -0.2055
  525PYPI   C4B 8160   0.473   9.180   7.799  0.1001  0.0752 -0.0570
  526PYPI    C1 8161  17.208   0.818   9.721 -0.0149  0.0677  0.0844
  526PYPI    C2 8162  16.853   0.760   9.545 -0.0103 -0.0031  0.0981
  526PYPI    C3 8163  17.036   0.457   9.731  0.2185 -0.0561 -0.2048
  526PYPI   PO4 8164  17.365   0.893   9.480  0.1858 -0.0727  0.2292
  526PYPI   GL1 8165  17.213   0.555   9.225 -0.3174 -0.0526 -0.1647
  526PYPI   GL2 8166  16.932   0.367   9.141  0.2647 -0.0758 -0.2690
  526PYPI   C1A 8167  17.133   0.619   8.755 -0.3527  0.0102  0.0974
  526PYPI   C2A 8168  17.273   0.699   8.337 -0.2808  0.1772  0.1284
  526PYPI   D3A 8169  17.075   0.341   8.106 -0.1338  0.2015 -0.3334
  526PYPI   C4A 8170  16.632   0.266   8.107 -0.3496  0.0665  0.0050
  526PYPI   C1B 8171  17.133   0.042   8.956 -0.3140  0.0927  0.2392
  526PYPI   C2B 8172  17.391   0.192   8.518 -0.0430 -0.2285 -0.0900
  526PYPI   C3B 8173  17.546   0.336   8.167 -0.0602 -0.0579 -0.1483
  526PYPI   C4B 8174  17.440   0.639   7.858 -0.0884  0.1940  0.1311
  527PYPI    C1 8175   5.731  11.462   9.611  0.0660 -0.0113  0.1729
  527PYPI    C2 8176   5.498  11.345   9.914  0.0077 -0.2396  0.0415
  527PYPI    C3 8177   5.850  11.519   9.988 -0.2313  0.1736  0.2424
  527PYPI   PO4 8178   5.556  11.439   9.422 -0.2506 -0.0545 -0.2691
  527PYPI   GL1 8179   5.665  11.065   9.188  0.1395 -0.0328 -0.0384
  527PYPI   GL2 8180   5.287  11.029   8.971 -0.2280  0.1756 -0.0821
  527PYPI   C1A 8181   5.789  11.292   8.854 -0.1419 -0.3114  0.4617
  527PYPI   C2A 8182   6.000  11.579   8.528 -0.0167 -0.1125  0.0499
  527PYPI   D3A 8183   5.928  11.623   8.045  0.0235  0.1778 -0.0214
  527PYPI   C4A 8184   6.115  11.474   7.700 -0.2245  0.3273  0.3000
  527PYPI   C1B 8185   5.076  11.082   8.557  0.0071  0.0305  0.0152
  527PYPI   C2B 8186   4.785  10.978   8.328 -0.3317  0.0046  0.0560
  527PYPI   C3B 8187   4.538  10.771   7.972  0.2765  0.1179 -0.1006
  527PYPI   C4B 8188   4.677  10.380   7.700  0.1299  0.1049  0.0619
  528PYPI    C1 8189  16.989  10.823  10.477 -0.0277 -0.0048  0.0610
  528PYPI    C2 8190  17.123  11.189  10.568  0.0200  0.0422 -0.1911
  528PYPI    C3 8191  17.168  10.890  10.829 -0.1854  0.2544  0.0948
  528PYPI   PO4 8192  17.027  10.944  10.114 -0.2591 -0.0634  0.1662
  528PYPI   GL1 8193  16.724  10.954   9.761  0.0777 -0.0474 -0.1082
  528PYPI   GL2 8194  16.977  10.636   9.650 -0.0929 -0.1833  0.3703
  528PYPI   C1A 8195  16.826  10.981   9.212  0.1559  0.0931  0.1348
  528PYPI   C2A 8196  16.756  11.007   8.698 -0.2953  0.1298  0.1463
  528PYPI   D3A 8197  16.854  10.855   8.267  0.0732  0.1397  0.0526
  528PYPI   C4A 8198  16.729  10.675   7.918  0.0698 -0.2569 -0.0432
  528PYPI   C1B 8199  17.061  10.540   9.053  0.0930  0.0493  0.0265
  528PYPI   C2B 8200  16.882  10.529   8.662 -0.2115 -0.2946 -0.0349
  528PYPI   C3B 8201  16.874  10.293   8.305  0.1747  0.1055 -0.0556
  528PYPI   C4B 8202  17.056   9.986   8.006 -0.5163  0.0956 -0.0096
  529PYPI    C1 8203   2.578  13.590  10.042 -0.0164  0.4343  0.2019
  529PYPI    C2 8204   2.887  13.347  10.118 -0.2044  0.1257  0.0034
  529PYPI    C3 8205   2.636  13.450  10.412  0.0534  0.3359  0.1543
  529PYPI   PO4 8206   2.641  13.761   9.891 -0.0920 -0.0965  0.1453
  529PYPI   GL1 8207   2.809  13.960   9.552 -0.1136  0.3093 -0.1487
  529PYPI   GL2 8208   2.504  14.194   9.473  0.1798 -0.0428 -0.0800
  529PYPI   C1A 8209   2.566  13.752   9.211  0.4452  0.1618 -0.0605
  529PYPI   C2A 8210   2.596  13.497   9.031  0.1628 -0.0473  0.3268
  529PYPI   D3A 8211   2.963  13.106   9.082 -0.1534 -0.0030  0.4847
  529PYPI   C4A 8212   2.972  12.854   8.640  0.1166 -0.0018 -0.2451
  529PYPI   C1B 8213   2.889  14.181   9.105 -0.0728  0.3223  0.0538
  529PYPI   C2B 8214   3.295  14.121   8.935 -0.0417 -0.0617  0.0627
  529PYPI   C3B 8215   3.444  14.369   8.755  0.2809  0.0796 -0.0008
  529PYPI   C4B 8216   3.665  14.498   8.356  0.0063 -0.0130 -0.3880
  530PYPI    C1 8217  13.649   0.247  10.101  0.0346  0.0616  0.0512
  530PYPI    C2 8218  13.373   0.453   9.898  0.1456  0.0757 -0.0867
  530PYPI    C3 8219  13.357   0.438  10.297 -0.4689 -0.5049 -0.1157
  530PYPI   PO4 8220  13.835   0.235   9.798  0.0166 -0.1246 -0.1122
  530PYPI   GL1 8221  14.037   0.348   9.372  0.0310 -0.4747  0.3593
  530PYPI   GL2 8222  14.144   0.674   9.213  0.1933  0.1220  0.1042
  530PYPI   C1A 8223  13.971   0.305   8.917  0.1058 -0.0286  0.2995
  530PYPI   C2A 8224  13.877   0.136   8.461  0.2098 -0.1844 -0.1826
  530PYPI   D3A 8225  14.106  -0.059   8.172  0.1312 -0.0818  0.1719
  530PYPI   C4A 8226  13.914  -0.430   7.919 -0.4404  0.2235  0.1859
  530PYPI   C1B 8227  13.998   0.863   8.911  0.2219  0.0500  0.0735
  530PYPI   C2B 8228  14.010   0.803   8.459  0.2372  0.3640 -0.1412
  530PYPI   C3B 8229  13.785   1.023   8.157  0.1122  0.2115  0.0879
  530PYPI   C4B 8230  13.605   1.363   7.890  0.3435 -0.2520  0.2576
  531PYPI    C1 8231   8.578   0.687  10.607  0.0556  0.0832 -0.0556
  531PYPI    C2 8232   8.436   0.688  10.981 -0.0368  0.2837 -0.0896
  531PYPI    C3 8233   8.469   0.343  10.780  0.1352  0.1588  0.1477
  531PYPI   PO4 8234   8.491   0.973  10.503 -0.0234  0.0289  0.1905
  531PYPI   GL1 8235   8.325   1.137  10.138  0.0188  0.0731  0.0220
  531PYPI   GL2 8236   8.571   1.363  10.040  0.1032 -0.0007 -0.2849
  531PYPI   C1A 8237   8.305   0.820   9.877 -0.0928 -0.0415  0.4445
  531PYPI   C2A 8238   8.339   0.885   9.406 -0.0192  0.1456 -0.0380
  531PYPI   D3A 8239   8.392   1.386   9.270 -0.2836 -0.1119 -0.0259
  531PYPI   C4A 8240   8.375   1.686   9.659 -0.0223  0.2444  0.2095
  531PYPI   C1B 8241   8.799   1.475   9.652  0.1967  0.1351 -0.0042
  531PYPI   C2B 8242   8.838   1.559   9.270  0.3823 -0.0583  0.2675
  531PYPI   C3B 8243   8.720   1.504   8.836  0.0476 -0.2219 -0.0441
  531PYPI   C4B 8244   8.466   1.487   8.511  0.0467  0.0657 -0.0794
  532PYPI    C1 8245   0.188   6.011   9.951 -0.0757 -0.3787 -0.1446
  532PYPI    C2 8246   0.452   6.169  10.206 -0.1019  0.1779 -0.4463
  532PYPI    C3 8247   0.175   5.912  10.338  0.0984  0.1895  0.0153
  532PYPI   PO4 8248   0.294   5.993   9.722  0.3348  0.1713  0.1887
  532PYPI   GL1 8249   0.639   6.031   9.503 -0.1305  0.0270  0.1347
  532PYPI   GL2 8250   0.600   6.372   9.415 -0.0669  0.0825 -0.0940
  532PYPI   C1A 8251   0.843   5.880   9.205 -0.0125 -0.0439 -0.1664
  532PYPI   C2A 8252   0.920   5.910   8.808  0.0561  0.1315  0.3812
  532PYPI   D3A 8253   0.906   5.663   8.494  0.2947 -0.0915  0.0206
  532PYPI   C4A 8254   0.715   5.650   8.097 -0.3260  0.1917  0.1984
  532PYPI   C1B 8255   0.666   6.287   8.999 -0.0602 -0.3092 -0.0432
  532PYPI   C2B 8256   0.674   6.328   8.523 -0.0307  0.2186  0.0749
  532PYPI   C3B 8257   0.724   6.596   8.123  0.0001  0.0889 -0.3523
  532PYPI   C4B 8258   0.791   6.842   7.839  0.1619 -0.0488  0.3070
  533PYPI    C1 8259   6.590  13.447   9.876 -0.1156  0.1364 -0.1109
  533PYPI    C2 8260   6.546  13.814  10.029 -0.0173 -0.0044  0.2669
  533PYPI    C3 8261   6.516  13.493  10.267  0.0176 -0.2374 -0.0370
  533PYPI   PO4 8262   6.600  13.393   9.626  0.0198 -0.2202 -0.0464
  533PYPI   GL1 8263   6.646  13.325   9.232 -0.0529 -0.1464  0.1116
  533PYPI   GL2 8264   6.883  13.636   9.096  0.2337  0.0863  0.0793
  533PYPI   C1A 8265   6.507  13.350   8.855 -0.0780  0.3828 -0.0245
  533PYPI   C2A 8266   6.639  13.402   8.360  0.0233 -0.4226 -0.2896
  533PYPI   D3A 8267   6.289  13.502   8.160 -0.2878  0.0265 -0.1082
  533PYPI   C4A 8268   5.939  13.621   8.396  0.0387 -0.0710 -0.2478
  533PYPI   C1B 8269   6.820  13.902   8.736 -0.1538 -0.2125  0.2195
  533PYPI   C2B 8270   7.056  13.819   8.363  0.3466 -0.1306 -0.0330
  533PYPI   C3B 8271   7.200  13.498   8.133 -0.3678  0.1238 -0.3097
  533PYPI   C4B 8272   7.230  13.324   7.648  0.1345 -0.0314 -0.0678
  534PYPI    C1 8273  10.439  10.681   9.672 -0.0235 -0.0707  0.0221
  534PYPI    C2 8274  10.136  10.792   9.908 -0.0415  0.0389 -0.0516
  534PYPI    C3 8275  10.505  10.755  10.059 -0.1185 -0.2493  0.0735
  534PYPI   PO4 8276  10.316  10.872   9.432 -0.5281  0.2661  0.1597
  534PYPI   GL1 8277  10.168  11.184   9.117 -0.1205 -0.0332  0.1507
  534PYPI   GL2 8278   9.941  11.349   9.028 -0.1721 -0.0353 -0.1106
  534PYPI   C1A 8279  10.238  10.855   8.688 -0.2409 -0.0046 -0.2112
  534PYPI   C2A 8280  10.231  10.797   8.311 -0.0833  0.4225 -0.2003
  534PYPI   D3A 8281  10.109  10.990   7.901 -0.0310  0.1011 -0.2233
  534PYPI   C4A 8282   9.807  11.102   7.580  0.5030  0.1321 -0.0214
  534PYPI   C1B 8283   9.813  11.120   8.785  0.2590 -0.2262 -0.0074
  534PYPI   C2B 8284   9.758  10.979   8.445  0.4639  0.1141  0.2570
  534PYPI   C3B 8285   9.642  11.005   8.060  0.2538 -0.0455 -0.0809
  534PYPI   C4B 8286   9.338  10.984   7.718  0.0565  0.0032 -0.1269
  535PYPI    C1 8287  14.337  18.168   9.838  0.1471 -0.1670  0.1471
  535PYPI    C2 8288  14.153  18.158  10.193  0.0265  0.0603  0.0927
  535PYPI    C3 8289  14.371  18.477  10.090  0.1228 -0.0372 -0.0078
  535PYPI   PO4 8290  14.218  18.145   9.613  0.0075  0.0445 -0.1868
  535PYPI   GL1 8291  14.086  18.458   9.284 -0.1454  0.1317  0.0567
  535PYPI   GL2 8292  13.861  18.351   9.286  0.0112  0.0574 -0.2698
  535PYPI   C1A 8293  14.285  18.160   8.809 -0.1410  0.0956 -0.3241
  535PYPI   C2A 8294  14.133  18.006   8.487  0.0264  0.0731 -0.1962
  535PYPI   D3A 8295  13.825  18.195   8.392  0.0200 -0.2368 -0.2757
  535PYPI   C4A 8296  13.749  18.148   7.934  0.1067  0.0735  0.2914
  535PYPI   C1B 8297  13.723  18.344   8.920 -0.0878  0.0962  0.3403
  535PYPI   C2B 8298  13.279  18.463   8.682 -0.2248  0.2842  0.0392
  535PYPI   C3B 8299  12.891  18.363   8.860 -0.2123 -0.0962 -0.3431
  535PYPI   C4B 8300  12.807  17.885   8.917 -0.1245  0.1177 -0.0955
  536PYPI    C1 8301  11.464   6.053   9.990  0.0265  0.2330  0.3501
  536PYPI    C2 8302  11.217   5.927  10.279 -0.0229 -0.0586  0.1845
  536PYPI    C3 8303  11.612   5.872  10.315 -0.0285 -0.0894  0.1991
  536PYPI   PO4 8304  11.401   5.868   9.660  0.1842  0.1836  0.0533
  536PYPI   GL1 8305  11.167   5.925   9.287 -0.1387 -0.3221 -0.1991
  536PYPI   GL2 8306  10.876   5.923   9.258 -0.0617  0.1642 -0.0156
  536PYPI   C1A 8307  11.239   5.593   8.992 -0.0288  0.1166  0.3210
  536PYPI   C2A 8308  11.195   5.560   8.589 -0.2508 -0.0349  0.1501
  536PYPI   D3A 8309  11.031   5.665   8.151  0.2659 -0.0466  0.4854
  536PYPI   C4A 8310  11.212   5.910   7.852  0.0439 -0.0738  0.0979
  536PYPI   C1B 8311  10.806   5.643   8.877  0.4204  0.0706 -0.1140
  536PYPI   C2B 8312  10.637   5.668   8.458 -0.2250  0.0730  0.1074
  536PYPI   C3B 8313  10.605   5.796   8.028  0.2225  0.0276 -0.0076
  536PYPI   C4B 8314  10.800   5.693   7.567  0.1656 -0.0484 -0.0981
  537PYPI    C1 8315   5.356  14.148   9.864  0.2042  0.0703 -0.0072
  537PYPI    C2 8316   5.755  14.159   9.845  0.2130  0.0965  0.1752
  537PYPI    C3 8317   5.571  14.165  10.200  0.0515  0.0315  0.0939
  537PYPI   PO4 8318   5.239  14.380   9.702  0.0106 -0.0423 -0.1206
  537PYPI   GL1 8319   5.083  14.239   9.272  0.1678  0.0430  0.0464
  537PYPI   GL2 8320   4.978  13.921   9.397 -0.1715 -0.0667 -0.0352
  537PYPI   C1A 8321   5.216  14.300   8.809  0.2345  0.0268  0.1280
  537PYPI   C2A 8322   5.183  14.371   8.482 -0.2231 -0.1692 -0.4178
  537PYPI   D3A 8323   5.349  14.561   8.090  0.0861  0.1965  0.1205
  537PYPI   C4A 8324   5.377  14.962   7.898  0.4262 -0.0279 -0.1141
  537PYPI   C1B 8325   5.070  13.805   8.942 -0.0166  0.2244 -0.0717
  537PYPI   C2B 8326   5.131  13.771   8.594 -0.1598  0.0277  0.0849
  537PYPI   C3B 8327   5.177  13.932   8.128  0.2584  0.0498  0.0402
  537PYPI   C4B 8328   4.951  14.272   7.813  0.2050  0.5021 -0.1902
  538PYPI    C1 8329   2.534   8.839  10.093 -0.2183 -0.0117  0.3660
  538PYPI    C2 8330   2.812   8.575  10.205  0.0867  0.1462  0.0067
  538PYPI    C3 8331   2.457   8.584  10.391  0.2073 -0.2601  0.2706
  538PYPI   PO4 8332   2.497   8.813   9.857  0.3311  0.0714  0.0696
  538PYPI   GL1 8333   2.643   8.941   9.436  0.3507 -0.0244  0.0634
  538PYPI   GL2 8334   2.827   9.296   9.367  0.3420 -0.0874  0.0082
  538PYPI   C1A 8335   2.595   8.792   9.010  0.4116 -0.0778  0.1244
  538PYPI   C2A 8336   2.404   8.789   8.576  0.2625  0.4166  0.0174
  538PYPI   D3A 8337   2.387   8.697   8.209  0.1139 -0.2159 -0.0795
  538PYPI   C4A 8338   2.639   8.714   7.792 -0.0198  0.2378 -0.2320
  538PYPI   C1B 8339   2.862   9.201   8.995  0.4748 -0.1271 -0.0598
  538PYPI   C2B 8340   2.738   9.143   8.616  0.1093 -0.0586  0.2506
  538PYPI   C3B 8341   2.641   9.124   8.125  0.0064 -0.1876  0.1811
  538PYPI   C4B 8342   2.833   9.237   7.737 -0.0516 -0.0350 -0.1509
  539PYPI    C1 8343  17.209  14.477   9.788  0.0637 -0.1305  0.1789
  539PYPI    C2 8344  17.236  14.651  10.147 -0.0947  0.1980  0.0355
  539PYPI    C3 8345  17.515  14.720   9.869 -0.1172  0.1624  0.0039
  539PYPI   PO4 8346  16.974  14.530   9.616 -0.1298 -0.1992 -0.1416
  539PYPI   GL1 8347  16.856  14.519   9.227 -0.0230  0.0547  0.0297
  539PYPI   GL2 8348  16.910  14.268   8.990 -0.0974  0.0184 -0.0311
  539PYPI   C1A 8349  17.134  14.666   8.928 -0.1889 -0.0053  0.1313
  539PYPI   C2A 8350  17.221  14.679   8.506  0.0003  0.1010  0.0716
  539PYPI   D3A 8351  17.202  14.670   8.060  0.2935 -0.4619  0.0012
  539PYPI   C4A 8352  17.239  15.010   7.798  0.3184  0.0599  0.0084
  539PYPI   C1B 8353  16.950  14.219   8.638  0.1855 -0.1340  0.1309
  539PYPI   C2B 8354  17.140  14.192   8.296  0.3399 -0.2401  0.0218
  539PYPI   C3B 8355  17.228  14.183   7.870 -0.0447  0.3173  0.0459
  539PYPI   C4B 8356  16.944  14.459   7.618  0.0148 -0.1974 -0.3169
  540ERGO   ROH 8357   3.724   6.433   9.633 -0.0115  0.0829 -0.0025
  540ERGO    R1 8358   3.779   6.289   9.396 -0.0261  0.0061  0.0401
  540ERGO    R2 8359   3.654   6.050   9.334 -0.2300  0.1191 -0.0017
  540ERGO    R3 8360   3.591   6.179   9.104  0.0178  0.1630 -0.0477
  540ERGO    R4 8361   3.585   5.894   9.033 -0.1389  0.1682 -0.0480
  540ERGO    R5 8362   3.698   6.051   8.932  0.0416  0.0859  0.0260
  540ERGO    C1 8363   3.486   5.925   8.642  0.1467  0.2380 -0.1183
  540ERGO    C2 8364   3.550   5.647   8.423  0.4102  0.0426 -0.3145
  541ERGO   ROH 8365   0.757  12.193   9.599  0.0462 -0.2658  0.0282
  541ERGO    R1 8366   0.853  12.228   9.335  0.0118 -0.1313  0.0315
  541ERGO    R2 8367   0.967  12.022   9.189  0.0739 -0.0410 -0.0608
  541ERGO    R3 8368   0.778  12.090   9.006  0.0287 -0.0349 -0.0107
  541ERGO    R4 8369   0.978  11.940   8.854 -0.0248 -0.0202 -0.0691
  541ERGO    R5 8370   0.902  12.139   8.808 -0.0338 -0.0266 -0.0405
  541ERGO    C1 8371   0.807  11.956   8.487 -0.1248 -0.0023 -0.0267
  541ERGO    C2 8372   0.841  11.951   8.263 -0.0298  0.1270 -0.1599
  542ERGO   ROH 8373   8.472  12.685   9.123 -0.2089  0.0622 -0.0595
  542ERGO    R1 8374   8.391  12.664   8.853 -0.0462  0.0878 -0.1116
  542ERGO    R2 8375   8.354  12.885   8.691  0.0423  0.1052 -0.1123
  542ERGO    R3 8376   8.528  12.755   8.528  0.1471  0.1280 -0.0196
  542ERGO    R4 8377   8.407  12.961   8.358 -0.0591 -0.1277 -0.1835
  542ERGO    R5 8378   8.416  12.747   8.316  0.1346 -0.1547 -0.0046
  542ERGO    C1 8379   8.601  12.883   8.011 -0.0199 -0.2419 -0.1379
  542ERGO    C2 8380   8.546  13.056   7.781  0.1810 -0.0613 -0.0370
  543ERGO   ROH 8381   9.043  15.785   9.338 -0.0261  0.2367  0.0493
  543ERGO    R1 8382   9.068  15.989   9.144  0.0875  0.1837  0.0084
  543ERGO    R2 8383   9.230  15.964   8.921 -0.0290 -0.0066 -0.0528
  543ERGO    R3 8384   9.001  16.024   8.787 -0.0277  0.1935  0.0292
  543ERGO    R4 8385   9.217  16.102   8.605 -0.0098 -0.2426 -0.1590
  543ERGO    R5 8386   9.052  16.227   8.671  0.1899  0.0395 -0.1625
  543ERGO    C1 8387   8.995  16.238   8.294  0.0026 -0.1924 -0.1440
  543ERGO    C2 8388   9.081  16.215   7.930  0.1395 -0.1821  0.0027
  544ERGO   ROH 8389  14.880   0.221   8.673 -0.0156 -0.0706  0.0700
  544ERGO    R1 8390  14.875   0.073   8.431  0.0020 -0.1056  0.0908
  544ERGO    R2 8391  14.733  -0.163   8.403 -0.0677 -0.0653  0.0878
  544ERGO    R3 8392  14.624  -0.034   8.191  0.0318 -0.0591  0.0398
  544ERGO    R4 8393  14.605  -0.318   8.123 -0.1578 -0.0644  0.1282
  544ERGO    R5 8394  14.695  -0.161   8.001 -0.0451 -0.1653  0.0840
  544ERGO    C1 8395  14.427  -0.288   7.760 -0.1169 -0.0580  0.1066
  544ERGO    C2 8396  14.308  -0.363   7.488 -0.3211 -0.0456 -0.4681
  545ERGO   ROH 8397   2.644   4.254   9.284 -0.0135 -0.1048 -0.0476
  545ERGO    R1 8398   2.562   4.290   9.016 -0.1230 -0.1306 -0.0198
  545ERGO    R2 8399   2.668   4.487   8.853 -0.4031  0.0568  0.0035
  545ERGO    R3 8400   2.719   4.278   8.688 -0.1762  0.1581 -0.0560
  545ERGO    R4 8401   2.587   4.476   8.517 -0.3792  0.0506 -0.0009
  545ERGO    R5 8402   2.528   4.268   8.543 -0.1548 -0.0128 -0.0628
  545ERGO    C1 8403   2.588   4.273   8.166 -0.1522  0.1421 -0.0593
  545ERGO    C2 8404   2.591   4.112   7.829 -0.0208 -0.2366  0.2677
  546ERGO   ROH 8405  12.922  13.320   9.108  0.0068  0.0355 -0.0330
  546ERGO    R1 8406  12.951  13.426   8.847  0.2158 -0.0540 -0.0479
  546ERGO    R2 8407  13.192  13.426   8.712  0.2361 -0.4897 -0.0229
  546ERGO    R3 8408  13.047  13.299   8.520  0.0358 -0.2772 -0.0172
  546ERGO    R4 8409  13.242  13.459   8.371  0.1104 -0.3828 -0.0323
  546ERGO    R5 8410  13.026  13.461   8.344  0.0975 -0.1794  0.0642
  546ERGO    C1 8411  13.134  13.360   7.993 -0.1508 -0.1210 -0.0324
  546ERGO    C2 8412  13.123  13.272   7.604 -0.1149 -0.0875 -0.1217
  547ERGO   ROH 8413  16.012  14.667   8.903  0.0158 -0.2306  0.0333
  547ERGO    R1 8414  16.041  14.607   8.628  0.1057 -0.1887  0.0340
  547ERGO    R2 8415  16.028  14.801   8.431  0.1029 -0.1706  0.0576
  547ERGO    R3 8416  16.269  14.699   8.360  0.1504 -0.0928  0.1028
  547ERGO    R4 8417  16.196  14.876   8.139  0.1245 -0.1171  0.0829
  547ERGO    R5 8418  16.253  14.667   8.123  0.1978 -0.1031  0.0976
  547ERGO    C1 8419  16.521  14.825   7.902  0.1816 -0.0130  0.1400
  547ERGO    C2 8420  16.646  14.895   7.660 -0.3124  0.4111 -0.0164
  548ERGO   ROH 8421   9.241   2.890   9.621  0.0114  0.0464 -0.0491
  548ERGO    R1 8422   9.217   2.935   9.342 -0.1782 -0.0968 -0.0591
  548ERGO    R2 8423   9.437   2.971   9.178 -0.2957  0.3043 -0.1480
  548ERGO    R3 8424   9.324   2.767   9.038  0.0713  0.0108 -0.0313
  548ERGO    R4 8425   9.496   2.903   8.844 -0.3361  0.3433 -0.1624
  548ERGO    R5 8426   9.285   2.858   8.820 -0.2565 -0.1327 -0.0334
  548ERGO    C1 8427   9.425   2.672   8.518 -0.0150  0.0905 -0.0611
  548ERGO    C2 8428   9.418   2.462   8.248  0.1325 -0.1329 -0.2011
  549ERGO   ROH 8429   1.318  16.710   8.800  0.2249 -0.2354  0.0892
  549ERGO    R1 8430   1.306  16.606   8.537  0.1450 -0.1722  0.0673
  549ERGO    R2 8431   1.195  16.747   8.327  0.1390 -0.0949  0.1218
  549ERGO    R3 8432   1.436  16.700   8.210  0.1035 -0.1311  0.0624
  549ERGO    R4 8433   1.240  16.651   7.998  0.0511  0.0717  0.0601
  549ERGO    R5 8434   1.396  16.514   8.064  0.0038 -0.0329 -0.0381
  549ERGO    C1 8435   1.493  16.551   7.697 -0.0335  0.1351 -0.0317
  549ERGO    C2 8436   1.335  16.785   7.482  0.1146 -0.4460  0.3805
  550ERGO   ROH 8437   6.810  17.423   9.444  0.0451  0.0574  0.0503
  550ERGO    R1 8438   6.832  17.625   9.246  0.1024 -0.0268 -0.0303
  550ERGO    R2 8439   6.971  17.587   9.010 -0.0243 -0.2078 -0.0796
  550ERGO    R3 8440   6.736  17.666   8.898 -0.0201 -0.0832 -0.0028
  550ERGO    R4 8441   6.913  17.616   8.670 -0.1866 -0.3732 -0.0677
  550ERGO    R5 8442   6.801  17.798   8.710 -0.0130 -0.2558 -0.1213
  550ERGO    C1 8443   6.659  17.706   8.368 -0.2771 -0.3527  0.0113
  550ERGO    C2 8444   6.740  17.507   8.138  0.1216  0.1604 -0.1218
  551ERGO   ROH 8445  15.517  18.546   8.743 -0.1775  0.1464  0.1972
  551ERGO    R1 8446  15.603  18.704   8.525 -0.2371  0.0055  0.0693
  551ERGO    R2 8447  15.846  18.666   8.400 -0.1263  0.1330  0.2386
  551ERGO    R3 8448  15.693  18.648   8.176  0.0047 -0.2790  0.1743
  551ERGO    R4 8449  15.965  18.700   8.077 -0.0409  0.1599  0.2725
  551ERGO    R5 8450  15.784  18.813   8.029 -0.2301 -0.1952  0.1218
  551ERGO    C1 8451  15.890  18.702   7.679  0.1318 -0.2111  0.2318
  551ERGO    C2 8452  15.955  18.493   7.324 -0.0113 -0.1696  0.2053
  552ERGO   ROH 8453   2.336   9.306   9.605  0.0354  0.1341 -0.0971
  552ERGO    R1 8454   2.256   9.243   9.341 -0.0373  0.2236 -0.0958
  552ERGO    R2 8455   2.168   9.435   9.163  0.3001  0.3426 -0.1324
  552ERGO    R3 8456   2.363   9.331   9.004  0.1496 -0.0050 -0.1006
  552ERGO    R4 8457   2.132   9.365   8.826  0.2028  0.3585 -0.1263
  552ERGO    R5 8458   2.246   9.182   8.857 -0.0965  0.1621 -0.0893
  552ERGO    C1 8459   2.294   9.228   8.481  0.0049  0.0415 -0.0928
  552ERGO    C2 8460   2.323   9.449   8.301 -0.0190  0.0324 -0.0534
  553ERGO   ROH 8461   9.994  12.558   9.143  0.2070  0.3041  0.0678
  553ERGO    R1 8462   9.883  12.550   8.883  0.1096  0.3147  0.1072
  553ERGO    R2 8463   9.996  12.683   8.669  0.2242  0.0523 -0.0071
  553ERGO    R3 8464   9.988  12.437   8.553 -0.1450 -0.0066  0.1330
  553ERGO    R4 8465  10.028  12.623   8.330 -0.0538 -0.1882  0.0069
  553ERGO    R5 8466   9.871  12.472   8.347 -0.2257  0.0123  0.1869
  553ERGO    C1 8467  10.038  12.357   8.024 -0.5624 -0.3836  0.1467
  553ERGO    C2 8468   9.925  12.387   7.638  0.3187  0.0299 -0.2792
  554ERGO   ROH 8469  19.035  12.539   9.277  0.0229  0.0032 -0.0153
  554ERGO    R1 8470  18.914  12.450   9.036 -0.0849  0.2150 -0.0411
  554ERGO    R2 8471  18.882  12.614   8.817  0.2740  0.2697 -0.0553
  554ERGO    R3 8472  19.013  12.414   8.688 -0.0627  0.0148 -0.0156
  554ERGO    R4 8473  18.901  12.580   8.473  0.4170  0.3149 -0.0528
  554ERGO    R5 8474  18.874  12.365   8.499 -0.0561  0.3530 -0.1162
  554ERGO    C1 8475  19.035  12.372   8.153  0.1845  0.1020 -0.0141
  554ERGO    C2 8476  19.050  12.333   7.859  0.2839 -0.1970  0.0365
  555ERGO   ROH 8477  15.007   8.919   9.082 -0.1138  0.1312 -0.1110
  555ERGO    R1 8478  14.977   8.805   8.825 -0.1992  0.1027 -0.0883
  555ERGO    R2 8479  14.836   8.930   8.623 -0.0122  0.2225 -0.1457
  555ERGO    R3 8480  15.067   8.895   8.484 -0.0241 -0.0879 -0.0946
  555ERGO    R4 8481  14.865   8.957   8.280  0.1530  0.4846 -0.1134
  555ERGO    R5 8482  14.998   8.784   8.282 -0.1708  0.2219 -0.2218
  555ERGO    C1 8483  15.099   8.941   7.949  0.2381  0.3458 -0.0467
  555ERGO    C2 8484  15.091   8.953   7.624 -0.0597  0.2557 -0.2010
  556ERGO   ROH 8485   1.906  12.741   9.671  0.2051  0.0677  0.0360
  556ERGO    R1 8486   1.831  12.724   9.399  0.1453  0.0978  0.0503
  556ERGO    R2 8487   1.736  12.941   9.257  0.0867  0.1082  0.1021
  556ERGO    R3 8488   1.936  12.876   9.085  0.0567  0.1561  0.0486
  556ERGO    R4 8489   1.760  13.051   8.930 -0.0796  0.0306  0.0632
  556ERGO    R5 8490   1.827  12.852   8.873 -0.0067  0.0477  0.0937
  556ERGO    C1 8491   1.962  13.053   8.579 -0.2048  0.0304 -0.0098
  556ERGO    C2 8492   2.196  13.070   8.368 -0.0018  0.0883  0.1629
  557ERGO   ROH 8493  15.179  16.648   9.143  0.1204 -0.0905 -0.0841
  557ERGO    R1 8494  15.168  16.479   8.916 -0.0072 -0.0648 -0.0975
  557ERGO    R2 8495  14.958  16.306   8.870 -0.1052  0.0509 -0.0770
  557ERGO    R3 8496  14.948  16.434   8.630 -0.0797  0.0757 -0.0653
  557ERGO    R4 8497  14.790  16.189   8.592 -0.1375  0.1121 -0.0838
  557ERGO    R5 8498  14.957  16.257   8.469 -0.1221  0.0858 -0.0812
  557ERGO    C1 8499  14.682  16.241   8.204 -0.1322  0.1711 -0.0767
  557ERGO    C2 8500  14.487  16.277   7.802  0.1879  0.1008 -0.2939
  558ERGO   ROH 8501  15.113   4.824   8.949 -0.0049  0.0291  0.1799
  558ERGO    R1 8502  15.131   5.040   8.767  0.0342  0.0205  0.1741
  558ERGO    R2 8503  15.349   5.076   8.601 -0.0373 -0.1222  0.0504
  558ERGO    R3 8504  15.159   5.080   8.407 -0.1469  0.0098  0.1576
  558ERGO    R4 8505  15.410   5.131   8.265 -0.1885 -0.1353  0.0197
  558ERGO    R5 8506  15.230   5.253   8.257 -0.1211 -0.0208  0.1313
  558ERGO    C1 8507  15.268   5.167   7.887 -0.3794 -0.0190  0.1024
  558ERGO    C2 8508  15.121   5.239   7.558 -0.0189 -0.0427 -0.0402
  559ERGO   ROH 8509   0.887   0.213   8.833 -0.1707  0.3932  0.2233
  559ERGO    R1 8510   0.707   0.293   8.630 -0.0982  0.0913  0.0340
  559ERGO    R2 8511   0.748   0.519   8.475 -0.2704  0.1148  0.0223
  559ERGO    R3 8512   0.721   0.343   8.270  0.1693  0.0225  0.0321
  559ERGO    R4 8513   0.742   0.606   8.141 -0.3603  0.0688  0.0114
  559ERGO    R5 8514   0.584   0.459   8.110 -0.0418 -0.2852 -0.0209
  559ERGO    C1 8515   0.713   0.492   7.753  0.0002 -0.0447  0.0143
  559ERGO    C2 8516   0.782   0.503   7.442  0.2172  0.2984  0.3390
  560ERGO   ROH 8517  10.635  16.857   9.205  0.0776 -0.0129  0.0600
  560ERGO    R1 8518  10.820  16.887   8.992  0.1337 -0.0113  0.1078
  560ERGO    R2 8519  10.871  16.685   8.811  0.1347  0.0096  0.0791
  560ERGO    R3 8520  10.808  16.876   8.629  0.2138  0.0583  0.1041
  560ERGO    R4 8521  10.982  16.689   8.484 -0.0546 -0.1170  0.0117
  560ERGO    R5 8522  11.010  16.905   8.502  0.1655 -0.1440 -0.0175
  560ERGO    C1 8523  10.989  16.872   8.122 -0.0906 -0.1452 -0.0041
  560ERGO    C2 8524  10.940  16.794   7.837  0.0036  0.3160  0.0848
  561ERGO   ROH 8525  15.459  13.766   9.292 -0.0088 -0.0809  0.0292
  561ERGO    R1 8526  15.518  13.820   9.020 -0.0939  0.0547  0.0367
  561ERGO    R2 8527  15.605  13.625   8.845  0.0701  0.1850 -0.0322
  561ERGO    R3 8528  15.394  13.711   8.696 -0.0331  0.0304  0.0219
  561ERGO    R4 8529  15.581  13.596   8.502  0.0860  0.3371 -0.0469
  561ERGO    R5 8530  15.494  13.796   8.495 -0.1356  0.2457  0.0602
  561ERGO    C1 8531  15.370  13.660   8.161 -0.0016  0.2806 -0.0046
  561ERGO    C2 8532  15.148  13.460   7.929  0.2480  0.1004  0.0815
  562ERGO   ROH 8533   7.022   7.858   9.251 -0.1215  0.1295  0.1186
  562ERGO    R1 8534   7.223   7.699   9.131 -0.1417  0.1143  0.1046
  562ERGO    R2 8535   7.207   7.611   8.870 -0.1547  0.1357  0.0982
  562ERGO    R3 8536   7.450   7.730   8.848 -0.1408  0.1079  0.1044
  562ERGO    R4 8537   7.425   7.567   8.606 -0.0169 -0.1447  0.2553
  562ERGO    R5 8538   7.589   7.562   8.749 -0.0918 -0.0014  0.3496
  562ERGO    C1 8539   7.781   7.652   8.432  0.0764 -0.3341  0.3527
  562ERGO    C2 8540   7.840   7.707   8.096  0.1249  0.1870 -0.2277
  563ERGO   ROH 8541   0.455  15.485   8.921 -0.0913 -0.0445 -0.1058
  563ERGO    R1 8542   0.557  15.490   8.658 -0.0568 -0.0842 -0.0931
  563ERGO    R2 8543   0.396  15.524   8.436 -0.0391 -0.2120 -0.1250
  563ERGO    R3 8544   0.567  15.728   8.382 -0.1093 -0.1623 -0.1637
  563ERGO    R4 8545   0.487  15.626   8.119  0.1197 -0.4089 -0.1451
  563ERGO    R5 8546   0.691  15.652   8.192  0.0598 -0.2469 -0.0245
  563ERGO    C1 8547   0.701  15.877   7.884  0.1462 -0.4768 -0.1930
  563ERGO    C2 8548   0.748  15.941   7.570 -0.1056 -0.2598  0.3474
  564ERGO   ROH 8549  10.292  13.514   9.062 -0.0891 -0.2241  0.1127
  564ERGO    R1 8550  10.163  13.485   8.812 -0.0337 -0.3171  0.0946
  564ERGO    R2 8551  10.147  13.692   8.629 -0.1787 -0.3206  0.1031
  564ERGO    R3 8552  10.259  13.509   8.461 -0.0067 -0.2214  0.1080
  564ERGO    R4 8553  10.100  13.681   8.286 -0.2090 -0.4004  0.1095
  564ERGO    R5 8554  10.089  13.464   8.299  0.0181 -0.4135  0.1318
  564ERGO    C1 8555  10.178  13.504   7.930 -0.0654 -0.3538  0.1178
  564ERGO    C2 8556   9.966  13.347   7.729  0.2503 -0.3577  0.0971
  565ERGO   ROH 8557  11.962   3.200   9.595  0.1708  0.0610  0.2074
  565ERGO    R1 8558  11.912   3.314   9.340  0.1540  0.0285  0.1976
  565ERGO    R2 8559  12.089   3.488   9.218  0.0584  0.1551  0.2492
  565ERGO    R3 8560  12.072   3.309   9.013  0.2396  0.1487  0.2357
  565ERGO    R4 8561  12.169   3.556   8.889  0.2651  0.1783  0.3013
  565ERGO    R5 8562  11.996   3.439   8.827  0.3308  0.1335  0.1833
  565ERGO    C1 8563  12.199   3.428   8.505  0.5555  0.1858  0.3189
  565ERGO    C2 8564  12.111   3.365   8.174 -0.2381 -0.4346  0.1211
  566ERGO   ROH 8565  14.866   9.900   9.145 -0.0706  0.0433 -0.1261
  566ERGO    R1 8566  14.872   9.835   8.870  0.1418  0.1128 -0.1404
  566ERGO    R2 8567  14.669   9.907   8.696  0.0443 -0.2455 -0.1846
  566ERGO    R3 8568  14.874  10.018   8.555 -0.1233  0.1943 -0.0968
  566ERGO    R4 8569  14.681   9.933   8.352  0.1437 -0.2338 -0.1803
  566ERGO    R5 8570  14.893   9.881   8.360  0.2604  0.2212 -0.0849
  566ERGO    C1 8571  14.880  10.052   8.019  0.0442  0.1859 -0.0954
  566ERGO    C2 8572  14.990  10.234   7.783  0.0463 -0.0793  0.1069
  567ERGO   ROH 8573   1.232  17.294   8.870 -0.2450  0.2201  0.0616
  567ERGO    R1 8574   1.115  17.218   8.623 -0.0009  0.1430 -0.0349
  567ERGO    R2 8575   0.852  17.275   8.559 -0.0810 -0.2683 -0.1300
  567ERGO    R3 8576   0.964  17.387   8.339 -0.1541  0.0395 -0.0143
  567ERGO    R4 8577   0.706  17.286   8.246 -0.0291 -0.1329 -0.1492
  567ERGO    R5 8578   0.901  17.243   8.159  0.0249  0.1390 -0.1548
  567ERGO    C1 8579   0.727  17.397   7.857 -0.0674  0.2347 -0.0519
  567ERGO    C2 8580   0.356  17.378   7.713 -0.0889 -0.2759  0.2217
  568ERGO   ROH 8581   7.787   0.802   9.827 -0.1085 -0.0412  0.1345
  568ERGO    R1 8582   7.801   0.673   9.576  0.0533  0.0265  0.1082
  568ERGO    R2 8583   7.916   0.424   9.543 -0.0202 -0.0093  0.1350
  568ERGO    R3 8584   7.676   0.364   9.430  0.0506  0.1190 -0.0899
  568ERGO    R4 8585   7.861   0.164   9.322  0.0284 -0.0500  0.1701
  568ERGO    R5 8586   7.731   0.295   9.207  0.2346  0.0029 -0.0127
  568ERGO    C1 8587   7.603  -0.044   9.087  0.1232  0.0468 -0.0207
  568ERGO    C2 8588   7.624  -0.271   8.980 -0.1666 -0.2726 -0.1949
  569ERGO   ROH 8589   1.552   2.010   9.350 -0.2841 -0.2390 -0.0634
  569ERGO    R1 8590   1.613   1.983   9.075 -0.1176 -0.1559 -0.0363
  569ERGO    R2 8591   1.800   2.141   8.947 -0.1023 -0.0583  0.1046
  569ERGO    R3 8592   1.906   1.901   8.875  0.0267 -0.0037  0.1105
  569ERGO    R4 8593   2.085   2.101   8.755 -0.1958  0.0917 -0.0690
  569ERGO    R5 8594   1.986   1.936   8.652 -0.1441 -0.0133  0.0464
  569ERGO    C1 8595   2.350   1.853   8.576 -0.1292  0.2303 -0.1646
  569ERGO    C2 8596   2.597   1.837   8.386 -0.1194 -0.1147 -0.1247
  570ERGO   ROH 8597  18.562  16.731   9.053  0.0584  0.1948 -0.0246
  570ERGO    R1 8598  18.573  16.591   8.808  0.0877  0.2246 -0.0401
  570ERGO    R2 8599  18.444  16.349   8.768  0.2312  0.1471 -0.0304
  570ERGO    R3 8600  18.334  16.479   8.556  0.0966  0.0969  0.0069
  570ERGO    R4 8601  18.288  16.195   8.501  0.0973  0.0791  0.0853
  570ERGO    R5 8602  18.384  16.339   8.369  0.0076  0.0673  0.0040
  570ERGO    C1 8603  18.095  16.227   8.146 -0.1069 -0.0074  0.1875
  570ERGO    C2 8604  17.918  16.103   7.855  0.4360  0.1449  0.0232
  571ERGO   ROH 8605  18.871   2.831   9.580  0.2841  0.1859 -0.0417
  571ERGO    R1 8606  19.025   2.713   9.375  0.2193  0.1316 -0.0590
  571ERGO    R2 8607  18.912   2.568   9.169  0.1503  0.1427 -0.0230
  571ERGO    R3 8608  19.050   2.742   9.013  0.1650  0.0914 -0.0680
  571ERGO    R4 8609  18.927   2.555   8.824  0.1836  0.0057 -0.0168
  571ERGO    R5 8610  19.138   2.607   8.836  0.1885  0.0181 -0.0086
  571ERGO    C1 8611  19.064   2.711   8.476  0.2169 -0.1222 -0.0555
  571ERGO    C2 8612  18.864   2.781   8.261 -0.2127 -0.1539  0.0197
  572ERGO   ROH 8613   8.491  13.169   9.021  0.0726  0.2477  0.0790
  572ERGO    R1 8614   8.420  13.384   8.852  0.0720  0.2944  0.1362
  572ERGO    R2 8615   8.584  13.603   8.813  0.2378  0.1436 -0.0838
  572ERGO    R3 8616   8.553  13.539   8.550 -0.1329  0.1280 -0.0409
  572ERGO    R4 8617   8.592  13.829   8.551  0.3468  0.0621 -0.1506
  572ERGO    R5 8618   8.427  13.721   8.459  0.0737  0.3103  0.0412
  572ERGO    C1 8619   8.568  13.901   8.153  0.0623  0.0002 -0.1492
  572ERGO    C2 8620   8.500  14.137   7.770  0.0116  0.1152  0.1033
  573ERGO   ROH 8621  17.596   1.131   9.015  0.1827  0.1551  0.0832
  573ERGO    R1 8622  17.554   1.216   8.748  0.0721 -0.1589 -0.0044
  573ERGO    R2 8623  17.677   1.441   8.643 -0.3984  0.0428 -0.1428
  573ERGO    R3 8624  17.758   1.266   8.451  0.0662  0.0591  0.0255
  573ERGO    R4 8625  17.814   1.532   8.339 -0.6641  0.1270 -0.2412
  573ERGO    R5 8626  17.698   1.373   8.245 -0.2489 -0.2974 -0.0807
  573ERGO    C1 8627  17.970   1.421   7.982 -0.3829  0.1913 -0.1404
  573ERGO    C2 8628  18.130   1.434   7.772  0.2291  0.0576  0.0820
  574ERGO   ROH 8629   7.493  15.148   9.479  0.2634 -0.0237  0.0749
  574ERGO    R1 8630   7.471  15.332   9.265  0.1030  0.0515  0.1542
  574ERGO    R2 8631   7.647  15.333   9.051  0.0723  0.2649  0.1289
  574ERGO    R3 8632   7.419  15.314   8.905  0.0647  0.1649  0.1536
  574ERGO    R4 8633   7.613  15.437   8.724  0.0374  0.1046  0.0813
  574ERGO    R5 8634   7.415  15.513   8.773  0.0301  0.1027  0.0586
  574ERGO    C1 8635   7.378  15.479   8.395  0.0099 -0.0825  0.0766
  574ERGO    C2 8636   7.346  15.427   8.021 -0.2841  0.0333  0.1552
  575ERGO   ROH 8637  12.215  14.621   9.215  0.0596  0.3677  0.0066
  575ERGO    R1 8638  12.231  14.567   8.938 -0.1019  0.2786  0.0135
  575ERGO    R2 8639  12.103  14.721   8.747  0.0313  0.3999  0.0201
  575ERGO    R3 8640  12.352  14.739   8.641  0.0237  0.0546 -0.0679
  575ERGO    R4 8641  12.171  14.741   8.409 -0.0670  0.4013  0.0000
  575ERGO    R5 8642  12.341  14.607   8.441 -0.2538  0.1309 -0.1065
  575ERGO    C1 8643  12.445  14.769   8.112 -0.1313  0.0781 -0.0943
  575ERGO    C2 8644  12.564  14.949   7.815  0.2403  0.0311 -0.0369
  576ERGO   ROH 8645   9.665  11.747   9.186  0.0820 -0.0350 -0.0138
  576ERGO    R1 8646   9.606  11.767   8.910  0.1272  0.0858 -0.0162
  576ERGO    R2 8647   9.677  11.573   8.728  0.1393  0.1522 -0.0908
  576ERGO    R3 8648   9.412  11.580   8.665  0.1496  0.2028 -0.1232
  576ERGO    R4 8649   9.549  11.531   8.409  0.1552  0.0009 -0.0769
  576ERGO    R5 8650   9.405  11.690   8.452  0.2061  0.0731 -0.1899
  576ERGO    C1 8651   9.227  11.513   8.165  0.1741 -0.0398 -0.0992
  576ERGO    C2 8652   9.054  11.504   7.857  0.3128 -0.2922  0.1154
  577ERGO   ROH 8653   5.749  16.445   9.633 -0.3289  0.1944 -0.0349
  577ERGO    R1 8654   5.869  16.354   9.393 -0.1606  0.1370  0.0702
  577ERGO    R2 8655   5.852  16.092   9.308 -0.2243  0.1500  0.0501
  577ERGO    R3 8656   5.757  16.205   9.080  0.0415  0.2055 -0.0379
  577ERGO    R4 8657   5.905  15.970   8.989 -0.2338 -0.0429  0.1207
  577ERGO    R5 8658   5.932  16.175   8.920  0.0847 -0.0972  0.0574
  577ERGO    C1 8659   5.846  16.006   8.590  0.0102 -0.1032  0.0791
  577ERGO    C2 8660   5.821  15.860   8.354 -0.1441  0.2175 -0.0613
  578ERGO   ROH 8661   2.648   3.825   9.458 -0.1740 -0.1828  0.1762
  578ERGO    R1 8662   2.683   3.726   9.196  0.1451  0.0316  0.1341
  578ERGO    R2 8663   2.472   3.691   9.021  0.3054 -0.2343  0.0090
  578ERGO    R3 8664   2.623   3.846   8.857  0.1230  0.1249  0.1665
  578ERGO    R4 8665   2.440   3.702   8.677  0.5840 -0.3034 -0.0228
  578ERGO    R5 8666   2.658   3.710   8.663  0.6090  0.1883  0.1839
  578ERGO    C1 8667   2.564   3.855   8.323  0.5751 -0.0064  0.1065
  578ERGO    C2 8668   2.264   3.793   8.130 -0.3264 -0.0091  0.1150
  579ERGO   ROH 8669  11.232   6.380   9.553 -0.1980 -0.1447 -0.0662
  579ERGO    R1 8670  11.404   6.427   9.333 -0.1412 -0.1819 -0.0301
  579ERGO    R2 8671  11.633   6.279   9.289 -0.0728 -0.1230  0.1113
  579ERGO    R3 8672  11.521   6.239   9.044  0.0195 -0.2702  0.0922
  579ERGO    R4 8673  11.809   6.267   8.992  0.0038 -0.0134  0.1515
  579ERGO    R5 8674  11.648   6.380   8.898 -0.0797 -0.1796  0.0953
  579ERGO    C1 8675  11.807   6.222   8.589  0.1351 -0.0879  0.1568
  579ERGO    C2 8676  12.070   6.007   8.505  0.4849 -0.0329 -0.0008
  580ERGO   ROH 8677   6.196   3.712   9.587  0.0291  0.0462 -0.0220
  580ERGO    R1 8678   6.142   3.722   9.310  0.0655 -0.0432 -0.0329
  580ERGO    R2 8679   6.242   3.536   9.132  0.0112 -0.1560  0.0529
  580ERGO    R3 8680   5.980   3.507   9.064  0.0072 -0.0772  0.0347
  580ERGO    R4 8681   6.129   3.420   8.827 -0.0065  0.3040 -0.1239
  580ERGO    R5 8682   5.972   3.571   8.833 -0.0220  0.2827  0.1278
  580ERGO    C1 8683   5.818   3.325   8.586 -0.0206  0.6460 -0.2438
  580ERGO    C2 8684   5.842   3.192   8.153  0.0213 -0.1281 -0.1172
  581ERGO   ROH 8685  17.763   5.927   8.934 -0.1117  0.1712 -0.0588
  581ERGO    R1 8686  17.636   5.770   8.735 -0.1329  0.2410 -0.1000
  581ERGO    R2 8687  17.673   5.814   8.465  0.2035  0.0459 -0.0895
  581ERGO    R3 8688  17.740   5.551   8.464 -0.1625 -0.0565  0.1233
  581ERGO    R4 8689  17.665   5.609   8.187  0.4399 -0.0204 -0.0494
  581ERGO    R5 8690  17.585   5.450   8.313 -0.0280  0.1222 -0.1440
  581ERGO    C1 8691  17.725   5.242   8.025  0.2339 -0.1552  0.1738
  581ERGO    C2 8692  17.772   5.120   7.731  0.0477  0.1000 -0.1868
  582ERGO   ROH 8693  17.846   4.809   9.125  0.0893 -0.0104  0.1462
  582ERGO    R1 8694  18.079   4.875   8.979  0.0336  0.0029  0.0633
  582ERGO    R2 8695  18.290   4.698   8.947  0.0087 -0.0030 -0.0558
  582ERGO    R3 8696  18.250   4.749   8.683 -0.0935  0.0494 -0.0316
  582ERGO    R4 8697  18.471   4.556   8.690 -0.0219  0.1215 -0.1475
  582ERGO    R5 8698  18.470   4.750   8.589 -0.1209  0.1486 -0.1008
  582ERGO    C1 8699  18.540   4.521   8.292 -0.1357  0.2432 -0.1781
  582ERGO    C2 8700  18.600   4.395   8.004  0.1241  0.1418  0.3134
  583ERGO   ROH 8701  14.762   6.889   9.010  0.2094  0.0641 -0.2231
  583ERGO    R1 8702  14.928   6.852   8.784  0.1274  0.0224 -0.2772
  583ERGO    R2 8703  14.962   6.607   8.662  0.3066 -0.0598 -0.0682
  583ERGO    R3 8704  14.886   6.743   8.439  0.0525 -0.3382 -0.1583
  583ERGO    R4 8705  15.043   6.516   8.339  0.3859 -0.1798 -0.0148
  583ERGO    R5 8706  15.076   6.727   8.293  0.0542 -0.1573 -0.1795
  583ERGO    C1 8707  15.020   6.590   7.941  0.1936 -0.5111 -0.0683
  583ERGO    C2 8708  14.805   6.503   7.594  0.2431  0.0245 -0.0040
  584ERGO   ROH 8709   8.861  12.878   9.209  0.1141  0.1130  0.1134
  584ERGO    R1 8710   8.935  13.015   8.972  0.1795  0.0482  0.0975
  584ERGO    R2 8711   8.922  12.898   8.722 -0.0055  0.0673  0.1031
  584ERGO    R3 8712   8.771  13.117   8.663  0.1898  0.2183  0.1451
  584ERGO    R4 8713   8.874  13.026   8.405 -0.3246 -0.1657  0.0506
  584ERGO    R5 8714   8.891  13.226   8.488  0.0760 -0.1011 -0.1492
  584ERGO    C1 8715   8.705  13.305   8.164 -0.3271 -0.1595  0.0596
  584ERGO    C2 8716   8.680  13.548   7.805  0.0256  0.3739 -0.0622
  585ERGO   ROH 8717   5.839   8.465   9.221  0.1207 -0.0380 -0.1626
  585ERGO    R1 8718   5.911   8.615   8.991 -0.1569  0.2179 -0.0895
  585ERGO    R2 8719   6.062   8.510   8.785  0.2934  0.6769 -0.0213
  585ERGO    R3 8720   5.853   8.593   8.633  0.1297  0.1074 -0.1296
  585ERGO    R4 8721   6.074   8.559   8.444  0.2227  0.3976 -0.0658
  585ERGO    R5 8722   5.952   8.738   8.470 -0.1552  0.1720 -0.2457
  585ERGO    C1 8723   5.885   8.666   8.101  0.0279 -0.2996 -0.1934
  585ERGO    C2 8724   5.863   8.752   7.786  0.2107  0.1601 -0.0812
  586ERGO   ROH 8725   9.574   4.551   9.626  0.0250  0.1538 -0.0530
  586ERGO    R1 8726   9.416   4.381   9.464  0.0875 -0.0076  0.0542
  586ERGO    R2 8727   9.246   4.477   9.269 -0.0398 -0.1877  0.0775
  586ERGO    R3 8728   9.386   4.307   9.109  0.0221 -0.1475  0.0875
  586ERGO    R4 8729   9.169   4.407   8.939  0.0198 -0.1868  0.0626
  586ERGO    R5 8730   9.219   4.198   8.977  0.0631 -0.1793  0.0588
  586ERGO    C1 8731   9.256   4.207   8.597  0.1125 -0.1485  0.0635
  586ERGO    C2 8732   9.151   4.228   8.355 -0.3231 -0.3666 -0.3154
  587ERGO   ROH 8733   7.642   1.291   9.951 -0.1685 -0.2398  0.1574
  587ERGO    R1 8734   7.516   1.499   9.806 -0.1326 -0.2099  0.1715
  587ERGO    R2 8735   7.484   1.490   9.532 -0.0868 -0.1637  0.1711
  587ERGO    R3 8736   7.223   1.532   9.593 -0.0972 -0.1541  0.1280
  587ERGO    R4 8737   7.229   1.520   9.301 -0.0530 -0.2333  0.1228
  587ERGO    R5 8738   7.144   1.679   9.422 -0.0751 -0.1983  0.0730
  587ERGO    C1 8739   6.835   1.576   9.224 -0.0431 -0.2648  0.0542
  587ERGO    C2 8740   6.538   1.652   8.965 -0.0779 -0.1548 -0.1075
  588ERGO   ROH 8741  11.093   3.019   9.747 -0.0938  0.1687  0.0454
  588ERGO    R1 8742  10.960   2.976   9.501 -0.1030  0.2059  0.0434
  588ERGO    R2 8743  10.698   3.052   9.457 -0.1216  0.1705  0.0799
  588ERGO    R3 8744  10.806   3.181   9.244 -0.1570  0.2429  0.1063
  588ERGO    R4 8745  10.520   3.161   9.182 -0.1151 -0.0070  0.0042
  588ERGO    R5 8746  10.685   3.096   9.055 -0.0151  0.1230  0.0702
  588ERGO    C1 8747  10.516   3.346   8.822 -0.1445 -0.0424 -0.0153
  588ERGO    C2 8748  10.376   3.314   8.433  0.1721 -0.0119 -0.3388
  589ERGO   ROH 8749   8.745  11.572   9.221  0.2363  0.1221 -0.0039
  589ERGO    R1 8750   8.770  11.595   8.940  0.0828  0.0685 -0.0213
  589ERGO    R2 8751   8.950  11.445   8.792  0.0522  0.0976 -0.0770
  589ERGO    R3 8752   8.728  11.376   8.652  0.0042 -0.0062  0.0439
  589ERGO    R4 8753   8.922  11.454   8.448 -0.2256  0.3808 -0.0521
  589ERGO    R5 8754   8.720  11.532   8.471 -0.2982  0.1587  0.1838
  589ERGO    C1 8755   8.696  11.394   8.117 -0.4324  0.4481  0.0758
  589ERGO    C2 8756   8.538  11.303   7.782  0.0540  0.1211 -0.0449
  590ERGO   ROH 8757   6.766   9.166   9.248 -0.0185 -0.3313 -0.1024
  590ERGO    R1 8758   6.885   9.204   8.994 -0.0133 -0.0707 -0.0654
  590ERGO    R2 8759   6.994   8.996   8.848  0.2526  0.1181 -0.1535
  590ERGO    R3 8760   6.827   9.088   8.654  0.1782  0.0252 -0.1317
  590ERGO    R4 8761   7.046   8.959   8.508  0.1849  0.0733 -0.1578
  590ERGO    R5 8762   6.973   9.162   8.480  0.1107  0.0411 -0.1791
  590ERGO    C1 8763   6.920   9.023   8.129  0.0757 -0.0398 -0.1399
  590ERGO    C2 8764   7.067   8.911   7.870  0.0651  0.2145 -0.0344
  591ERGO   ROH 8765   3.933  16.087   9.503  0.0018 -0.0681 -0.0192
  591ERGO    R1 8766   3.772  16.098   9.270  0.0229  0.0394 -0.0290
  591ERGO    R2 8767   3.840  16.250   9.050  0.1386 -0.0056 -0.0255
  591ERGO    R3 8768   3.810  16.015   8.918 -0.0113  0.0131 -0.0265
  591ERGO    R4 8769   3.914  16.201   8.716  0.0686 -0.0422 -0.0357
  591ERGO    R5 8770   3.734  16.078   8.699 -0.0030  0.0596 -0.0155
  591ERGO    C1 8771   3.929  15.950   8.397 -0.1130 -0.0460 -0.0424
  591ERGO    C2 8772   4.067  15.927   8.049 -0.1937 -0.2666 -0.0956
  592ERGO   ROH 8773  10.125   5.611   9.621 -0.1545  0.0313  0.0671
  592ERGO    R1 8774   9.906   5.540   9.457 -0.0843 -0.0570  0.0101
  592ERGO    R2 8775   9.876   5.636   9.200 -0.0799 -0.0338  0.0161
  592ERGO    R3 8776   9.859   5.371   9.138  0.0704 -0.0340 -0.0252
  592ERGO    R4 8777   9.794   5.511   8.888 -0.2365 -0.0304  0.0555
  592ERGO    R5 8778   9.674   5.358   8.986 -0.0418 -0.1423  0.1207
  592ERGO    C1 8779   9.731   5.190   8.648 -0.1867 -0.0287  0.0396
  592ERGO    C2 8780   9.773   5.180   8.339 -0.0643 -0.0267  0.3397
  593ERGO   ROH 8781   8.902   7.936   9.316 -0.1863  0.0534 -0.0070
  593ERGO    R1 8782   8.842   7.973   9.042  0.0551  0.1316 -0.0499
  593ERGO    R2 8783   9.020   7.910   8.841  0.1000 -0.1438  0.0784
  593ERGO    R3 8784   8.812   7.763   8.746 -0.0599  0.1604 -0.0604
  593ERGO    R4 8785   8.973   7.829   8.509  0.4373 -0.4132  0.0897
  593ERGO    R5 8786   8.759   7.866   8.536  0.4539  0.0457 -0.2628
  593ERGO    C1 8787   8.750   7.643   8.226  0.4834 -0.2844 -0.0339
  593ERGO    C2 8788   8.843   7.560   7.812  0.2773 -0.2524  0.1027
  594ERGO   ROH 8789  16.392   0.738   9.146  0.0258  0.3419 -0.0719
  594ERGO    R1 8790  16.565   0.797   8.930  0.0318  0.2853 -0.0828
  594ERGO    R2 8791  16.669   0.602   8.765  0.0644  0.2384 -0.0064
  594ERGO    R3 8792  16.561   0.756   8.569  0.0586  0.1561 -0.0689
  594ERGO    R4 8793  16.760   0.592   8.431  0.1285  0.1708  0.0126
  594ERGO    R5 8794  16.745   0.808   8.425  0.0715  0.1658 -0.0495
  594ERGO    C1 8795  16.710   0.730   8.053  0.1607  0.0542 -0.0350
  594ERGO    C2 8796  16.523   0.818   7.680  0.1007  0.4519  0.0099
  595ERGO   ROH 8797   7.746   8.798   9.233  0.1183  0.1884 -0.0385
  595ERGO    R1 8798   7.858   8.811   8.974  0.0612  0.1159 -0.0679
  595ERGO    R2 8799   8.125   8.758   8.924  0.0637  0.1488 -0.1059
  595ERGO    R3 8800   8.023   8.581   8.745  0.0569  0.0633 -0.0171
  595ERGO    R4 8801   8.277   8.666   8.628  0.0165  0.0563 -0.1012
  595ERGO    R5 8802   8.082   8.671   8.531 -0.0011 -0.0126 -0.0637
  595ERGO    C1 8803   8.271   8.446   8.288 -0.0173 -0.0777 -0.0152
  595ERGO    C2 8804   8.210   8.161   7.963 -0.1240 -0.0826 -0.0927
  596ERGO   ROH 8805   9.484  14.935   9.472  0.0853 -0.1647 -0.1885
  596ERGO    R1 8806   9.492  15.003   9.198 -0.0157 -0.1485 -0.1873
  596ERGO    R2 8807   9.402  14.833   8.999 -0.1800 -0.0976 -0.1577
  596ERGO    R3 8808   9.249  15.047   8.929 -0.1253 -0.0290 -0.0711
  596ERGO    R4 8809   9.326  14.923   8.674 -0.0490  0.1304 -0.1277
  596ERGO    R5 8810   9.354  15.132   8.731 -0.0405  0.0902  0.0229
  596ERGO    C1 8811   9.138  15.176   8.419  0.0788  0.3276 -0.0289
  596ERGO    C2 8812   9.069  15.324   8.070  0.1630  0.3131 -0.1173
  597ERGO   ROH 8813   5.912   6.356   7.804 -0.2512 -0.0835 -0.2423
  597ERGO    R1 8814   5.704   6.541   7.752 -0.1893 -0.0242 -0.2795
  597ERGO    R2 8815   5.650   6.756   7.918 -0.3224 -0.1563 -0.1477
  597ERGO    R3 8816   5.678   6.898   7.688 -0.1001  0.0328 -0.0081
  597ERGO    R4 8817   5.490   7.054   7.849 -0.4439 -0.2221 -0.1548
  597ERGO    R5 8818   5.459   6.986   7.645 -0.1064 -0.0967 -0.2524
  597ERGO    C1 8819   5.423   7.362   7.594 -0.3060 -0.0829 -0.0278
  597ERGO    C2 8820   5.282   7.613   7.350  0.1866 -0.0103 -0.1893
  598ERGO   ROH 8821   3.067  13.737   9.245  0.1773 -0.0064 -0.1450
  598ERGO    R1 8822   3.044  13.719   8.963  0.2699  0.0399 -0.1569
  598ERGO    R2 8823   3.233  13.594   8.806  0.2491 -0.0733 -0.1042
  598ERGO    R3 8824   3.018  13.454   8.715  0.1840  0.0813 -0.1897
  598ERGO    R4 8825   3.212  13.445   8.495  0.2289 -0.0156 -0.1299
  598ERGO    R5 8826   3.004  13.511   8.483  0.2824  0.1200 -0.1805
  598ERGO    C1 8827   2.998  13.227   8.229  0.1561  0.1631 -0.2250
  598ERGO    C2 8828   2.986  13.194   7.927 -0.0913 -0.2664  0.1914
  599ERGO   ROH 8829  17.606   0.218   9.181  0.1838 -0.0469  0.1466
  599ERGO    R1 8830  17.826   0.173   9.009  0.0725 -0.0314 -0.0024
  599ERGO    R2 8831  17.803   0.033   8.771 -0.0694 -0.0686  0.0293
  599ERGO    R3 8832  17.915   0.257   8.667 -0.1834 -0.0616 -0.0777
  599ERGO    R4 8833  17.893   0.073   8.440  0.1426 -0.2724  0.0595
  599ERGO    R5 8834  18.073   0.176   8.506  0.0057 -0.0637  0.1079
  599ERGO    C1 8835  18.050   0.308   8.149  0.1593 -0.3845 -0.0233
  599ERGO    C2 8836  17.992   0.446   7.851 -0.0028 -0.1875  0.0534
  600ERGO   ROH 8837   7.556  11.311   9.291 -0.0465 -0.1737 -0.1327
  600ERGO    R1 8838   7.532  11.508   9.089 -0.1717 -0.2059 -0.1513
  600ERGO    R2 8839   7.751  11.631   8.974 -0.2484  0.0027 -0.0846
  600ERGO    R3 8840   7.637  11.545   8.743 -0.0910 -0.1246 -0.1186
  600ERGO    R4 8841   7.864  11.711   8.657 -0.2139  0.0830 -0.0516
  600ERGO    R5 8842   7.656  11.733   8.595 -0.2159 -0.1165 -0.1259
  600ERGO    C1 8843   7.823  11.678   8.256 -0.0461  0.0102 -0.0645
  600ERGO    C2 8844   7.872  11.840   7.968  0.2074 -0.5115 -0.0144
  601ERGO   ROH 8845  10.100  18.073   9.570 -0.0778 -0.1458 -0.1307
  601ERGO    R1 8846  10.174  18.063   9.297 -0.1568 -0.0497 -0.1543
  601ERGO    R2 8847  10.022  18.177   9.097 -0.0397  0.3178 -0.0274
  601ERGO    R3 8848  10.254  18.303   9.036  0.1303  0.0321  0.0002
  601ERGO    R4 8849  10.093  18.322   8.791  0.0904  0.3670  0.0238
  601ERGO    R5 8850  10.296  18.244   8.808  0.0019  0.0742 -0.0450
  601ERGO    C1 8851  10.354  18.525   8.556  0.3257  0.1274  0.0797
  601ERGO    C2 8852  10.463  18.632   8.259  0.1302 -0.0604  0.0818
  602ERGO   ROH 8853  13.724   6.840   9.317 -0.2573  0.0814 -0.1662
  602ERGO    R1 8854  13.822   7.044   9.147 -0.0301 -0.0189 -0.1587
  602ERGO    R2 8855  13.948   6.989   8.907 -0.1174 -0.1506 -0.1759
  602ERGO    R3 8856  13.760   7.157   8.806  0.0698  0.0853 -0.1429
  602ERGO    R4 8857  13.950   7.117   8.586 -0.1278 -0.3257 -0.2471
  602ERGO    R5 8858  13.884   7.309   8.668  0.2150 -0.1753 -0.3050
  602ERGO    C1 8859  13.775   7.349   8.305  0.0419 -0.2065 -0.2577
  602ERGO    C2 8860  13.686   7.245   7.955  0.1737 -0.0832  0.2573
  603ERGO   ROH 8861   7.873  14.160   9.291 -0.3114 -0.1326 -0.0585
  603ERGO    R1 8862   7.764  14.310   9.077 -0.1335 -0.0292 -0.0788
  603ERGO    R2 8863   7.917  14.477   8.919  0.0333 -0.0945  0.0119
  603ERGO    R3 8864   7.811  14.330   8.717  0.0261  0.0042 -0.0570
  603ERGO    R4 8865   7.923  14.567   8.585  0.2076 -0.0318  0.0307
  603ERGO    R5 8866   7.719  14.493   8.567  0.1722  0.0853 -0.0603
  603ERGO    C1 8867   7.827  14.482   8.201  0.3022  0.0974 -0.0230
  603ERGO    C2 8868   8.043  14.389   7.909  0.2228  0.2198  0.0689
  604ERGO   ROH 8869   3.151   8.854   7.767  0.1319 -0.0912 -0.1001
  604ERGO    R1 8870   3.140   8.572   7.745  0.1823 -0.0979 -0.0382
  604ERGO    R2 8871   3.166   8.405   7.963 -0.0450 -0.0370  0.0368
  604ERGO    R3 8872   2.930   8.305   7.875  0.0606 -0.0833 -0.2009
  604ERGO    R4 8873   3.050   8.086   8.030 -0.1553  0.0224  0.1318
  604ERGO    R5 8874   2.977   8.075   7.824  0.1139 -0.1290  0.0382
  604ERGO    C1 8875   2.759   7.807   7.985 -0.1205  0.0134 -0.0363
  604ERGO    C2 8876   2.613   7.568   8.235 -0.2444  0.2136 -0.1941
  605ERGO   ROH 8877  14.906  17.340   9.507  0.0779  0.0494 -0.0279
  605ERGO    R1 8878  15.012  17.194   9.289  0.0787  0.1731 -0.1121
  605ERGO    R2 8879  14.897  16.960   9.197  0.3056  0.0049  0.0156
  605ERGO    R3 8880  14.898  17.092   8.959 -0.0906 -0.0068  0.0007
  605ERGO    R4 8881  14.810  16.820   8.893  0.2415 -0.1384  0.0991
  605ERGO    R5 8882  14.975  16.928   8.801  0.0078  0.0936 -0.0536
  605ERGO    C1 8883  14.760  16.862   8.493 -0.1677 -0.2330  0.1335
  605ERGO    C2 8884  14.717  16.735   8.142  0.2018  0.1699  0.2315
  606ERGO   ROH 8885  16.115   6.277   9.039 -0.0733  0.2903  0.2572
  606ERGO    R1 8886  16.224   6.383   8.800  0.0008  0.0228  0.1682
  606ERGO    R2 8887  16.359   6.227   8.617 -0.0769 -0.2175  0.3040
  606ERGO    R3 8888  16.178   6.331   8.443 -0.0126 -0.2620  0.2103
  606ERGO    R4 8889  16.379   6.203   8.272  0.2356  0.0176  0.3019
  606ERGO    R5 8890  16.310   6.410   8.259  0.0772 -0.0362  0.3722
  606ERGO    C1 8891  16.221   6.288   7.909  0.4777  0.1128  0.2128
  606ERGO    C2 8892  16.211   6.128   7.622 -0.3318  0.0096 -0.3537
  607ERGO   ROH 8893  16.109  17.785   9.072 -0.1722 -0.0906 -0.0522
  607ERGO    R1 8894  16.108  17.651   8.823 -0.3580 -0.1349 -0.0307
  607ERGO    R2 8895  15.921  17.703   8.626 -0.1412  0.2890 -0.1463
  607ERGO    R3 8896  16.142  17.744   8.472  0.0584 -0.2576 -0.0267
  607ERGO    R4 8897  15.925  17.698   8.281  0.0024  0.4770 -0.1488
  607ERGO    R5 8898  16.115  17.592   8.289 -0.2982 -0.0829 -0.1207
  607ERGO    C1 8899  16.134  17.733   7.935  0.2733  0.0735 -0.0379
  607ERGO    C2 8900  16.180  17.808   7.521 -0.1305  0.2793 -0.1247
  608ERGO   ROH 8901  11.930  18.480   9.431 -0.0278 -0.0274 -0.2158
  608ERGO    R1 8902  11.785  18.360   9.221 -0.0298 -0.0471 -0.2034
  608ERGO    R2 8903  11.907  18.246   9.001 -0.0254 -0.2153 -0.1155
  608ERGO    R3 8904  11.759  18.029   9.072 -0.1620 -0.1037 -0.0572
  608ERGO    R4 8905  11.683  18.083   8.794 -0.0643 -0.1816 -0.0993
  608ERGO    R5 8906  11.548  18.064   8.964 -0.1169 -0.0340 -0.1231
  608ERGO    C1 8907  11.413  17.786   8.740 -0.2154 -0.0571 -0.0352
  608ERGO    C2 8908  11.355  17.642   8.470 -0.2275 -0.1008  0.1390
  609ERGO   ROH 8909  17.226  13.710   9.225  0.1243 -0.2773  0.2682
  609ERGO    R1 8910  17.068  13.619   9.009  0.0390 -0.2100  0.3013
  609ERGO    R2 8911  17.104  13.709   8.750 -0.1268 -0.0578  0.3296
  609ERGO    R3 8912  17.126  13.443   8.695 -0.0699 -0.0220  0.1740
  609ERGO    R4 8913  17.191  13.577   8.443 -0.0157  0.1428  0.2732
  609ERGO    R5 8914  17.041  13.421   8.472 -0.0010  0.1006  0.1346
  609ERGO    C1 8915  17.262  13.251   8.212  0.1023  0.2934  0.0944
  609ERGO    C2 8916  17.444  13.151   7.853 -0.1746  0.1936  0.0622
  610ERGO   ROH 8917  14.618  13.855   9.252  0.2203 -0.2318 -0.1924
  610ERGO    R1 8918  14.577  14.121   9.163 -0.1287 -0.2383 -0.0686
  610ERGO    R2 8919  14.755  14.251   8.996 -0.1695  0.1601  0.1816
  610ERGO    R3 8920  14.534  14.288   8.843 -0.0871 -0.1179 -0.0109
  610ERGO    R4 8921  14.741  14.448   8.713 -0.2416  0.3820  0.3372
  610ERGO    R5 8922  14.545  14.518   8.776 -0.4406 -0.0334  0.2013
  610ERGO    C1 8923  14.525  14.598   8.404 -0.2063  0.2503  0.2471
  610ERGO    C2 8924  14.424  14.599   8.060  0.1442  0.2381 -0.2824
  611ERGO   ROH 8925   4.862  10.558   8.884 -0.0147  0.1033 -0.0328
  611ERGO    R1 8926   4.961  10.406   8.667  0.1176  0.0923  0.0348
  611ERGO    R2 8927   5.179  10.236   8.691  0.0382  0.0154  0.2021
  611ERGO    R3 8928   5.005  10.053   8.589  0.0611  0.0851  0.0333
  611ERGO    R4 8929   5.253  10.010   8.440  0.1943 -0.0141  0.2739
  611ERGO    R5 8930   5.056  10.046   8.356  0.2876  0.0658  0.0800
  611ERGO    C1 8931   5.134   9.706   8.200  0.3066  0.0339  0.1571
  611ERGO    C2 8932   5.338   9.514   8.119  0.1100 -0.0051  0.1152
  612ERGO   ROH 8933  11.459   0.352   9.454 -0.1268  0.1233  0.0533
  612ERGO    R1 8934  11.365   0.184   9.246 -0.0582  0.0791  0.0561
  612ERGO    R2 8935  11.232   0.282   9.024 -0.1008  0.0207  0.0503
  612ERGO    R3 8936  11.425   0.146   8.890 -0.0412  0.0991  0.0579
  612ERGO    R4 8937  11.191   0.132   8.716 -0.0094  0.0465  0.0263
  612ERGO    R5 8938  11.309  -0.036   8.787  0.0328  0.0770  0.0187
  612ERGO    C1 8939  11.347  -0.084   8.410  0.0998  0.1350  0.0193
  612ERGO    C2 8940  11.343  -0.341   8.241  0.0053 -0.1069  0.0945
  613ERGO   ROH 8941   0.754  10.703   9.369 -0.1006 -0.0081 -0.1497
  613ERGO    R1 8942   0.869  10.615   9.126 -0.0106  0.0798 -0.1389
  613ERGO    R2 8943   0.723  10.487   8.930  0.1022 -0.0128 -0.1598
  613ERGO    R3 8944   0.822  10.684   8.772 -0.0133  0.0603 -0.1431
  613ERGO    R4 8945   0.762  10.464   8.588  0.2708 -0.0303 -0.1407
  613ERGO    R5 8946   0.952  10.568   8.607  0.1689  0.1537 -0.0709
  613ERGO    C1 8947   0.878  10.636   8.239  0.2605  0.0281 -0.1137
  613ERGO    C2 8948   1.139  10.728   7.928  0.0120 -0.1116 -0.1703
  614ERGO   ROH 8949   1.394   3.011   9.614 -0.1396  0.0365 -0.0940
  614ERGO    R1 8950   1.323   3.073   9.347 -0.1807  0.0387 -0.0828
  614ERGO    R2 8951   1.268   3.330   9.264  0.0239  0.0708 -0.1223
  614ERGO    R3 8952   1.459   3.277   9.077 -0.0917 -0.1469 -0.1809
  614ERGO    R4 8953   1.253   3.430   8.933  0.1138  0.2506 -0.0732
  614ERGO    R5 8954   1.335   3.235   8.876 -0.2021  0.1411 -0.1788
  614ERGO    C1 8955   1.424   3.437   8.566  0.0577  0.1509 -0.0996
  614ERGO    C2 8956   1.198   3.510   8.342 -0.1304 -0.0478 -0.3938
  615ERGO   ROH 8957  18.235  10.159   9.099 -0.1197 -0.3371  0.1171
  615ERGO    R1 8958  18.368  10.080   8.861 -0.1990 -0.1853  0.0205
  615ERGO    R2 8959  18.233   9.985   8.639 -0.2800  0.0362 -0.0271
  615ERGO    R3 8960  18.369  10.183   8.512 -0.2498  0.0991  0.1016
  615ERGO    R4 8961  18.293   9.998   8.299  0.0113  0.0782  0.0228
  615ERGO    R5 8962  18.494  10.070   8.342 -0.0538  0.1588  0.2017
  615ERGO    C1 8963  18.456  10.191   7.982  0.2095  0.1616  0.1727
  615ERGO    C2 8964  18.531  10.054   7.601  0.0718 -0.2169 -0.3137
  616ERGO   ROH 8965  18.157   6.031   9.139  0.0927  0.0814  0.0528
  616ERGO    R1 8966  18.270   6.226   8.968  0.1499 -0.0319 -0.0417
  616ERGO    R2 8967  18.309   6.182   8.698 -0.0853 -0.0857 -0.0762
  616ERGO    R3 8968  18.165   6.411   8.673  0.1019  0.0428  0.0246
  616ERGO    R4 8969  18.259   6.352   8.401 -0.1086 -0.0076 -0.0262
  616ERGO    R5 8970  18.286   6.539   8.510  0.1155 -0.0457 -0.0271
  616ERGO    C1 8971  18.096   6.667   8.205  0.0536  0.1585  0.0975
  616ERGO    C2 8972  17.952   6.682   7.821 -0.2332 -0.0375 -0.1374
  617ERGO   ROH 8973  10.501  11.600   8.979  0.1470  0.1291 -0.2317
  617ERGO    R1 8974  10.426  11.567   8.709  0.0583 -0.1045 -0.1804
  617ERGO    R2 8975  10.327  11.328   8.610 -0.0764 -0.1605  0.0812
  617ERGO    R3 8976  10.121  11.484   8.528 -0.0288 -0.1478 -0.0161
  617ERGO    R4 8977  10.166  11.298   8.306  0.1448 -0.0707 -0.0470
  617ERGO    R5 8978  10.160  11.516   8.294  0.1387 -0.0667  0.0210
  617ERGO    C1 8979   9.879  11.428   8.051  0.3181 -0.0064 -0.2131
  617ERGO    C2 8980   9.669  11.542   7.838  0.0623  0.2297 -0.1488
  618ERGO   ROH 8981   3.766  12.401   9.347 -0.0133 -0.1120  0.1107
  618ERGO    R1 8982   3.775  12.171   9.183 -0.0739 -0.1124  0.1078
  618ERGO    R2 8983   3.596  11.962   9.209 -0.1087 -0.0790  0.1257
  618ERGO    R3 8984   3.554  12.008   8.944 -0.1301 -0.0711  0.1304
  618ERGO    R4 8985   3.564  11.716   8.968 -0.0409 -0.0739  0.1118
  618ERGO    R5 8986   3.683  11.839   8.834 -0.0805 -0.0263  0.1162
  618ERGO    C1 8987   3.507  11.615   8.580 -0.0214 -0.0635  0.1083
  618ERGO    C2 8988   3.527  11.473   8.360 -0.1430  0.1708  0.0153
  619ERGO   ROH 8989   4.385  14.320   9.285 -0.1115 -0.2426  0.1648
  619ERGO    R1 8990   4.224  14.312   9.053  0.0429 -0.0229  0.0454
  619ERGO    R2 8991   4.280  14.462   8.827  0.3333  0.0096  0.1298
  619ERGO    R3 8992   4.268  14.220   8.704  0.2124  0.0589  0.0454
  619ERGO    R4 8993   4.172  14.410   8.503  0.2198  0.1557  0.1441
  619ERGO    R5 8994   4.069  14.231   8.571  0.1802  0.1709  0.1081
  619ERGO    C1 8995   4.097  14.154   8.198  0.0402  0.2870  0.0733
  619ERGO    C2 8996   3.919  14.235   7.901  0.1851  0.4941  0.0216
  620ERGO   ROH 8997  15.952   9.104   9.359 -0.4323 -0.1832 -0.0838
  620ERGO    R1 8998  15.928   9.158   9.082 -0.3232 -0.0577 -0.0708
  620ERGO    R2 8999  15.823   9.395   8.986 -0.0499  0.0972 -0.0102
  620ERGO    R3 9000  16.057   9.405   8.849 -0.0081 -0.1124  0.0427
  620ERGO    R4 9001  15.855   9.499   8.658  0.1173 -0.0053 -0.0270
  620ERGO    R5 9002  15.999   9.338   8.626  0.0010 -0.1190  0.0463
  620ERGO    C1 9003  16.094   9.570   8.338  0.2539 -0.2619  0.0127
  620ERGO    C2 9004  16.286   9.725   8.010 -0.0975  0.1567 -0.1824
  621ERGO   ROH 9005   8.123  16.428   9.779 -0.0542 -0.0719 -0.0195
  621ERGO    R1 9006   8.132  16.255   9.555 -0.1651 -0.0314 -0.0562
  621ERGO    R2 9007   7.961  16.282   9.340 -0.0697  0.1987 -0.1054
  621ERGO    R3 9008   8.193  16.288   9.198 -0.0161 -0.0130 -0.0305
  621ERGO    R4 9009   7.979  16.309   8.996  0.0587  0.1761 -0.1005
  621ERGO    R5 9010   8.143  16.163   8.999 -0.0696  0.0257 -0.0439
  621ERGO    C1 9011   8.207  16.330   8.662  0.1839 -0.0358 -0.0273
  621ERGO    C2 9012   8.072  16.547   8.412 -0.1220 -0.1693 -0.1138
  622ERGO   ROH 9013  15.927   3.584   9.364  0.1479 -0.0282 -0.1915
  622ERGO    R1 9014  15.758   3.473   9.167  0.3071 -0.1925 -0.2388
  622ERGO    R2 9015  15.776   3.209   9.088  0.0206 -0.4250  0.3956
  622ERGO    R3 9016  15.511   3.205   9.151 -0.1132  0.1698 -0.0403
  622ERGO    R4 9017  15.545   2.989   8.955 -0.0890 -0.4215  0.5779
  622ERGO    R5 9018  15.402   3.154   8.944  0.1750 -0.2026 -0.1105
  622ERGO    C1 9019  15.162   2.857   8.937 -0.2785  0.1390  0.2749
  622ERGO    C2 9020  15.264   2.511   8.704 -0.2988 -0.0662 -0.1348
  623ERGO   ROH 9021   8.181  17.897   7.369  0.0684  0.1528  0.1723
  623ERGO    R1 9022   8.400  17.752   7.473 -0.0291  0.0780  0.2764
  623ERGO    R2 9023   8.372  17.567   7.677 -0.2311 -0.1056  0.0891
  623ERGO    R3 9024   8.496  17.402   7.500 -0.0335  0.0598  0.0696
  623ERGO    R4 9025   8.490  17.251   7.752 -0.1004 -0.0825 -0.0157
  623ERGO    R5 9026   8.666  17.293   7.630 -0.0499  0.0833  0.1106
  623ERGO    C1 9027   8.675  16.912   7.630  0.1610  0.0864 -0.0951
  623ERGO    C2 9028   8.797  16.613   7.768 -0.5221 -0.0293 -0.0167
  624ERGO   ROH 9029   7.443   5.181   9.684  0.0176  0.2348  0.1138
  624ERGO    R1 9030   7.494   5.143   9.409  0.0949  0.3321  0.1135
  624ERGO    R2 9031   7.317   5.013   9.242  0.3920 -0.1297  0.1339
  624ERGO    R3 9032   7.337   5.241   9.095 -0.1794 -0.0773  0.1178
  624ERGO    R4 9033   7.307   5.027   8.896  0.5609 -0.1995  0.1253
  624ERGO    R5 9034   7.465   5.177   8.903  0.1302  0.2681  0.2040
  624ERGO    C1 9035   7.319   5.249   8.558  0.1227 -0.1909  0.1051
  624ERGO    C2 9036   7.222   5.052   8.303 -0.0814 -0.3046 -0.0262
  625ERGO   ROH 9037   9.550  18.764   9.738  0.0522 -0.3077  0.0441
  625ERGO    R1 9038   9.499  18.651   9.483  0.0066 -0.2780  0.0389
  625ERGO    R2 9039   9.257  18.681   9.353  0.0054 -0.1989  0.0494
  625ERGO    R3 9040   9.413  18.775   9.152  0.0265 -0.2307  0.0525
  625ERGO    R4 9041   9.147  18.750   9.033  0.0270 -0.1657  0.0502
  625ERGO    R5 9042   9.332  18.664   8.956  0.0046 -0.2048  0.0502
  625ERGO    C1 9043   9.231  18.879   8.657  0.0593 -0.1762  0.0536
  625ERGO    C2 9044   9.204  19.086   8.394  0.1203 -0.3062  0.3042
  626ERGO   ROH 9045   4.598   4.465   9.520 -0.0267 -0.0310 -0.2777
  626ERGO    R1 9046   4.637   4.348   9.266 -0.0961  0.0283 -0.3172
  626ERGO    R2 9047   4.494   4.128   9.179  0.0501 -0.1112 -0.2330
  626ERGO    R3 9048   4.436   4.289   8.968 -0.2604 -0.1394 -0.1733
  626ERGO    R4 9049   4.480   4.024   8.850  0.1698 -0.0206 -0.2662
  626ERGO    R5 9050   4.579   4.210   8.793 -0.1573  0.1642 -0.2245
  626ERGO    C1 9051   4.419   4.115   8.460 -0.0521  0.0056 -0.2295
  626ERGO    C2 9052   4.399   4.012   8.172 -0.0826 -0.2052 -0.0345
  627ERGO   ROH 9053  18.647  18.821   9.362  0.0422 -0.3236 -0.1169
  627ERGO    R1 9054  18.773  18.969   9.156 -0.0432 -0.2322 -0.1040
  627ERGO    R2 9055  19.039  19.044   9.168 -0.0784 -0.1039 -0.1106
  627ERGO    R3 9056  19.052  18.920   8.927 -0.0332 -0.0639 -0.1292
  627ERGO    R4 9057  19.160  19.188   8.878 -0.1774 -0.0007 -0.1013
  627ERGO    R5 9058  18.998  19.092   8.769 -0.1360 -0.0699 -0.1011
  627ERGO    C1 9059  19.242  19.155   8.483 -0.1927  0.0972 -0.1134
  627ERGO    C2 9060  19.238  19.202   8.209 -0.3412  0.2845 -0.1045
  628ERGO   ROH 9061   5.973   7.257   9.255 -0.0345  0.2302  0.0499
  628ERGO    R1 9062   6.147   7.396   9.079 -0.0923  0.1810 -0.0456
  628ERGO    R2 9063   6.255   7.278   8.854 -0.0357  0.0668  0.0447
  628ERGO    R3 9064   6.145   7.492   8.728 -0.1250 -0.0711 -0.1184
  628ERGO    R4 9065   6.360   7.404   8.550  0.1026  0.0432  0.0815
  628ERGO    R5 9066   6.332   7.605   8.628 -0.1357  0.0530 -0.0088
  628ERGO    C1 9067   6.318   7.678   8.254  0.0993 -0.1000 -0.0501
  628ERGO    C2 9068   6.233   7.775   7.960 -0.1270 -0.0795  0.2507
  629ERGO   ROH 9069   6.283   4.691   9.501 -0.2592  0.0921 -0.0558
  629ERGO    R1 9070   6.409   4.538   9.299 -0.3037 -0.0328  0.0074
  629ERGO    R2 9071   6.269   4.422   9.092 -0.3310 -0.0072  0.0003
  629ERGO    R3 9072   6.447   4.558   8.938 -0.2203 -0.1403  0.0122
  629ERGO    R4 9073   6.257   4.442   8.747 -0.3536  0.1094  0.0086
  629ERGO    R5 9074   6.474   4.421   8.743 -0.3813 -0.1038 -0.0297
  629ERGO    C1 9075   6.418   4.580   8.401 -0.2628  0.0525  0.0245
  629ERGO    C2 9076   6.332   4.493   7.955  0.1576  0.1787  0.1143
  630ERGO   ROH 9077  11.960  11.368   9.142 -0.1170 -0.0913 -0.0857
  630ERGO    R1 9078  12.127  11.277   8.932 -0.1128 -0.0240 -0.1125
  630ERGO    R2 9079  12.038  11.103   8.736 -0.0908 -0.0148 -0.1355
  630ERGO    R3 9080  12.128  11.297   8.568 -0.1457  0.0329 -0.1088
  630ERGO    R4 9081  12.131  11.052   8.407  0.0897  0.0278 -0.0914
  630ERGO    R5 9082  12.298  11.189   8.438 -0.0169  0.1397 -0.0273
  630ERGO    C1 9083  12.270  11.205   8.058  0.1430  0.0974 -0.0406
  630ERGO    C2 9084  12.367  11.164   7.827  0.2010 -0.2750  0.4019
  631ERGO   ROH 9085  17.753  11.075   9.680  0.0278 -0.1712 -0.0959
  631ERGO    R1 9086  17.745  11.169   9.413  0.1396 -0.0882 -0.0711
  631ERGO    R2 9087  17.960  11.147   9.240  0.1489 -0.2080 -0.0454
  631ERGO    R3 9088  17.778  11.024   9.080  0.0737 -0.0212 -0.1073
  631ERGO    R4 9089  17.995  11.099   8.900  0.1269 -0.0768 -0.0669
  631ERGO    R5 9090  17.785  11.147   8.876  0.1569  0.0681 -0.0516
  631ERGO    C1 9091  17.845  10.955   8.552  0.0433  0.1751 -0.1373
  631ERGO    C2 9092  17.734  10.751   8.269 -0.0703  0.1207  0.0511
  632ERGO   ROH 9093   1.630  10.688   9.212  0.1198 -0.1486  0.0358
  632ERGO    R1 9094   1.736  10.887   9.040 -0.0944  0.0117  0.0853
  632ERGO    R2 9095   1.974  10.854   8.904  0.0335  0.3720  0.2101
  632ERGO    R3 9096   1.820  10.913   8.687  0.0505  0.1274  0.1281
  632ERGO    R4 9097   2.096  10.918   8.587  0.0567  0.0943  0.1592
  632ERGO    R5 9098   1.947  11.077   8.567  0.0252  0.0408 -0.0161
  632ERGO    C1 9099   2.024  11.011   8.200  0.0862 -0.2969  0.0527
  632ERGO    C2 9100   2.165  10.806   8.034  0.2754  0.1036 -0.0144
  633ERGO   ROH 9101   9.648  18.218   9.692 -0.5720 -0.0370  0.0229
  633ERGO    R1 9102   9.723  18.238   9.420 -0.3270 -0.0897  0.0844
  633ERGO    R2 9103   9.596  18.096   9.219 -0.3458  0.0976 -0.0368
  633ERGO    R3 9104   9.565  18.342   9.109  0.0499  0.1559 -0.0324
  633ERGO    R4 9105   9.497  18.158   8.893 -0.2510  0.2597 -0.0359
  633ERGO    R5 9106   9.643  18.318   8.885  0.0133  0.0314 -0.0340
  633ERGO    C1 9107   9.411  18.425   8.601  0.1756  0.4086 -0.0311
  633ERGO    C2 9108   9.362  18.444   8.318 -0.3545  0.2166  0.0937
  634ERGO   ROH 9109  18.987   1.006   9.301 -0.0243 -0.0361 -0.1683
  634ERGO    R1 9110  18.995   1.176   9.075  0.2836  0.0711 -0.0833
  634ERGO    R2 9111  19.227   1.224   8.933  0.3609 -0.3827 -0.1384
  634ERGO    R3 9112  19.077   1.143   8.722  0.0885  0.0579 -0.1264
  634ERGO    R4 9113  19.308   1.279   8.601  0.3519 -0.4114 -0.1447
  634ERGO    R5 9114  19.097   1.321   8.562  0.4296  0.0887 -0.0481
  634ERGO    C1 9115  19.213   1.234   8.210  0.0910 -0.0145 -0.1372
  634ERGO    C2 9116  19.333   1.363   7.883  0.0164 -0.0615 -0.1544
  635ERGO   ROH 9117  13.257   0.720   9.372  0.2278  0.2371  0.0179
  635ERGO    R1 9118  13.082   0.811   9.169  0.1535  0.1655  0.0495
  635ERGO    R2 9119  13.171   0.951   8.948  0.0846  0.0055 -0.0785
  635ERGO    R3 9120  13.040   0.756   8.812 -0.0423 -0.0371  0.1009
  635ERGO    R4 9121  13.083   0.969   8.614 -0.0495 -0.1670 -0.0533
  635ERGO    R5 9122  12.893   0.874   8.665 -0.0647 -0.0724  0.0898
  635ERGO    C1 9123  12.908   0.795   8.292 -0.2469 -0.3075  0.1297
  635ERGO    C2 9124  13.178   0.691   8.044 -0.0952  0.0109 -0.2616
  636ERGO   ROH 9125  16.451   2.288   9.147  0.2723  0.0886 -0.0161
  636ERGO    R1 9126  16.262   2.239   8.943  0.2282  0.0999  0.0225
  636ERGO    R2 9127  16.324   2.258   8.674  0.2114 -0.0352  0.0102
  636ERGO    R3 9128  16.226   2.005   8.666  0.0866  0.0082  0.1165
  636ERGO    R4 9129  16.310   2.060   8.391  0.2068 -0.1803  0.1102
  636ERGO    R5 9130  16.114   1.991   8.455  0.1484 -0.0477  0.0852
  636ERGO    C1 9131  16.210   1.707   8.219  0.0871 -0.2240  0.2681
  636ERGO    C2 9132  16.165   1.394   7.987 -0.3586  0.3115 -0.1623
  637ERGO   ROH 9133   0.331  10.589   9.556 -0.2841  0.0393  0.0577
  637ERGO    R1 9134   0.187  10.630   9.316 -0.1120 -0.0204 -0.0575
  637ERGO    R2 9135   0.297  10.757   9.096  0.0199 -0.0028  0.0189
  637ERGO    R3 9136   0.220  10.530   8.967  0.1865 -0.0344 -0.0284
  637ERGO    R4 9137   0.361  10.687   8.764  0.0480  0.1284 -0.0040
  637ERGO    R5 9138   0.160  10.604   8.747  0.1093 -0.0268 -0.0061
  637ERGO    C1 9139   0.325  10.434   8.449  0.2208  0.1750 -0.0617
  637ERGO    C2 9140   0.396  10.432   8.147 -0.1865 -0.1731  0.2585
  638ERGO   ROH 9141  17.197   2.985   8.987  0.1710  0.0534  0.0201
  638ERGO    R1 9142  17.003   2.889   8.805  0.1021  0.0872  0.0753
  638ERGO    R2 9143  17.044   2.883   8.532  0.0771 -0.0453  0.0720
  638ERGO    R3 9144  16.980   2.620   8.561 -0.0651  0.0006  0.1853
  638ERGO    R4 9145  16.902   2.687   8.286  0.1426 -0.1271  0.0984
  638ERGO    R5 9146  16.775   2.596   8.438  0.0029  0.0230  0.0703
  638ERGO    C1 9147  16.758   2.327   8.168  0.0476 -0.1315  0.2200
  638ERGO    C2 9148  16.692   2.414   7.871  0.1353 -0.0147 -0.4123
  639ERGO   ROH 9149  13.538   0.224   9.329  0.1055  0.2161  0.1624
  639ERGO    R1 9150  13.400   0.354   9.120  0.0113 -0.0856  0.0335
  639ERGO    R2 9151  13.516   0.551   8.965 -0.1923 -0.0175 -0.0231
  639ERGO    R3 9152  13.439   0.390   8.759  0.1025 -0.2325  0.0254
  639ERGO    R4 9153  13.597   0.602   8.633 -0.3731  0.1139 -0.0494
  639ERGO    R5 9154  13.395   0.541   8.579 -0.2727 -0.3422  0.0081
  639ERGO    C1 9155  13.572   0.481   8.247 -0.2018 -0.0114 -0.0193
  639ERGO    C2 9156  13.839   0.506   7.960 -0.4215  0.1754  0.0096
  640ERGO   ROH 9157  11.065  16.076   9.454  0.3631 -0.1201 -0.0666
  640ERGO    R1 9158  10.952  15.863   9.306  0.1902 -0.0805  0.0062
  640ERGO    R2 9159  10.723  15.892   9.154  0.1806  0.0364  0.0502
  640ERGO    R3 9160  10.880  15.793   8.956  0.0699 -0.1185  0.0365
  640ERGO    R4 9161  10.634  15.877   8.821  0.1010  0.0652  0.0696
  640ERGO    R5 9162  10.728  15.680   8.809 -0.0548 -0.0184  0.0802
  640ERGO    C1 9163  10.730  15.776   8.440 -0.0493 -0.0632  0.0680
  640ERGO    C2 9164  10.491  15.724   8.104  0.0972  0.2152  0.2647
  641ERGO   ROH 9165   2.516   6.772   9.401  0.0954 -0.0039  0.0586
  641ERGO    R1 9166   2.747   6.847   9.255  0.0449 -0.0226 -0.0328
  641ERGO    R2 9167   2.900   6.664   9.114 -0.0015 -0.0428 -0.0637
  641ERGO    R3 9168   2.856   6.835   8.908 -0.0787 -0.0705 -0.0692
  641ERGO    R4 9169   3.010   6.616   8.790 -0.0597 -0.0409 -0.0833
  641ERGO    R5 9170   3.058   6.828   8.780 -0.1074 -0.0359 -0.1111
  641ERGO    C1 9171   3.033   6.749   8.408 -0.1661 -0.0659 -0.1002
  641ERGO    C2 9172   3.074   6.637   8.077 -0.0327  0.0065  0.1101
  642ERGO   ROH 9173   3.710   2.562   9.589 -0.1847 -0.0209  0.1123
  642ERGO    R1 9174   3.521   2.565   9.379 -0.1759 -0.1216  0.1020
  642ERGO    R2 9175   3.594   2.574   9.112 -0.1674 -0.0086  0.1064
  642ERGO    R3 9176   3.438   2.353   9.095  0.0040 -0.1262  0.0526
  642ERGO    R4 9177   3.338   2.531   8.885 -0.4019  0.0190  0.3613
  642ERGO    R5 9178   3.220   2.437   9.043 -0.1352 -0.2560  0.4028
  642ERGO    C1 9179   3.042   2.297   8.737 -0.3776 -0.0754  0.4594
  642ERGO    C2 9180   2.781   2.275   8.645 -0.2355  0.2969  0.0341
  643ERGO   ROH 9181   5.580  14.619   9.378 -0.1294 -0.0449 -0.0720
  643ERGO    R1 9182   5.553  14.557   9.103 -0.0949 -0.1014 -0.0628
  643ERGO    R2 9183   5.513  14.750   8.910 -0.0298 -0.1361 -0.1133
  643ERGO    R3 9184   5.732  14.636   8.796 -0.0298 -0.1999 -0.0502
  643ERGO    R4 9185   5.564  14.718   8.570  0.1405 -0.0017 -0.1016
  643ERGO    R5 9186   5.645  14.519   8.605  0.0118 -0.0617 -0.1533
  643ERGO    C1 9187   5.799  14.593   8.264  0.2395  0.0168 -0.0356
  643ERGO    C2 9188   5.846  14.579   7.884  0.1734 -0.3563 -0.1006
  644ERGO   ROH 9189  16.761   5.375   9.190  0.1650  0.0759 -0.0363
  644ERGO    R1 9190  16.639   5.424   8.939  0.1120  0.0820 -0.0094
  644ERGO    R2 9191  16.767   5.375   8.699  0.0590  0.0819 -0.0380
  644ERGO    R3 9192  16.544   5.227   8.648  0.0446  0.0876  0.0084
  644ERGO    R4 9193  16.648   5.299   8.384  0.1042 -0.0830 -0.0159
  644ERGO    R5 9194  16.445   5.332   8.457  0.0959 -0.0073 -0.0713
  644ERGO    C1 9195  16.369   5.116   8.152  0.1166 -0.1737  0.0406
  644ERGO    C2 9196  16.304   5.156   7.832 -0.0384 -0.2393  0.0866
  645ERGO   ROH 9197   9.675   7.326   9.120  0.0453  0.0566  0.0381
  645ERGO    R1 9198   9.760   7.235   8.866  0.1642  0.2191  0.0175
  645ERGO    R2 9199   9.591   7.103   8.692  0.4033 -0.2395  0.1157
  645ERGO    R3 9200   9.670   7.298   8.519 -0.1545 -0.0597  0.0446
  645ERGO    R4 9201   9.604   7.069   8.348  0.4717 -0.3200  0.1263
  645ERGO    R5 9202   9.791   7.181   8.349  0.1703  0.2168  0.0753
  645ERGO    C1 9203   9.685   7.231   7.986 -0.0121 -0.1980  0.0657
  645ERGO    C2 9204   9.628   7.267   7.687 -0.3020  0.7267  0.0080
  646ERGO   ROH 9205  13.454   6.368   9.375  0.2821 -0.0907 -0.0746
  646ERGO    R1 9206  13.399   6.253   9.123  0.1969 -0.1597 -0.0243
  646ERGO    R2 9207  13.333   5.986   9.093 -0.1377 -0.0934  0.1080
  646ERGO    R3 9208  13.116   6.088   8.964  0.0214  0.1134 -0.0039
  646ERGO    R4 9209  13.217   5.878   8.786 -0.2118 -0.1485  0.1547
  646ERGO    R5 9210  13.178   6.086   8.733  0.0752 -0.1236  0.0073
  646ERGO    C1 9211  12.946   5.910   8.486 -0.1057  0.0135  0.0767
  646ERGO    C2 9212  12.832   5.643   8.168 -0.0176  0.1690 -0.1379
  647ERGO   ROH 9213   0.285   5.855   9.169  0.0000  0.0141 -0.0922
  647ERGO    R1 9214   0.239   5.946   8.905  0.2702 -0.0180 -0.1535
  647ERGO    R2 9215   0.422   5.908   8.701  0.2571 -0.5231 -0.0876
  647ERGO    R3 9216   0.209   5.794   8.575  0.0354 -0.1320 -0.0818
  647ERGO    R4 9217   0.370   5.909   8.359  0.1279 -0.2425 -0.0700
  647ERGO    R5 9218   0.158   5.944   8.396  0.1911  0.0537  0.0263
  647ERGO    C1 9219   0.140   5.802   8.042 -0.1554  0.2880 -0.0543
  647ERGO    C2 9220   0.195   5.551   7.779  0.1897 -0.2218  0.3535
  648ERGO   ROH 9221   0.666   3.639   9.505 -0.0905 -0.0920  0.2084
  648ERGO    R1 9222   0.688   3.714   9.233 -0.1851 -0.1446  0.1869
  648ERGO    R2 9223   0.871   3.599   9.061 -0.1667 -0.0925  0.1792
  648ERGO    R3 9224   0.650   3.551   8.910 -0.1724 -0.2365  0.2299
  648ERGO    R4 9225   0.875   3.512   8.726 -0.1786 -0.0911  0.1778
  648ERGO    R5 9226   0.704   3.642   8.695 -0.2752 -0.1987  0.2157
  648ERGO    C1 9227   0.670   3.415   8.390 -0.1909 -0.2255  0.2247
  648ERGO    C2 9228   0.805   3.107   8.070 -0.0372 -0.1720  0.2699
  649ERGO   ROH 9229   1.258  18.328   8.997 -0.1862  0.1765  0.0356
  649ERGO    R1 9230   1.347  18.213   8.754 -0.0460  0.1890  0.0816
  649ERGO    R2 9231   1.182  18.178   8.536 -0.0112 -0.1168  0.1042
  649ERGO    R3 9232   1.377  18.317   8.407 -0.1934  0.0810  0.0341
  649ERGO    R4 9233   1.247  18.159   8.197  0.0105 -0.2121  0.1130
  649ERGO    R5 9234   1.460  18.164   8.243  0.0118  0.0980  0.1144
  649ERGO    C1 9235   1.468  18.278   7.879 -0.1480 -0.0818  0.0523
  649ERGO    C2 9236   1.389  18.390   7.548  0.1390 -0.1699 -0.0119
  650ERGO   ROH 9237   7.284   3.634   9.587 -0.1544  0.0024  0.0576
  650ERGO    R1 9238   7.331   3.641   9.308  0.0253 -0.0453  0.0854
  650ERGO    R2 9239   7.371   3.413   9.158 -0.0835 -0.0857  0.1173
  650ERGO    R3 9240   7.167   3.514   9.009  0.0960  0.0918 -0.0132
  650ERGO    R4 9241   7.272   3.290   8.850 -0.0946 -0.1058  0.1289
  650ERGO    R5 9242   7.245   3.496   8.783  0.1754 -0.0980  0.0262
  650ERGO    C1 9243   7.024   3.313   8.531  0.0674  0.0491  0.0132
  650ERGO    C2 9244   6.982   3.248   8.157 -0.3863 -0.3524 -0.2658
  651ERGO   ROH 9245   3.632   8.524   9.067  0.1313  0.1347  0.0051
  651ERGO    R1 9246   3.802   8.430   8.861  0.1746  0.0129  0.0956
  651ERGO    R2 9247   3.974   8.216   8.896 -0.0166 -0.1303  0.1800
  651ERGO    R3 9248   3.846   8.119   8.677  0.0293 -0.0102  0.0993
  651ERGO    R4 9249   4.080   7.946   8.708 -0.2501 -0.3550  0.3619
  651ERGO    R5 9250   4.022   8.055   8.528  0.0688 -0.3227  0.2734
  651ERGO    C1 9251   4.022   7.699   8.392 -0.3431 -0.3731  0.3921
  651ERGO    C2 9252   3.946   7.372   8.335 -0.2510 -0.1251  0.1311
  652ERGO   ROH 9253  13.775  15.600   9.738  0.2407 -0.0287  0.0615
  652ERGO    R1 9254  13.901  15.603   9.484  0.0855 -0.0033 -0.0163
  652ERGO    R2 9255  13.821  15.440   9.276 -0.1495  0.1355 -0.0366
  652ERGO    R3 9256  13.803  15.675   9.141 -0.0826  0.2051  0.0727
  652ERGO    R4 9257  13.710  15.473   8.950  0.0124  0.2965 -0.0772
  652ERGO    R5 9258  13.868  15.620   8.917  0.0306  0.3164  0.0753
  652ERGO    C1 9259  13.630  15.713   8.634  0.1695  0.4556  0.0019
  652ERGO    C2 9260  13.492  15.860   8.345 -0.1396  0.1136  0.0446
  653ERGO   ROH 9261  19.033   4.356   9.314  0.0260  0.2278  0.0487
  653ERGO    R1 9262  19.051   4.265   9.046 -0.0381  0.3340  0.0082
  653ERGO    R2 9263  18.949   4.022   8.965  0.2191  0.2266  0.0059
  653ERGO    R3 9264  18.818   4.175   8.782 -0.1044  0.1166  0.1375
  653ERGO    R4 9265  18.895   3.933   8.635 -0.0622  0.1678  0.0643
  653ERGO    R5 9266  18.938   4.139   8.578 -0.2893  0.2055  0.0077
  653ERGO    C1 9267  18.741   4.025   8.271 -0.5296  0.0303  0.2219
  653ERGO    C2 9268  18.746   3.971   7.947  0.1430 -0.1009  0.0525
  654ERGO   ROH 9269  10.172   7.206   9.142  0.0178 -0.3081  0.0628
  654ERGO    R1 9270  10.276   7.293   8.894  0.0372 -0.1834  0.1146
  654ERGO    R2 9271  10.331   7.120   8.686 -0.0584 -0.0644 -0.0085
  654ERGO    R3 9272  10.170   7.288   8.546  0.0076  0.1059  0.1161
  654ERGO    R4 9273  10.285   7.109   8.343 -0.1618  0.1184 -0.0019
  654ERGO    R5 9274  10.288   7.327   8.341 -0.0221  0.1220  0.0989
  654ERGO    C1 9275  10.106   7.261   8.013 -0.1599  0.3848  0.1190
  654ERGO    C2 9276  10.071   7.041   7.759  0.1277  0.2511 -0.0218
  655ERGO   ROH 9277   6.136   6.317   9.226 -0.0305 -0.1830 -0.1107
  655ERGO    R1 9278   6.150   6.261   8.949 -0.0404 -0.1732 -0.1138
  655ERGO    R2 9279   6.112   6.008   8.846 -0.1180 -0.1590 -0.1297
  655ERGO    R3 9280   5.925   6.132   8.694 -0.0753 -0.0894 -0.1247
  655ERGO    R4 9281   5.994   5.889   8.544  0.0218  0.0236 -0.2578
  655ERGO    R5 9282   5.997   6.093   8.468  0.0199  0.0723 -0.1211
  655ERGO    C1 9283   5.749   5.936   8.225  0.1433  0.1953 -0.3278
  655ERGO    C2 9284   5.546   5.621   7.983  0.2203 -0.0611 -0.2639
  656ERGO   ROH 9285   9.243   0.547  10.023  0.1519 -0.0540  0.1410
  656ERGO    R1 9286   9.260   0.625   9.751 -0.0142 -0.0712  0.1245
  656ERGO    R2 9287   9.444   0.810   9.661 -0.1456  0.0114  0.0185
  656ERGO    R3 9288   9.510   0.611   9.487 -0.1305  0.0259  0.0080
  656ERGO    R4 9289   9.504   0.854   9.323 -0.0807  0.0437  0.0343
  656ERGO    R5 9290   9.396   0.669   9.285 -0.0885  0.0576 -0.0062
  656ERGO    C1 9291   9.601   0.693   8.964 -0.0287  0.0761  0.0337
  656ERGO    C2 9292   9.870   0.871   8.871 -0.0281  0.0050  0.2410
  657ERGO   ROH 9293   7.318  12.414   9.020  0.1541 -0.0431 -0.0614
  657ERGO    R1 9294   7.128  12.364   8.817  0.0512 -0.0559  0.0369
  657ERGO    R2 9295   7.031  12.562   8.651 -0.1322 -0.0404  0.1569
  657ERGO    R3 9296   7.114  12.394   8.455 -0.1788  0.0559  0.0534
  657ERGO    R4 9297   6.949  12.593   8.317 -0.2879  0.0672  0.2038
  657ERGO    R5 9298   6.926  12.377   8.308 -0.2388  0.0665  0.1306
  657ERGO    C1 9299   6.979  12.453   7.938 -0.4223  0.2203  0.1340
  657ERGO    C2 9300   7.162  12.490   7.576  0.2132  0.2602  0.1798
  658ERGO   ROH 9301   7.738  17.329   9.489 -0.1113  0.1588  0.0053
  658ERGO    R1 9302   7.859  17.428   9.253 -0.1067  0.1179 -0.0095
  658ERGO    R2 9303   7.881  17.278   9.023 -0.1879  0.1116 -0.0124
  658ERGO    R3 9304   7.757  17.492   8.910 -0.1280  0.1551  0.0033
  658ERGO    R4 9305   7.845  17.328   8.683 -0.0002  0.2436 -0.0148
  658ERGO    R5 9306   7.887  17.540   8.715 -0.0189  0.2330  0.0925
  658ERGO    C1 9307   7.706  17.558   8.379  0.1654  0.3613 -0.0014
  658ERGO    C2 9308   7.602  17.349   8.071  0.3896  0.0961 -0.1644
  659ERGO   ROH 9309   8.037   4.490   9.433  0.2510 -0.2115  0.1403
  659ERGO    R1 9310   8.079   4.305   9.224  0.0079 -0.2150  0.0912
  659ERGO    R2 9311   7.886   4.247   9.035 -0.0809  0.0662  0.0924
  659ERGO    R3 9312   8.084   4.313   8.860 -0.0118 -0.1319  0.0924
  659ERGO    R4 9313   7.925   4.112   8.719 -0.1384 -0.0695  0.1423
  659ERGO    R5 9314   8.140   4.107   8.753 -0.1441 -0.2101  0.1690
  659ERGO    C1 9315   8.134   4.095   8.371 -0.1071 -0.3345  0.1715
  659ERGO    C2 9316   8.241   4.251   7.965  0.0386 -0.0411 -0.1627
  660ERGO   ROH 9317  16.882  16.889   9.127 -0.4360 -0.0166  0.0125
  660ERGO    R1 9318  17.028  16.819   8.895 -0.2338  0.2279  0.0603
  660ERGO    R2 9319  16.937  16.633   8.712  0.2326 -0.0985  0.1353
  660ERGO    R3 9320  16.977  16.836   8.535 -0.2495 -0.0682  0.0468
  660ERGO    R4 9321  17.008  16.591   8.376  0.4214 -0.0834  0.1735
  660ERGO    R5 9322  17.151  16.755   8.391  0.0022  0.3042  0.1289
  660ERGO    C1 9323  17.088  16.756   8.015  0.0789 -0.0463  0.1127
  660ERGO    C2 9324  16.848  16.784   7.648  0.2207  0.0966 -0.2051
  661ERGO   ROH 9325  13.953   4.787   9.169 -0.1079 -0.1999  0.0641
  661ERGO    R1 9326  14.074   4.965   8.984 -0.1233 -0.1257  0.1259
  661ERGO    R2 9327  14.186   4.880   8.746 -0.0401 -0.0446  0.1368
  661ERGO    R3 9328  14.019   5.065   8.639 -0.0755 -0.0784  0.1317
  661ERGO    R4 9329  14.227   5.028   8.437 -0.1551 -0.1588  0.0648
  661ERGO    R5 9330  14.164   5.217   8.524 -0.1150 -0.1244  0.0195
  661ERGO    C1 9331  14.094   5.289   8.156 -0.2553 -0.2571  0.0182
  661ERGO    C2 9332  13.876   5.188   7.943  0.2213  0.3101 -0.0242
  662ERGO   ROH 9333  14.187  16.589   9.548 -0.1343 -0.0386  0.0556
  662ERGO    R1 9334  14.124  16.537   9.276 -0.0394 -0.0207  0.0309
  662ERGO    R2 9335  13.877  16.592   9.168 -0.0007 -0.0274 -0.0488
  662ERGO    R3 9336  14.023  16.732   8.986  0.0481 -0.0079  0.0074
  662ERGO    R4 9337  13.771  16.670   8.848 -0.0016  0.1729 -0.0016
  662ERGO    R5 9338  13.973  16.627   8.777 -0.0243  0.1120 -0.0400
  662ERGO    C1 9339  13.847  16.846   8.491  0.0439  0.3077  0.0787
  662ERGO    C2 9340  13.713  16.859   8.062  0.2648  0.1039 -0.0262
  663ERGO   ROH 9341  10.715  18.795   7.414 -0.1160  0.0873  0.0046
  663ERGO    R1 9342  10.535  18.581   7.459 -0.0777  0.0534 -0.0005
  663ERGO    R2 9343  10.355  18.579   7.668 -0.0349 -0.0138  0.0387
  663ERGO    R3 9344  10.174  18.537   7.470 -0.0690  0.0032  0.0667
  663ERGO    R4 9345  10.097  18.349   7.681 -0.1912  0.1656  0.1644
  663ERGO    R5 9346  10.136  18.301   7.472 -0.2297  0.0299  0.1900
  663ERGO    C1 9347   9.777  18.176   7.502 -0.3142  0.2864  0.2639
  663ERGO    C2 9348   9.429  18.002   7.524 -0.0600  0.3970 -0.1419
  664ERGO   ROH 9349   4.838  13.381   9.178 -0.1789  0.0206 -0.0352
  664ERGO    R1 9350   5.007  13.314   8.961 -0.1395 -0.0612  0.0195
  664ERGO    R2 9351   4.943  13.116   8.778 -0.1427 -0.0818  0.0348
  664ERGO    R3 9352   4.985  13.316   8.598 -0.0496 -0.1199  0.0150
  664ERGO    R4 9353   5.004  13.071   8.441 -0.2393 -0.1308  0.0243
  664ERGO    R5 9354   5.152  13.230   8.450 -0.1379 -0.2295 -0.0151
  664ERGO    C1 9355   5.079  13.231   8.076 -0.2080 -0.1951 -0.0005
  664ERGO    C2 9356   4.937  13.055   7.893  0.1364  0.2507 -0.0567
  665ERGO   ROH 9357  15.396  12.299   9.567 -0.2748 -0.0082  0.0178
  665ERGO    R1 9358  15.549  12.157   9.376 -0.3020 -0.1089  0.0711
  665ERGO    R2 9359  15.446  12.080   9.131 -0.2259  0.0881 -0.0218
  665ERGO    R3 9360  15.664  12.212   9.035 -0.0137 -0.1147  0.1640
  665ERGO    R4 9361  15.633  11.980   8.858 -0.3498  0.1350 -0.1253
  665ERGO    R5 9362  15.813  12.038   8.966 -0.2658 -0.2646 -0.0300
  665ERGO    C1 9363  15.946  12.046   8.608 -0.2226 -0.0281 -0.0110
  665ERGO    C2 9364  16.129  11.884   8.317  0.2034 -0.4977  0.1702
  666ERGO   ROH 9365   2.046   8.561   9.152 -0.4237 -0.0338 -0.0933
  666ERGO    R1 9366   2.053   8.384   8.931 -0.2869 -0.0576 -0.0697
  666ERGO    R2 9367   1.866   8.394   8.728 -0.2214 -0.1499 -0.1274
  666ERGO    R3 9368   2.087   8.413   8.570 -0.1790 -0.0920 -0.0639
  666ERGO    R4 9369   1.863   8.394   8.382 -0.1471  0.0532 -0.1310
  666ERGO    R5 9370   2.041   8.268   8.386 -0.1637  0.0191 -0.1616
  666ERGO    C1 9371   2.069   8.411   8.033 -0.0639  0.2258 -0.0734
  666ERGO    C2 9372   2.097   8.617   7.665 -0.0785  0.3482 -0.0981
  667ERGO   ROH 9373   0.341   8.640   9.084 -0.1715  0.0639 -0.1367
  667ERGO    R1 9374   0.476   8.613   8.836 -0.2572  0.1396 -0.1920
  667ERGO    R2 9375   0.520   8.367   8.717 -0.0378  0.1502 -0.1332
  667ERGO    R3 9376   0.397   8.485   8.505 -0.2723 -0.0531 -0.1157
  667ERGO    R4 9377   0.525   8.245   8.394  0.0770  0.1283 -0.1239
  667ERGO    R5 9378   0.548   8.449   8.322 -0.2554  0.1651 -0.1479
  667ERGO    C1 9379   0.413   8.283   8.007 -0.0763 -0.0754 -0.1022
  667ERGO    C2 9380   0.251   8.146   7.671  0.1425  0.1146  0.0579
  668ERGO   ROH 9381   8.955  14.104   8.971  0.0398 -0.0713 -0.0859
  668ERGO    R1 9382   8.918  14.060   8.694  0.0524 -0.1539 -0.0755
  668ERGO    R2 9383   8.741  14.209   8.542 -0.0038 -0.2530 -0.1133
  668ERGO    R3 9384   8.961  14.252   8.388 -0.0190 -0.2134 -0.1226
  668ERGO    R4 9385   8.734  14.311   8.212 -0.0303  0.0278 -0.0283
  668ERGO    R5 9386   8.897  14.173   8.171 -0.0957 -0.0051 -0.1773
  668ERGO    C1 9387   8.936  14.410   7.875 -0.0599  0.2283  0.0125
  668ERGO    C2 9388   8.821  14.563   7.518  0.2070  0.1693 -0.0771
  669ERGO   ROH 9389   9.067  17.912   9.868  0.2641  0.0512 -0.1389
  669ERGO    R1 9390   9.001  18.025   9.617  0.1265 -0.1225 -0.1835
  669ERGO    R2 9391   9.171  18.195   9.481 -0.1626  0.2124 -0.1416
  669ERGO    R3 9392   9.136  18.017   9.279  0.2835  0.0977 -0.1288
  669ERGO    R4 9393   9.119  18.280   9.150 -0.6041  0.0808 -0.1120
  669ERGO    R5 9394   8.972  18.119   9.138 -0.1261 -0.3921 -0.0397
  669ERGO    C1 9395   9.056  18.162   8.768 -0.4424 -0.1031 -0.0828
  669ERGO    C2 9396   9.116  18.076   8.530 -0.1155  0.3953  0.2402
  670ERGO   ROH 9397  14.672  10.989   9.048 -0.0764  0.0905  0.0078
  670ERGO    R1 9398  14.821  11.127   8.851  0.0882 -0.0010  0.0657
  670ERGO    R2 9399  14.997  10.999   8.680 -0.0848 -0.1449 -0.0108
  670ERGO    R3 9400  14.849  11.122   8.488  0.0533  0.1413  0.0607
  670ERGO    R4 9401  15.075  11.006   8.343 -0.1754 -0.2006 -0.0326
  670ERGO    R5 9402  15.010  11.213   8.337  0.1602 -0.0885  0.0326
  670ERGO    C1 9403  14.981  11.125   7.967 -0.0985  0.0356  0.0218
  670ERGO    C2 9404  14.917  11.170   7.645 -0.0880 -0.3790 -0.1564
  671ERGO   ROH 9405  14.529  13.277   9.473  0.1770 -0.0607  0.0502
  671ERGO    R1 9406  14.486  13.351   9.203  0.1114  0.0615  0.0935
  671ERGO    R2 9407  14.686  13.343   9.013  0.0171 -0.0438 -0.0016
  671ERGO    R3 9408  14.507  13.188   8.878 -0.1747  0.1461  0.0299
  671ERGO    R4 9409  14.605  13.380   8.679  0.4092 -0.2905 -0.1312
  671ERGO    R5 9410  14.396  13.341   8.730  0.2704  0.1970 -0.2691
  671ERGO    C1 9411  14.390  13.257   8.358  0.4574 -0.2559 -0.1770
  671ERGO    C2 9412  14.133  13.140   8.058  0.1271  0.2523  0.3060
  672ERGO   ROH 9413   9.302  17.103   9.513 -0.0465  0.0536  0.0293
  672ERGO    R1 9414   9.386  17.149   9.247 -0.0471 -0.0248  0.0170
  672ERGO    R2 9415   9.342  16.967   9.043 -0.3154  0.0494  0.0150
  672ERGO    R3 9416   9.226  17.180   8.921 -0.0777  0.2040  0.0497
  672ERGO    R4 9417   9.324  17.013   8.701 -0.0948  0.2065  0.0210
  672ERGO    R5 9418   9.367  17.224   8.732  0.0671  0.1678  0.1389
  672ERGO    C1 9419   9.204  17.240   8.388  0.2566  0.4430  0.0571
  672ERGO    C2 9420   8.985  17.240   7.999 -0.1529  0.0108  0.0318
  673ERGO   ROH 9421   0.647   6.896   9.386  0.2796 -0.1085  0.0099
  673ERGO    R1 9422   0.741   6.810   9.133  0.1534 -0.0907 -0.0431
  673ERGO    R2 9423   0.571   6.754   8.922  0.0490 -0.0911  0.0465
  673ERGO    R3 9424   0.729   6.932   8.791 -0.0312 -0.0780 -0.0349
  673ERGO    R4 9425   0.520   6.861   8.598  0.0021 -0.2860 -0.0124
  673ERGO    R5 9426   0.735   6.850   8.565  0.0158 -0.1965  0.0035
  673ERGO    C1 9427   0.639   7.090   8.285 -0.1005 -0.3872 -0.1230
  673ERGO    C2 9428   0.621   7.342   8.045  0.0659  0.0252  0.2466
  674ERGO   ROH 9429   4.618   6.577   9.132  0.0399  0.0642 -0.0377
  674ERGO    R1 9430   4.773   6.603   8.897  0.0660 -0.1262 -0.0418
  674ERGO    R2 9431   4.863   6.384   8.754 -0.2258 -0.2393 -0.0572
  674ERGO    R3 9432   4.740   6.509   8.547 -0.0704 -0.0634 -0.0463
  674ERGO    R4 9433   4.926   6.321   8.420 -0.2715 -0.2545 -0.0635
  674ERGO    R5 9434   4.913   6.535   8.383 -0.0266 -0.2299 -0.0288
  674ERGO    C1 9435   4.847   6.402   8.031 -0.1524 -0.0983 -0.0568
  674ERGO    C2 9436   4.771   6.166   7.766  0.0081  0.1591 -0.1542
  675PSPI    C1 9437   5.589  14.187   5.031 -0.1881  0.0965  0.0596
  675PSPI    C2 9438   5.425  13.843   4.910 -0.2209  0.0266  0.2977
  675PSPI    C3 9439   5.702  14.023   4.684 -0.3312 -0.0639  0.0875
  675PSPI   PO4 9440   5.472  14.126   5.353  0.0869 -0.1583 -0.0713
  675PSPI   GL1 9441   5.674  13.868   5.698  0.1074  0.0614 -0.0855
  675PSPI   GL2 9442   5.524  14.141   5.858  0.0067  0.0445 -0.0096
  675PSPI   C1A 9443   5.738  13.719   6.125 -0.0111 -0.0972 -0.2133
  675PSPI   C2A 9444   5.571  13.686   6.524 -0.2083 -0.1475  0.2037
  675PSPI   C3A 9445   5.708  13.689   6.951 -0.0148 -0.0861  0.2792
  675PSPI   C4A 9446   5.758  13.837   7.331 -0.2267 -0.2776  0.0715
  675PSPI   C1B 9447   5.491  14.109   6.338 -0.1022 -0.0158  0.0917
  675PSPI   C2B 9448   5.360  14.180   6.695  0.0231  0.0256 -0.1835
  675PSPI   C3B 9449   5.292  14.113   7.158  0.1848 -0.0959 -0.0213
  675PSPI   C4B 9450   4.935  14.293   7.206 -0.2404  0.0706 -0.1261
  676PSPI    C1 9451  17.994   3.268   5.029 -0.0490 -0.0085  0.2491
  676PSPI    C2 9452  18.004   2.916   5.218 -0.0135 -0.0332  0.2013
  676PSPI    C3 9453  18.343   3.121   5.160  0.0338 -0.2099 -0.1794
  676PSPI   PO4 9454  17.739   3.397   5.216 -0.2029  0.0023  0.1046
  676PSPI   GL1 9455  17.566   3.191   5.644 -0.0360 -0.0141 -0.1125
  676PSPI   GL2 9456  17.583   2.888   5.635  0.0949 -0.0249 -0.1357
  676PSPI   C1A 9457  17.592   3.155   6.050 -0.0674 -0.1854  0.0216
  676PSPI   C2A 9458  17.425   2.973   6.487  0.2454  0.1182 -0.3702
  676PSPI   C3A 9459  17.322   2.763   6.900 -0.0762 -0.0681  0.2611
  676PSPI   C4A 9460  17.418   2.338   7.018  0.1448 -0.0277 -0.0807
  676PSPI   C1B 9461  17.411   2.693   5.935 -0.1555 -0.3672 -0.3459
  676PSPI   C2B 9462  17.490   2.493   6.352  0.0421  0.3946 -0.3368
  676PSPI   C3B 9463  17.754   2.594   6.723 -0.1624  0.2042 -0.1029
  676PSPI   C4B 9464  17.827   2.588   7.202  0.0049 -0.0414  0.1822
  677PSPI    C1 9465  14.939  17.245   5.177 -0.0939 -0.0817 -0.2182
  677PSPI    C2 9466  15.282  17.424   5.076 -0.0308 -0.2147 -0.2425
  677PSPI    C3 9467  15.239  17.030   5.023 -0.0726 -0.2525  0.0551
  677PSPI   PO4 9468  14.818  17.401   5.445 -0.0718 -0.1520 -0.1466
  677PSPI   GL1 9469  14.958  17.505   5.880 -0.0527 -0.0944 -0.1658
  677PSPI   GL2 9470  15.265  17.418   6.063  0.1192  0.1723  0.1339
  677PSPI   C1A 9471  14.749  17.654   6.202 -0.0428  0.1158  0.0812
  677PSPI   C2A 9472  14.607  17.637   6.580 -0.1705 -0.0251 -0.0527
  677PSPI   C3A 9473  14.692  17.334   6.931  0.0069  0.1674 -0.1054
  677PSPI   C4A 9474  14.806  17.002   7.178 -0.0198 -0.1454  0.2417
  677PSPI   C1B 9475  15.504  17.526   6.445  0.1244 -0.3279 -0.0065
  677PSPI   C2B 9476  15.578  17.567   6.927 -0.1821 -0.2028  0.2217
  677PSPI   C3B 9477  15.442  17.681   7.273  0.1392 -0.0153 -0.0397
  677PSPI   C4B 9478  15.212  17.667   7.654  0.4207  0.0579  0.0709
  678PSPI    C1 9479   6.783  15.652   5.280  0.0086 -0.1420 -0.0341
  678PSPI    C2 9480   7.172  15.721   5.214 -0.0123  0.1242  0.1063
  678PSPI    C3 9481   6.941  15.576   4.921  0.2081 -0.1101  0.0456
  678PSPI   PO4 9482   6.689  15.519   5.618 -0.0046  0.1871  0.0437
  678PSPI   GL1 9483   6.728  15.502   5.985 -0.2769 -0.0887  0.0418
  678PSPI   GL2 9484   6.711  15.189   6.044 -0.2843  0.0169  0.0509
  678PSPI   C1A 9485   6.787  15.500   6.423  0.0455 -0.2725 -0.2299
  678PSPI   C2A 9486   6.822  15.510   6.840  0.0157 -0.0757 -0.0966
  678PSPI   C3A 9487   7.010  15.276   7.137  0.1330 -0.3301  0.2424
  678PSPI   C4A 9488   7.122  15.543   7.442  0.2518 -0.0476  0.0525
  678PSPI   C1B 9489   6.835  14.853   6.365  0.2019 -0.0052  0.1629
  678PSPI   C2B 9490   6.982  14.513   6.629  0.0951  0.1242 -0.0009
  678PSPI   C3B 9491   7.332  14.433   6.770 -0.4505 -0.1368 -0.0571
  678PSPI   C4B 9492   7.680  14.422   6.545  0.2204  0.0948  0.3450
  679PSPI    C1 9493   7.407   2.602   5.720 -0.1331 -0.4652  0.0704
  679PSPI    C2 9494   7.608   2.458   5.405  0.3405 -0.1183  0.2013
  679PSPI    C3 9495   7.367   2.774   5.361  0.4218 -0.0577  0.1900
  679PSPI   PO4 9496   7.630   2.592   5.923  0.1900 -0.1804  0.0090
  679PSPI   GL1 9497   7.893   2.360   6.273 -0.0637  0.1452 -0.1694
  679PSPI   GL2 9498   7.609   2.260   6.286 -0.0211 -0.1394  0.1819
  679PSPI   C1A 9499   7.957   2.146   6.665 -0.0659  0.1592  0.0012
  679PSPI   C2A 9500   8.312   2.003   6.934  0.1845  0.0059 -0.1310
  679PSPI   C3A 9501   8.464   1.816   7.245 -0.3475  0.1565 -0.2295
  679PSPI   C4A 9502   8.856   1.713   7.503 -0.1249  0.1687  0.0479
  679PSPI   C1B 9503   7.487   2.077   6.568  0.2673  0.1144  0.0511
  679PSPI   C2B 9504   7.191   1.885   6.865  0.0338 -0.2729  0.1440
  679PSPI   C3B 9505   6.809   2.070   7.076  0.1602 -0.1979  0.1099
  679PSPI   C4B 9506   6.724   2.012   7.459 -0.1651  0.2291  0.1798
  680PSPI    C1 9507   9.656  16.157   5.375 -0.3130  0.1309 -0.1733
  680PSPI    C2 9508   9.614  15.763   5.321 -0.1891  0.0667  0.1739
  680PSPI    C3 9509   9.712  15.997   5.012 -0.0860 -0.1986  0.0013
  680PSPI   PO4 9510   9.703  16.128   5.765  0.0675  0.0110 -0.0715
  680PSPI   GL1 9511   9.798  15.876   6.165 -0.1190  0.0084  0.1647
  680PSPI   GL2 9512  10.161  15.806   6.149 -0.0167  0.3947  0.1106
  680PSPI   C1A 9513   9.903  16.034   6.602  0.0860 -0.0479 -0.0319
  680PSPI   C2A 9514   9.847  15.979   7.135  0.1150  0.0266  0.0333
  680PSPI   C3A 9515   9.662  16.231   7.494 -0.0228 -0.1714  0.1431
  680PSPI   C4A 9516   9.699  16.656   7.875  0.1775  0.1113 -0.2242
  680PSPI   C1B 9517  10.344  15.707   6.582 -0.1529  0.0360  0.2211
  680PSPI   C2B 9518  10.355  15.890   7.076  0.2261  0.3036 -0.1138
  680PSPI   C3B 9519  10.656  16.046   7.375  0.1131  0.2126  0.0233
  680PSPI   C4B 9520  10.784  15.821   7.665 -0.0767 -0.0468  0.2335
  681PSPI    C1 9521   3.784   1.128   5.680  0.0729 -0.1226 -0.0112
  681PSPI    C2 9522   4.026   0.839   5.546  0.0133 -0.1157 -0.1353
  681PSPI    C3 9523   4.180   1.165   5.720  0.0738 -0.2983  0.1617
  681PSPI   PO4 9524   3.600   1.074   5.849  0.0142 -0.1591 -0.1191
  681PSPI   GL1 9525   3.390   0.985   6.155  0.0404 -0.1002 -0.1888
  681PSPI   GL2 9526   3.169   0.742   6.243 -0.0916 -0.3363 -0.3732
  681PSPI   C1A 9527   3.363   0.997   6.686 -0.0098 -0.1087  0.0387
  681PSPI   C2A 9528   3.155   1.037   7.081 -0.0162 -0.1117  0.0675
  681PSPI   C3A 9529   2.796   1.058   7.294 -0.0251 -0.0815 -0.1025
  681PSPI   C4A 9530   2.420   1.014   6.992 -0.0307 -0.1429 -0.1866
  681PSPI   C1B 9531   2.986   0.680   6.640  0.2253  0.0265 -0.0332
  681PSPI   C2B 9532   2.782   0.676   6.985  0.0507  0.0641 -0.0716
  681PSPI   C3B 9533   2.577   0.295   7.192  0.1426  0.1086 -0.1511
  681PSPI   C4B 9534   2.363  -0.027   7.326 -0.0135 -0.0498  0.0120
  682PSPI    C1 9535  16.683   9.032   5.477  0.0351 -0.1686 -0.1312
  682PSPI    C2 9536  16.384   9.271   5.359 -0.1014 -0.1245  0.2890
  682PSPI    C3 9537  16.696   9.207   5.117 -0.1469  0.3367  0.0980
  682PSPI   PO4 9538  16.647   9.087   5.736 -0.0593  0.0279  0.1635
  682PSPI   GL1 9539  16.610   9.090   6.147  0.2200  0.4543  0.1627
  682PSPI   GL2 9540  16.297   8.871   6.021 -0.0834 -0.1475  0.0339
  682PSPI   C1A 9541  16.666   9.148   6.589 -0.2078  0.2527 -0.1679
  682PSPI   C2A 9542  16.485   9.126   6.919 -0.0527 -0.0017  0.0279
  682PSPI   C3A 9543  16.705   9.302   7.080 -0.0910  0.1411  0.2407
  682PSPI   C4A 9544  17.144   9.414   7.195  0.0084 -0.3399 -0.2891
  682PSPI   C1B 9545  16.245   8.872   6.426 -0.1956 -0.0273 -0.0883
  682PSPI   C2B 9546  16.159   8.604   6.672  0.2482  0.0967 -0.2001
  682PSPI   C3B 9547  16.167   8.500   7.012 -0.1776  0.2228 -0.1960
  682PSPI   C4B 9548  16.067   8.333   7.298  0.2482  0.0964  0.3476
  683PSPI    C1 9549   5.391  14.562   5.607  0.0225 -0.1204 -0.0506
  683PSPI    C2 9550   5.557  14.858   5.396  0.0720 -0.1193 -0.0100
  683PSPI    C3 9551   5.270  14.634   5.232  0.0266 -0.0417 -0.0371
  683PSPI   PO4 9552   5.360  14.610   5.840  0.1699  0.1178  0.0263
  683PSPI   GL1 9553   5.407  14.897   6.146 -0.0464  0.2661  0.4209
  683PSPI   GL2 9554   5.680  14.894   6.376  0.1866 -0.1288  0.3317
  683PSPI   C1A 9555   5.173  14.664   6.499 -0.2354  0.0964 -0.2495
  683PSPI   C2A 9556   5.100  14.695   6.832 -0.2581 -0.0673  0.2418
  683PSPI   C3A 9557   4.941  14.858   7.140  0.0394 -0.1620  0.4431
  683PSPI   C4A 9558   4.851  15.020   7.529 -0.4275  0.2816 -0.1519
  683PSPI   C1B 9559   5.869  15.048   6.772 -0.0715 -0.1940 -0.1721
  683PSPI   C2B 9560   5.641  14.801   6.978  0.2221 -0.1816 -0.1839
  683PSPI   C3B 9561   5.386  14.567   7.214  0.0506  0.0390 -0.0881
  683PSPI   C4B 9562   5.178  14.576   7.559 -0.4427 -0.0893 -0.0155
  684PSPI    C1 9563  10.032   6.360   5.679  0.0264 -0.1341  0.0948
  684PSPI    C2 9564  10.015   6.164   5.330  0.0543 -0.1376  0.0954
  684PSPI    C3 9565   9.703   6.154   5.580  0.0788 -0.2320  0.1225
  684PSPI   PO4 9566  10.305   6.506   5.602  0.1525  0.2022 -0.0418
  684PSPI   GL1 9567  10.436   6.820   5.851 -0.1745 -0.4437 -0.1503
  684PSPI   GL2 9568  10.711   7.060   5.923 -0.0452 -0.3278 -0.0921
  684PSPI   C1A 9569  10.034   6.856   6.024 -0.1195 -0.0805  0.4994
  684PSPI   C2A 9570   9.982   6.917   6.433  0.1093  0.0162 -0.0821
  684PSPI   C3A 9571   9.919   6.960   6.895  0.0797 -0.1917 -0.1274
  684PSPI   C4A 9572   9.760   6.924   7.312  0.0631 -0.2375  0.2028
  684PSPI   C1B 9573  10.911   6.826   6.260 -0.2568 -0.0325  0.1609
  684PSPI   C2B 9574  10.934   6.833   6.673 -0.1507  0.1959 -0.1804
  684PSPI   C3B 9575  10.869   6.754   7.097  0.3223 -0.1884 -0.0197
  684PSPI   C4B 9576  10.562   6.728   7.455 -0.2336 -0.0612  0.0601
  685PSPI    C1 9577   8.679   7.283   5.617 -0.1833  0.0835  0.0286
  685PSPI    C2 9578   8.699   6.923   5.791  0.1481  0.0903  0.0103
  685PSPI    C3 9579   8.485   6.972   5.457  0.2780 -0.1423 -0.1092
  685PSPI   PO4 9580   8.849   7.335   5.546  0.0623  0.0423  0.0422
  685PSPI   GL1 9581   9.103   7.377   5.974  0.2413 -0.3895  0.0180
  685PSPI   GL2 9582   8.928   7.641   6.002 -0.0651  0.0026 -0.2471
  685PSPI   C1A 9583   9.078   7.386   6.438  0.0749 -0.0897  0.1882
  685PSPI   C2A 9584   9.105   7.415   6.859 -0.1041 -0.1357 -0.2387
  685PSPI   C3A 9585   8.942   7.432   7.253  0.0652 -0.0080  0.2178
  685PSPI   C4A 9586   8.742   7.061   7.482  0.0632 -0.2050  0.2341
  685PSPI   C1B 9587   8.960   7.871   6.431 -0.1046  0.0063  0.0916
  685PSPI   C2B 9588   9.075   7.953   6.751 -0.5774  0.1484 -0.3392
  685PSPI   C3B 9589   9.199   7.854   7.110 -0.0195 -0.2090  0.0982
  685PSPI   C4B 9590   9.611   7.853   7.314  0.1389  0.4010 -0.2448
  686PSPI    C1 9591   0.828   5.079   5.401 -0.0603 -0.1571  0.2313
  686PSPI    C2 9592   0.588   4.844   5.618 -0.0852 -0.2716  0.0816
  686PSPI    C3 9593   0.549   4.857   5.221 -0.2729  0.2024  0.1097
  686PSPI   PO4 9594   1.015   5.104   5.582 -0.3728  0.0599 -0.2797
  686PSPI   GL1 9595   0.944   5.154   6.063  0.0247 -0.1039  0.0211
  686PSPI   GL2 9596   0.705   4.897   6.084  0.1296 -0.2106  0.2579
  686PSPI   C1A 9597   1.375   5.256   6.179  0.1779 -0.0063  0.1152
  686PSPI   C2A 9598   1.692   5.223   6.465  0.0709  0.0585  0.0968
  686PSPI   C3A 9599   1.556   5.285   6.928  0.3112 -0.1264  0.1182
  686PSPI   C4A 9600   1.434   5.473   7.376 -0.0486  0.2129  0.4262
  686PSPI   C1B 9601   0.582   4.672   6.438  0.1333 -0.3403 -0.2260
  686PSPI   C2B 9602   0.439   4.677   6.831  0.1533 -0.2376  0.1035
  686PSPI   C3B 9603   0.316   4.521   7.348 -0.0170 -0.1825  0.2286
  686PSPI   C4B 9604   0.053   4.261   7.637  0.1399  0.0121  0.1603
  687PSPI    C1 9605   4.541  18.202   5.603 -0.1535  0.2120  0.1202
  687PSPI    C2 9606   4.146  18.259   5.630 -0.2199 -0.0761 -0.1880
  687PSPI    C3 9607   4.326  18.271   5.273  0.0237 -0.1153 -0.0682
  687PSPI   PO4 9608   4.602  18.077   5.729 -0.1884 -0.2210  0.0199
  687PSPI   GL1 9609   4.802  18.166   6.162  0.3248  0.4266  0.0965
  687PSPI   GL2 9610   4.803  17.946   6.388  0.4540 -0.0868  0.1220
  687PSPI   C1A 9611   5.184  18.226   6.565 -0.1958 -0.1047  0.1946
  687PSPI   C2A 9612   5.156  18.046   7.008  0.0988 -0.2600 -0.0889
  687PSPI   C3A 9613   5.011  18.299   7.286 -0.1188 -0.1385 -0.2046
  687PSPI   C4A 9614   5.150  18.674   7.518  0.5957 -0.1034 -0.0644
  687PSPI   C1B 9615   4.720  17.729   6.726  0.0825 -0.1790 -0.2614
  687PSPI   C2B 9616   4.685  17.574   7.158 -0.0280  0.1388  0.1839
  687PSPI   C3B 9617   4.919  17.805   7.344  0.3298  0.1683 -0.0634
  687PSPI   C4B 9618   4.872  17.968   7.715 -0.3075  0.0075  0.2008
  688PSPI    C1 9619  12.614   0.012   5.474  0.3339 -0.0758 -0.1649
  688PSPI    C2 9620  12.345  -0.274   5.399  0.1687  0.0239  0.0413
  688PSPI    C3 9621  12.251   0.110   5.338  0.3541  0.0423 -0.1349
  688PSPI   PO4 9622  12.698  -0.037   5.727 -0.1744  0.0634 -0.1043
  688PSPI   GL1 9623  12.717  -0.252   6.159  0.0934 -0.0618 -0.1098
  688PSPI   GL2 9624  12.352  -0.238   6.121 -0.1602  0.2199 -0.2149
  688PSPI   C1A 9625  12.989  -0.270   6.464 -0.0452 -0.0754 -0.4212
  688PSPI   C2A 9626  13.213  -0.393   6.895 -0.0243  0.2344 -0.0452
  688PSPI   C3A 9627  13.335  -0.750   7.174  0.1742 -0.1959  0.0847
  688PSPI   C4A 9628  13.027  -1.012   7.340  0.1351 -0.0885 -0.2574
  688PSPI   C1B 9629  12.414  -0.205   6.576  0.2054  0.1073 -0.3716
  688PSPI   C2B 9630  12.746  -0.300   6.879  0.3145 -0.5372  0.3175
  688PSPI   C3B 9631  12.758  -0.332   7.324 -0.0013  0.5515 -0.0940
  688PSPI   C4B 9632  12.518  -0.321   7.586 -0.1912  0.1878 -0.2160
  689PSPI    C1 9633   8.285   1.521   5.797 -0.0798 -0.2016  0.2123
  689PSPI    C2 9634   8.349   1.128   5.828 -0.0382 -0.2080  0.0532
  689PSPI    C3 9635   8.098   1.268   5.550  0.1110 -0.1076 -0.0325
  689PSPI   PO4 9636   8.437   1.603   5.996 -0.0665  0.2253  0.1117
  689PSPI   GL1 9637   8.683   1.302   6.293  0.1639  0.0930  0.2558
  689PSPI   GL2 9638   8.948   1.110   6.238 -0.0274  0.1495 -0.0742
  689PSPI   C1A 9639   8.404   1.330   6.727 -0.0672  0.3167 -0.2330
  689PSPI   C2A 9640   8.213   1.257   7.229  0.1141  0.2273 -0.0018
  689PSPI   C3A 9641   8.048   1.237   7.656  0.1400  0.1547 -0.0312
  689PSPI   C4A 9642   7.869   1.163   8.126  0.0657 -0.0419 -0.1774
  689PSPI   C1B 9643   8.788   0.989   6.602  0.2021  0.3864  0.0514
  689PSPI   C2B 9644   8.596   0.840   7.065 -0.2816  0.0867  0.0199
  689PSPI   C3B 9645   8.622   0.488   7.234  0.0980  0.2484  0.0125
  689PSPI   C4B 9646   8.777   0.252   7.527  0.1433 -0.0899  0.0924
  690PSPI    C1 9647  18.248  13.168   5.563  0.0001 -0.2054  0.0024
  690PSPI    C2 9648  18.487  13.273   5.260 -0.1262  0.0483 -0.0120
  690PSPI    C3 9649  18.609  13.323   5.638 -0.0929  0.0262 -0.0197
  690PSPI   PO4 9650  18.014  13.392   5.509  0.0212 -0.3223 -0.1731
  690PSPI   GL1 9651  17.910  13.538   5.911  0.0003 -0.2222 -0.1602
  690PSPI   GL2 9652  17.567  13.434   5.747  0.1810 -0.1204  0.0967
  690PSPI   C1A 9653  17.972  13.738   6.240 -0.1536  0.1683  0.0572
  690PSPI   C2A 9654  17.946  13.580   6.604  0.5543 -0.2441 -0.1889
  690PSPI   C3A 9655  17.840  13.584   7.056 -0.1388 -0.1214  0.0142
  690PSPI   C4A 9656  17.738  13.496   7.464 -0.1186 -0.0455 -0.1697
  690PSPI   C1B 9657  17.581  13.239   6.138  0.0377 -0.1575 -0.0851
  690PSPI   C2B 9658  17.888  13.088   6.466 -0.1588 -0.1792  0.0098
  690PSPI   C3B 9659  17.914  13.174   6.868 -0.2502 -0.4451  0.0116
  690PSPI   C4B 9660  17.902  13.110   7.223  0.0595 -0.0010  0.0366
  691PSPI    C1 9661   8.681   9.900   5.139  0.2778  0.1553  0.3828
  691PSPI    C2 9662   8.767   9.940   4.751 -0.2905 -0.4626  0.1722
  691PSPI    C3 9663   8.754  10.262   4.988  0.0412 -0.0730 -0.3177
  691PSPI   PO4 9664   8.830   9.669   5.169 -0.2401 -0.0816 -0.1305
  691PSPI   GL1 9665   9.178   9.471   5.506 -0.3258 -0.1621 -0.0152
  691PSPI   GL2 9666   9.405   9.474   5.722 -0.0701  0.0861  0.3564
  691PSPI   C1A 9667   8.954   9.357   5.806 -0.2234  0.0850  0.3194
  691PSPI   C2A 9668   8.881   9.212   6.227  0.4462 -0.1078  0.0020
  691PSPI   C3A 9669   8.676   8.900   6.298  0.0076 -0.0519  0.1477
  691PSPI   C4A 9670   8.421   8.824   6.596 -0.1116  0.1136 -0.0329
  691PSPI   C1B 9671   9.302   9.123   6.047  0.1111 -0.1980  0.4917
  691PSPI   C2B 9672   9.343   9.266   6.501  0.2390 -0.1379 -0.0315
  691PSPI   C3B 9673   9.368   9.213   6.921  0.1527 -0.2161  0.1053
  691PSPI   C4B 9674   9.307   9.092   7.352 -0.1999 -0.1408  0.0379
  692PSPI    C1 9675   1.340   4.776   5.303 -0.0123  0.1002 -0.0197
  692PSPI    C2 9676   1.418   4.549   4.984  0.1023  0.1186 -0.0052
  692PSPI    C3 9677   1.054   4.543   5.149  0.0925 -0.0225 -0.0304
  692PSPI   PO4 9678   1.559   4.653   5.484 -0.2052 -0.1255  0.0522
  692PSPI   GL1 9679   1.858   4.608   5.888  0.0487 -0.3073 -0.2234
  692PSPI   GL2 9680   1.714   4.887   6.114  0.0040  0.1665  0.0099
  692PSPI   C1A 9681   2.036   4.372   6.258  0.4053  0.4993  0.1143
  692PSPI   C2A 9682   1.851   4.300   6.674 -0.0174  0.2847  0.1265
  692PSPI   C3A 9683   2.125   4.300   7.013  0.0348 -0.0183  0.2179
  692PSPI   C4A 9684   2.174   4.691   7.211  0.1965 -0.0890  0.0653
  692PSPI   C1B 9685   1.709   4.725   6.509  0.1743 -0.0573  0.0654
  692PSPI   C2B 9686   1.369   4.774   6.813  0.2904  0.5213 -0.0443
  692PSPI   C3B 9687   1.188   4.932   7.199 -0.0106 -0.2378  0.2533
  692PSPI   C4B 9688   1.243   5.041   7.648 -0.0938 -0.0512 -0.0810
  693PSPI    C1 9689  14.273   0.608   5.264 -0.0112  0.2672 -0.0820
  693PSPI    C2 9690  14.622   0.804   5.263 -0.0202  0.2834 -0.0475
  693PSPI    C3 9691  14.353   0.873   4.975  0.0120  0.2585 -0.0836
  693PSPI   PO4 9692  14.381   0.337   5.419  0.0141  0.0703 -0.1432
  693PSPI   GL1 9693  14.435   0.450   5.873 -0.0156  0.0605  0.0675
  693PSPI   GL2 9694  14.183   0.253   5.957 -0.0732  0.1535  0.1279
  693PSPI   C1A 9695  14.492   0.239   6.301  0.0520  0.0877  0.2539
  693PSPI   C2A 9696  14.515   0.266   6.710 -0.0145 -0.3649 -0.4013
  693PSPI   C3A 9697  14.575   0.591   7.105  0.0840 -0.0368 -0.0309
  693PSPI   C4A 9698  14.344   0.567   7.487 -0.4349 -0.2843  0.0793
  693PSPI   C1B 9699  13.905   0.116   6.318 -0.2704 -0.1145 -0.0550
  693PSPI   C2B 9700  13.907   0.012   6.806  0.0072  0.1247 -0.0323
  693PSPI   C3B 9701  13.909  -0.012   7.229  0.0259 -0.0729  0.0094
  693PSPI   C4B 9702  14.161   0.103   7.677 -0.1205  0.2760 -0.2554
  694PSPI    C1 9703   1.994   9.940   5.359  0.1271 -0.2210 -0.0820
  694PSPI    C2 9704   1.777  10.255   5.241 -0.0452 -0.2822  0.0667
  694PSPI    C3 9705   1.922   9.999   4.970  0.1585 -0.0364 -0.0609
  694PSPI   PO4 9706   2.042  10.062   5.632 -0.1055  0.1840  0.3481
  694PSPI   GL1 9707   2.068  10.177   6.011  0.3430  0.0410 -0.2529
  694PSPI   GL2 9708   2.012  10.391   6.137 -0.2958  0.1233  0.0391
  694PSPI   C1A 9709   1.870  10.176   6.505 -0.1882  0.1065  0.1700
  694PSPI   C2A 9710   1.984  10.049   6.955  0.0137 -0.2040 -0.3081
  694PSPI   C3A 9711   2.195  10.055   7.276  0.3026 -0.0257 -0.1674
  694PSPI   C4A 9712   2.722  10.087   7.237 -0.2949  0.0731  0.4364
  694PSPI   C1B 9713   2.298  10.648   6.432  0.3301 -0.0874  0.0535
  694PSPI   C2B 9714   2.258  10.816   6.803  0.3472 -0.2222  0.0388
  694PSPI   C3B 9715   2.169  11.032   7.157 -0.0119 -0.1446  0.0270
  694PSPI   C4B 9716   1.969  10.908   7.432 -0.0603  0.0059 -0.1905
  695POPI    C1 9717   2.268   1.239   5.184 -0.1182  0.1619 -0.2638
  695POPI    C2 9718   2.461   0.896   5.108 -0.1812  0.0140  0.2079
  695POPI    C3 9719   2.192   1.037   4.847 -0.0419 -0.2113 -0.0629
  695POPI   PO4 9720   2.228   1.205   5.468 -0.0216 -0.1340  0.2067
  695POPI   GL1 9721   1.809   1.126   5.763 -0.0950 -0.0776 -0.0839
  695POPI   GL2 9722   1.878   1.530   5.762  0.2294  0.3167  0.1271
  695POPI   C1A 9723   1.434   1.072   5.976 -0.1154  0.2065  0.0363
  695POPI   D2A 9724   1.112   1.333   6.135 -0.0247  0.1475  0.3150
  695POPI   C3A 9725   1.067   1.646   6.543  0.1994  0.0420  0.4701
  695POPI   C4A 9726   1.000   2.043   6.512 -0.0694  0.2236  0.0933
  695POPI   C1B 9727   1.584   1.559   6.226  0.3093  0.1115 -0.0035
  695POPI   C2B 9728   1.396   1.264   6.497  0.2157 -0.0393  0.0269
  695POPI   C3B 9729   1.215   1.308   6.846  0.4104  0.0085  0.3833
  695POPI   C4B 9730   0.949   1.022   7.061 -0.0591  0.1460  0.0036
  696POPI    C1 9731  15.610   3.520   4.842 -0.1780  0.0374 -0.1263
  696POPI    C2 9732  15.456   3.196   4.664  0.0773 -0.0465 -0.1986
  696POPI    C3 9733  15.852   3.251   4.672  0.0578  0.0671  0.1550
  696POPI   PO4 9734  15.471   3.546   5.089  0.4520  0.1448  0.0971
  696POPI   GL1 9735  15.346   3.358   5.503 -0.3646  0.0016 -0.4869
  696POPI   GL2 9736  15.265   3.694   5.500  0.0592  0.1897  0.3945
  696POPI   C1A 9737  15.422   3.491   5.947 -0.0906 -0.3544  0.0473
  696POPI   D2A 9738  15.258   3.712   6.200  0.3883  0.1214 -0.0285
  696POPI   C3A 9739  15.351   3.659   6.611  0.0048  0.1752  0.1156
  696POPI   C4A 9740  14.976   3.467   6.890 -0.2021  0.3213 -0.2571
  696POPI   C1B 9741  14.928   3.601   5.821 -0.0662 -0.2373 -0.2702
  696POPI   C2B 9742  14.775   3.666   6.211  0.1142 -0.0067 -0.3921
  696POPI   C3B 9743  14.711   3.797   6.627  0.2456  0.0832  0.0440
  696POPI   C4B 9744  14.693   4.082   6.939  0.2563 -0.0200  0.2602
  697POPI    C1 9745   7.772   5.345   5.449 -0.3032 -0.0837 -0.0329
  697POPI    C2 9746   7.943   4.984   5.455  0.1496  0.1251  0.0745
  697POPI    C3 9747   7.993   5.222   5.139 -0.0193  0.1553  0.0698
  697POPI   PO4 9748   7.644   5.255   5.782 -0.0631  0.0491 -0.0960
  697POPI   GL1 9749   7.563   5.556   6.197 -0.0681  0.0449  0.1063
  697POPI   GL2 9750   7.758   5.793   6.349 -0.2396  0.2287  0.0204
  697POPI   C1A 9751   7.464   5.237   6.492 -0.3006  0.1345  0.2306
  697POPI   D2A 9752   7.254   4.850   6.757 -0.2247  0.1101  0.1415
  697POPI   C3A 9753   7.005   5.125   6.999 -0.4025  0.4332  0.2305
  697POPI   C4A 9754   7.021   5.381   7.351  0.0492  0.2259 -0.4996
  697POPI   C1B 9755   7.528   5.846   6.739 -0.2217 -0.0778  0.1166
  697POPI   C2B 9756   7.310   5.554   6.996  0.0064 -0.1024 -0.2162
  697POPI   C3B 9757   7.595   5.352   7.283  0.0482  0.5259 -0.0238
  697POPI   C4B 9758   7.658   5.047   7.588  0.2427  0.1860  0.0575
  698POPI    C1 9759   5.173   7.831   5.307 -0.1323 -0.0783 -0.0768
  698POPI    C2 9760   4.836   8.014   5.192  0.0231  0.3405  0.1147
  698POPI    C3 9761   5.191   8.144   5.059  0.1300  0.0889  0.1476
  698POPI   PO4 9762   5.258   7.823   5.519  0.0863 -0.0183 -0.0453
  698POPI   GL1 9763   5.201   7.685   5.959  0.0661  0.1015 -0.1124
  698POPI   GL2 9764   5.023   7.352   6.093  0.1748 -0.0555  0.1041
  698POPI   C1A 9765   5.470   7.293   6.321 -0.2197 -0.3673 -0.0077
  698POPI   D2A 9766   5.519   6.850   6.610  0.3614 -0.1632 -0.0939
  698POPI   C3A 9767   5.175   6.644   6.741  0.2561  0.0135 -0.0514
  698POPI   C4A 9768   4.983   6.626   7.138 -0.0052  0.3054  0.1658
  698POPI   C1B 9769   4.963   7.070   6.492 -0.3128  0.0113 -0.2211
  698POPI   C2B 9770   4.630   7.017   6.853 -0.1685 -0.4085  0.1469
  698POPI   C3B 9771   4.420   6.833   7.167 -0.2086 -0.5402  0.4154
  698POPI   C4B 9772   4.063   6.510   7.383 -0.3018 -0.3412 -0.1243
  699POPI    C1 9773   7.270   5.580   5.471  0.0217 -0.0337 -0.3348
  699POPI    C2 9774   7.243   5.968   5.378  0.0384 -0.0218 -0.2901
  699POPI    C3 9775   7.557   5.754   5.254  0.0163 -0.0274 -0.3369
  699POPI   PO4 9776   6.933   5.597   5.628  0.1746  0.0564 -0.1988
  699POPI   GL1 9777   6.874   5.662   6.048 -0.2375 -0.0175  0.0862
  699POPI   GL2 9778   7.259   5.851   5.953  0.2312 -0.0964  0.1430
  699POPI   C1A 9779   6.765   5.377   6.488 -0.1610  0.0137 -0.4005
  699POPI   D2A 9780   6.562   5.438   6.918 -0.4495  0.2859  0.0220
  699POPI   C3A 9781   6.411   5.818   7.117 -0.0302 -0.0971 -0.0515
  699POPI   C4A 9782   6.259   6.109   7.488 -0.0512  0.0046 -0.1717
  699POPI   C1B 9783   7.173   5.771   6.412 -0.0075 -0.0635  0.2106
  699POPI   C2B 9784   7.037   5.809   6.697 -0.0506 -0.1603 -0.1519
  699POPI   C3B 9785   6.989   5.963   7.102 -0.0654  0.0588  0.2040
  699POPI   C4B 9786   6.816   6.103   7.462 -0.1140  0.0753 -0.1712
  700POPI    C1 9787  12.218   4.924   5.370  0.1907  0.1959 -0.1891
  700POPI    C2 9788  12.402   4.682   5.109 -0.1216 -0.0184 -0.2163
  700POPI    C3 9789  12.034   4.816   5.032 -0.1949 -0.0364  0.0876
  700POPI   PO4 9790  12.229   4.887   5.587 -0.1824 -0.0166 -0.0792
  700POPI   GL1 9791  12.419   4.804   6.011 -0.2226 -0.0607 -0.2564
  700POPI   GL2 9792  12.159   4.879   6.071  0.0264  0.1945  0.0698
  700POPI   C1A 9793  12.697   4.881   6.453  0.1930  0.0406  0.3536
  700POPI   D2A 9794  12.807   4.809   6.946 -0.1340 -0.2125  0.1218
  700POPI   C3A 9795  12.519   4.595   7.258  0.3656  0.1692 -0.1707
  700POPI   C4A 9796  12.461   4.866   7.631  0.3017  0.0406  0.0681
  700POPI   C1B 9797  12.069   4.701   6.516 -0.1316 -0.0649 -0.0329
  700POPI   C2B 9798  12.022   4.649   6.958 -0.0710 -0.2125  0.0912
  700POPI   C3B 9799  12.035   4.537   7.379 -0.0666  0.1399 -0.1218
  700POPI   C4B 9800  12.096   4.705   7.899 -0.1971 -0.2282  0.0192
  701POPI    C1 9801   3.160  15.600   5.185 -0.0029 -0.1478  0.0103
  701POPI    C2 9802   3.058  15.761   4.833  0.1236  0.0398  0.0576
  701POPI    C3 9803   3.149  15.372   4.857  0.0132  0.0036 -0.0968
  701POPI   PO4 9804   2.986  15.693   5.368 -0.1082  0.0059 -0.1173
  701POPI   GL1 9805   3.026  15.617   5.792  0.2380 -0.0873 -0.0660
  701POPI   GL2 9806   2.838  15.798   5.847  0.1184 -0.1476  0.0059
  701POPI   C1A 9807   3.186  15.390   6.131  0.2515 -0.2684  0.2256
  701POPI   D2A 9808   3.073  15.561   6.687 -0.2084  0.1267 -0.3551
  701POPI   C3A 9809   2.771  15.619   6.997  0.3916 -0.0105  0.0358
  701POPI   C4A 9810   2.450  15.678   7.339 -0.1511  0.0393  0.2057
  701POPI   C1B 9811   2.436  15.665   6.038  0.0734 -0.1818 -0.4740
  701POPI   C2B 9812   2.177  15.378   5.914 -0.2373  0.0678 -0.1100
  701POPI   C3B 9813   1.997  14.980   5.976  0.2457  0.0021  0.1366
  701POPI   C4B 9814   1.890  14.603   6.260 -0.2339  0.1738 -0.0742
  702POPI    C1 9815   9.421  16.799   5.358 -0.1263  0.0872  0.1984
  702POPI    C2 9816   9.092  16.840   5.133  0.1873  0.1875 -0.2559
  702POPI    C3 9817   9.262  17.161   5.301 -0.0390  0.1145  0.1248
  702POPI   PO4 9818   9.348  16.623   5.625  0.1694  0.0623  0.1007
  702POPI   GL1 9819   9.473  16.720   6.034 -0.0029  0.0389  0.2749
  702POPI   GL2 9820   9.477  16.392   6.121  0.0951 -0.3029  0.0032
  702POPI   C1A 9821   9.395  16.998   6.504 -0.0956 -0.1369 -0.1104
  702POPI   D2A 9822   9.625  16.973   6.932 -0.0976 -0.1650 -0.0654
  702POPI   C3A 9823   9.509  16.619   7.192  0.3386 -0.4676 -0.0033
  702POPI   C4A 9824   9.261  16.538   7.567 -0.1890 -0.0773 -0.1737
  702POPI   C1B 9825   9.443  16.143   6.455 -0.2082 -0.1708  0.2967
  702POPI   C2B 9826   9.451  16.175   6.889  0.0097 -0.1172 -0.0237
  702POPI   C3B 9827   9.250  16.009   7.293 -0.1769 -0.2189 -0.4089
  702POPI   C4B 9828   9.049  15.705   7.604  0.0552  0.1359  0.0661
  703POPI    C1 9829   6.085  14.846   5.242 -0.0485  0.0349  0.2531
  703POPI    C2 9830   5.791  14.697   5.016 -0.0107  0.4075 -0.0515
  703POPI    C3 9831   6.149  14.520   5.019 -0.1677  0.0844  0.1452
  703POPI   PO4 9832   6.059  14.898   5.589 -0.2735  0.1597  0.0322
  703POPI   GL1 9833   6.301  14.709   5.992  0.1062 -0.0898 -0.0656
  703POPI   GL2 9834   6.633  14.688   5.915 -0.2304  0.0989  0.0259
  703POPI   C1A 9835   6.087  14.615   6.366 -0.1074  0.1345  0.4839
  703POPI   D2A 9836   5.840  14.479   6.577  0.3274  0.0485  0.0854
  703POPI   C3A 9837   5.782  14.263   6.999 -0.2263 -0.0045  0.2230
  703POPI   C4A 9838   6.031  14.315   7.473  0.1890  0.2317  0.0297
  703POPI   C1B 9839   6.552  14.422   6.405 -0.1062 -0.1247 -0.2479
  703POPI   C2B 9840   6.335  14.435   6.808  0.4519 -0.1448  0.1100
  703POPI   C3B 9841   6.113  14.640   7.067  0.2566  0.0833  0.5004
  703POPI   C4B 9842   6.227  15.099   7.253  0.0077  0.0516 -0.0586
  704POPI    C1 9843  17.444   5.007   5.524 -0.1880 -0.0228 -0.1183
  704POPI    C2 9844  17.386   5.135   5.150  0.1756  0.5009 -0.0065
  704POPI    C3 9845  17.130   5.240   5.438 -0.1212  0.0725 -0.1043
  704POPI   PO4 9846  17.621   5.007   5.621 -0.3026  0.1943 -0.3135
  704POPI   GL1 9847  17.768   4.960   5.969 -0.0808  0.2212  0.0587
  704POPI   GL2 9848  18.179   5.005   6.084  0.1624  0.0334  0.0789
  704POPI   C1A 9849  17.495   4.676   6.188 -0.0512 -0.1664 -0.1639
  704POPI   D2A 9850  17.221   4.414   6.439  0.0533  0.0884  0.1077
  704POPI   C3A 9851  17.165   4.524   6.909 -0.2661 -0.1078  0.1029
  704POPI   C4A 9852  16.840   4.833   6.906 -0.3515 -0.1315  0.0159
  704POPI   C1B 9853  17.987   4.684   6.369 -0.0975 -0.2016  0.0051
  704POPI   C2B 9854  18.090   4.473   6.658  0.0040  0.0461 -0.0601
  704POPI   C3B 9855  18.097   4.267   7.006 -0.1695  0.1988  0.0848
  704POPI   C4B 9856  18.147   4.495   7.458 -0.0851 -0.0086  0.2436
  705POPI    C1 9857   2.597   7.292   5.447  0.0127 -0.0123 -0.0833
  705POPI    C2 9858   2.284   7.051   5.512  0.1262 -0.0726  0.2654
  705POPI    C3 9859   2.544   6.968   5.219  0.0611 -0.2697  0.2624
  705POPI   PO4 9860   2.635   7.393   5.719 -0.2473  0.0169  0.2897
  705POPI   GL1 9861   2.819   7.690   5.943  0.3435  0.3468 -0.3019
  705POPI   GL2 9862   3.028   7.894   6.035  0.1696  0.3383 -0.2062
  705POPI   C1A 9863   2.448   7.669   6.305  0.0668 -0.0132 -0.0168
  705POPI   D2A 9864   2.268   7.697   6.701 -0.2436 -0.1027  0.0072
  705POPI   C3A 9865   2.392   7.711   7.043  0.3346 -0.1838  0.1178
  705POPI   C4A 9866   2.579   7.809   7.487 -0.2527  0.0124  0.0296
  705POPI   C1B 9867   3.029   7.398   6.306  0.1458  0.0096  0.0839
  705POPI   C2B 9868   3.151   7.054   6.605 -0.0327 -0.0290 -0.0636
  705POPI   C3B 9869   3.523   7.049   6.792 -0.0089 -0.0789  0.2780
  705POPI   C4B 9870   3.764   7.308   7.002 -0.2759  0.1131  0.0707
  706POPI    C1 9871   9.475   9.924   5.457  0.2086 -0.1160  0.0268
  706POPI    C2 9872   9.526   9.694   5.133 -0.0454 -0.1454  0.0049
  706POPI    C3 9873   9.795   9.976   5.224  0.1220 -0.2607 -0.1271
  706POPI   PO4 9874   9.173   9.979   5.413  0.0541 -0.1133 -0.1324
  706POPI   GL1 9875   9.090  10.064   5.775  0.1479 -0.3477 -0.4010
  706POPI   GL2 9876   9.424  10.044   5.931 -0.0271  0.1351 -0.0965
  706POPI   C1A 9877   9.107  10.284   6.196 -0.3167 -0.2583 -0.2759
  706POPI   D2A 9878   9.484  10.376   6.443  0.7693 -0.1332 -0.0056
  706POPI   C3A 9879   9.511  10.306   6.936  0.1477 -0.2016  0.0715
  706POPI   C4A 9880   9.537  10.113   7.290 -0.1618 -0.0995  0.2376
  706POPI   C1B 9881   9.386   9.838   6.311 -0.1966 -0.1546 -0.0822
  706POPI   C2B 9882   9.469   9.732   6.743 -0.0146  0.0574  0.2360
  706POPI   C3B 9883   9.230   9.841   7.009 -0.0204 -0.0748 -0.0059
  706POPI   C4B 9884   9.048   9.750   7.460  0.1297  0.1450  0.3801
  707POPI    C1 9885  12.119  10.210   5.748 -0.1970 -0.0454  0.0646
  707POPI    C2 9886  12.123  10.063   5.376  0.3052 -0.0380  0.0602
  707POPI    C3 9887  12.376  10.356   5.478 -0.0227  0.1565  0.3338
  707POPI   PO4 9888  11.855  10.257   5.745 -0.0086  0.2196 -0.3749
  707POPI   GL1 9889  11.783  10.479   6.026 -0.0266  0.2754 -0.2345
  707POPI   GL2 9890  11.445  10.269   6.061  0.0464 -0.3342 -0.0465
  707POPI   C1A 9891  11.761  10.346   6.490 -0.3661  0.0715 -0.2453
  707POPI   D2A 9892  11.529  10.542   6.829  0.1872 -0.3651  0.1341
  707POPI   C3A 9893  11.622  10.763   7.121 -0.1431  0.0927 -0.1582
  707POPI   C4A 9894  11.908  11.092   7.213 -0.2540 -0.1443  0.1409
  707POPI   C1B 9895  11.281  10.246   6.501 -0.3457  0.0070  0.1323
  707POPI   C2B 9896  11.297  10.143   6.960 -0.4753  0.1575 -0.2881
  707POPI   C3B 9897  11.110   9.763   7.082  0.1077 -0.0512 -0.1287
  707POPI   C4B 9898  11.038   9.334   7.255 -0.0610  0.0704 -0.2427
  708POPI    C1 9899  18.813   3.995   5.181  0.0998  0.1367 -0.1543
  708POPI    C2 9900  18.567   3.721   5.337  0.2546  0.1126  0.0518
  708POPI    C3 9901  18.418   4.029   5.129  0.0598  0.0324  0.0703
  708POPI   PO4 9902  18.971   4.056   5.402 -0.2453 -0.1630 -0.0812
  708POPI   GL1 9903  19.110   4.010   5.841  0.0523  0.1608  0.0641
  708POPI   GL2 9904  19.473   3.874   6.003  0.0752  0.2146 -0.0888
  708POPI   C1A 9905  18.767   4.064   6.022 -0.0176  0.0216 -0.3795
  708POPI   D2A 9906  18.402   4.057   6.189 -0.1224  0.0968  0.0675
  708POPI   C3A 9907  18.239   3.843   6.651  0.1018  0.1251 -0.0202
  708POPI   C4A 9908  18.250   3.415   6.641  0.0021 -0.2247 -0.0455
  708POPI   C1B 9909  19.189   3.819   6.372  0.1939  0.0837  0.0339
  708POPI   C2B 9910  18.938   4.038   6.654  0.0312 -0.4677 -0.3201
  708POPI   C3B 9911  18.598   4.318   6.557 -0.3674 -0.2555  0.1120
  708POPI   C4B 9912  18.445   4.608   6.306  0.0144  0.2269 -0.0701
  709POPI    C1 9913   9.614   6.513   5.188 -0.0362  0.1107  0.1016
  709POPI    C2 9914   9.991   6.640   5.229 -0.0658  0.3033 -0.1958
  709POPI    C3 9915   9.889   6.414   4.915 -0.1592  0.0961 -0.0185
  709POPI   PO4 9916   9.439   6.733   5.326 -0.2707 -0.1946  0.2648
  709POPI   GL1 9917   9.680   6.945   5.685 -0.1787  0.1297 -0.1449
  709POPI   GL2 9918   9.562   7.144   5.912  0.0225 -0.3845 -0.4533
  709POPI   C1A 9919   9.555   6.669   6.085  0.3501 -0.5255  0.1262
  709POPI   D2A 9920   9.559   6.557   6.538  0.0734 -0.2247  0.0519
  709POPI   C3A 9921   9.514   6.613   6.988  0.2073 -0.2228  0.1089
  709POPI   C4A 9922   9.070   6.525   7.210  0.1318 -0.1750  0.0023
  709POPI   C1B 9923   9.556   7.183   6.301  0.0516 -0.0432  0.4020
  709POPI   C2B 9924   9.521   7.137   6.702 -0.3174 -0.1758  0.0581
  709POPI   C3B 9925   9.596   7.390   7.128  0.6026 -0.1408  0.0763
  709POPI   C4B 9926   9.942   7.449   7.371  0.0569 -0.0282  0.0976
  710POPI    C1 9927   3.904   8.434   5.537  0.0198 -0.1523 -0.0830
  710POPI    C2 9928   3.922   8.813   5.410 -0.4992 -0.1310 -0.1147
  710POPI    C3 9929   3.931   8.513   5.145  0.1853 -0.1621 -0.0743
  710POPI   PO4 9930   3.647   8.484   5.652 -0.3688  0.0909 -0.0220
  710POPI   GL1 9931   3.472   8.251   6.116  0.0648  0.3538 -0.0317
  710POPI   GL2 9932   3.757   8.138   6.260 -0.2336  0.2591  0.0093
  710POPI   C1A 9933   3.494   8.468   6.514 -0.2362 -0.3642 -0.2142
  710POPI   D2A 9934   3.537   8.373   6.921  0.0646  0.2276 -0.0572
  710POPI   C3A 9935   3.369   8.600   7.204 -0.3096  0.0261 -0.3553
  710POPI   C4A 9936   3.485   8.923   7.429 -0.0613 -0.0586  0.0004
  710POPI   C1B 9937   3.769   8.007   6.689  0.0637  0.0263 -0.0761
  710POPI   C2B 9938   3.822   7.817   7.053 -0.0769 -0.1952  0.1430
  710POPI   C3B 9939   3.986   7.653   7.362  0.1165  0.0122  0.2367
  710POPI   C4B 9940   4.048   7.151   7.377 -0.1095 -0.1871  0.0996
  711POPI    C1 9941  17.515  12.687   5.250 -0.1484 -0.0594  0.1289
  711POPI    C2 9942  17.483  12.920   4.926 -0.0594  0.1141  0.2437
  711POPI    C3 9943  17.724  12.602   4.920 -0.0701  0.1078  0.1344
  711POPI   PO4 9944  17.298  12.789   5.399  0.2194  0.1832  0.0723
  711POPI   GL1 9945  17.418  12.869   5.790  0.1988 -0.0769 -0.0211
  711POPI   GL2 9946  17.715  12.884   5.638  0.1241  0.0954 -0.1525
  711POPI   C1A 9947  17.436  12.776   6.264 -0.0775 -0.3599  0.2424
  711POPI   D2A 9948  17.375  13.104   6.609 -0.0354 -0.4929 -0.0524
  711POPI   C3A 9949  16.944  13.049   6.915  0.2100 -0.1062  0.0825
  711POPI   C4A 9950  16.629  12.983   7.263  0.1639 -0.0722  0.1717
  711POPI   C1B 9951  17.980  12.972   5.988 -0.4566  0.0202  0.3605
  711POPI   C2B 9952  18.357  13.207   6.175  0.1704 -0.1523 -0.0529
  711POPI   C3B 9953  18.415  13.060   6.600 -0.0505 -0.0752  0.1636
  711POPI   C4B 9954  18.504  12.740   6.897 -0.0059 -0.0142 -0.0586
  712POPI    C1 9955   9.535  13.754   5.490 -0.1379  0.1341  0.3166
  712POPI    C2 9956   9.195  13.613   5.334  0.0311 -0.1504  0.1985
  712POPI    C3 9957   9.540  13.566   5.137  0.1122  0.3254  0.2152
  712POPI   PO4 9958   9.488  14.020   5.538  0.0582 -0.0539 -0.1524
  712POPI   GL1 9959   9.567  14.123   6.028  0.4215 -0.1529  0.1843
  712POPI   GL2 9960   9.830  13.877   5.863  0.2688  0.3621 -0.1980
  712POPI   C1A 9961   9.564  14.092   6.510 -0.1758 -0.2099  0.2512
  712POPI   D2A 9962   9.749  14.458   6.865 -0.0424 -0.1006 -0.1796
  712POPI   C3A 9963  10.224  14.428   6.981 -0.2243  0.0540  0.0543
  712POPI   C4A 9964  10.619  14.420   6.845 -0.0871 -0.1535 -0.2434
  712POPI   C1B 9965  10.023  13.980   6.168  0.0043  0.1028  0.0307
  712POPI   C2B 9966  10.089  13.961   6.582  0.1020 -0.1635 -0.0345
  712POPI   C3B 9967   9.910  13.974   6.992  0.1338 -0.1509 -0.1139
  712POPI   C4B 9968  10.050  14.162   7.386 -0.0504  0.3794  0.4889
  713POPI    C1 9969  11.300   9.982   5.347 -0.1925  0.4085  0.1266
  713POPI    C2 9970  11.616  10.219   5.280 -0.0684  0.2056 -0.0164
  713POPI    C3 9971  11.326  10.190   5.006 -0.0323  0.1128 -0.0451
  713POPI   PO4 9972  11.233  10.172   5.583  0.1674 -0.0171 -0.0628
  713POPI   GL1 9973  10.919  10.066   5.876 -0.0381 -0.0815 -0.2013
  713POPI   GL2 9974  10.962   9.754   5.788 -0.1796 -0.0949  0.0526
  713POPI   C1A 9975  10.826  10.139   6.273 -0.0718  0.1553  0.0770
  713POPI   D2A 9976  10.893   9.987   6.700 -0.0057 -0.0410  0.0695
  713POPI   C3A 9977  10.568   9.907   7.010 -0.0317  0.2616  0.0309
  713POPI   C4A 9978  10.502  10.236   7.373  0.3827 -0.0853 -0.1096
  713POPI   C1B 9979  11.177   9.772   6.183 -0.2917  0.1192  0.1127
  713POPI   C2B 9980  11.653   9.896   6.308  0.0407  0.4146  0.0791
  713POPI   C3B 9981  11.800   9.833   6.552  0.0723 -0.0478 -0.0011
  713POPI   C4B 9982  12.005   9.746   6.857  0.0540  0.1118  0.0949
  714POPI    C1 9983  10.927  15.606   5.259 -0.0806  0.1101 -0.0572
  714POPI    C2 9984  11.306  15.681   5.152 -0.0005 -0.0238  0.1282
  714POPI    C3 9985  11.004  15.845   4.948  0.1565  0.0433 -0.0520
  714POPI   PO4 9986  10.883  15.657   5.515 -0.2198  0.3575  0.1626
  714POPI   GL1 9987  11.132  15.672   5.900  0.0387 -0.2740  0.0918
  714POPI   GL2 9988  11.341  16.001   5.999  0.0129  0.1198  0.0568
  714POPI   C1A 9989  11.258  15.732   6.375 -0.0299 -0.1038 -0.1962
  714POPI   D2A 9990  11.282  15.604   6.689  0.4137  0.2720 -0.1953
  714POPI   C3A 9991  11.462  15.843   6.929  0.0521  0.1541 -0.1286
  714POPI   C4A 9992  11.535  16.235   7.065  0.0303  0.3306  0.1209
  714POPI   C1B 9993  11.459  16.155   6.527 -0.0711 -0.0305 -0.0371
  714POPI   C2B 9994  11.297  16.504   6.806  0.1386 -0.3336 -0.2642
  714POPI   C3B 9995  11.128  16.857   7.011  0.0438 -0.2936  0.0312
  714POPI   C4B 9996  11.261  17.022   7.382  0.1004  0.0963  0.1926
  715POPI    C1 9997   4.968   1.050   5.720 -0.1395  0.3069  0.3122
  715POPI    C2 9998   4.635   0.887   5.869 -0.2191  0.0539 -0.1267
  715POPI    C3 9999   4.641   1.022   5.492  0.1977 -0.0229 -0.1528
  715POPI   PO410000   5.195   0.904   6.024 -0.0878  0.0761  0.3242
  715POPI   GL110001   5.404   0.830   6.331 -0.3363  0.2564  0.2955
  715POPI   GL210002   5.604   0.522   6.407 -0.2558  0.0755 -0.0817
  715POPI   C1A10003   5.484   1.133   6.654  0.3093  0.1004 -0.1783
  715POPI   D2A10004   5.814   1.245   6.964 -0.0127 -0.1174  0.2044
  715POPI   C3A10005   5.764   1.268   7.320  0.1085 -0.1289  0.0389
  715POPI   C4A10006   5.766   1.217   7.718  0.1845  0.2539 -0.0231
  715POPI   C1B10007   5.550   0.589   6.830  0.0388  0.0536  0.4083
  715POPI   C2B10008   5.437   0.908   7.184  0.1982  0.0896 -0.1435
  715POPI   C3B10009   5.505   0.834   7.646 -0.1304 -0.1901 -0.0967
  715POPI   C4B10010   5.120   1.232   7.758  0.0445  0.4166  0.4762
  716POPI    C110011  10.926  11.680   5.067 -0.0199  0.1381  0.1838
  716POPI    C210012  10.957  12.077   5.112  0.3986  0.1203  0.0933
  716POPI    C310013  11.041  11.908   4.759 -0.0217 -0.0278  0.0592
  716POPI   PO410014  11.066  11.570   5.403 -0.1900  0.1015 -0.3913
  716POPI   GL110015  11.009  11.591   5.910  0.3262 -0.1701  0.3669
  716POPI   GL210016  11.298  11.642   5.973 -0.4494  0.2598  0.0548
  716POPI   C1A10017  10.858  11.580   6.299  0.0388  0.0752  0.2089
  716POPI   D2A10018  10.669  11.598   6.724  0.2527 -0.4994  0.2689
  716POPI   C3A10019  10.873  11.423   7.207 -0.3065 -0.2539  0.1636
  716POPI   C4A10020  10.960  11.430   7.637 -0.1408  0.0611  0.1895
  716POPI   C1B10021  11.347  11.504   6.359 -0.0005 -0.3225  0.1259
  716POPI   C2B10022  11.594  11.699   6.619 -0.0994 -0.2311 -0.1591
  716POPI   C3B10023  11.645  12.025   6.865 -0.1100  0.2089  0.4223
  716POPI   C4B10024  11.689  12.016   7.293 -0.1076  0.0930 -0.0961
  717POPI    C110025  12.362  15.208   5.040  0.2888  0.0263  0.3473
  717POPI    C210026  12.388  15.607   5.027 -0.1167  0.0480 -0.1248
  717POPI    C310027  12.401  15.395   4.688  0.0711 -0.3431  0.1202
  717POPI   PO410028  12.351  15.164   5.287 -0.1154 -0.0824 -0.1049
  717POPI   GL110029  12.618  15.152   5.678 -0.0064  0.0629 -0.1191
  717POPI   GL210030  12.820  15.010   5.832  0.1600  0.0828  0.0729
  717POPI   C1A10031  12.530  15.366   6.113 -0.3866 -0.0604 -0.0017
  717POPI   D2A10032  12.713  15.663   6.341 -0.1961  0.1079  0.1275
  717POPI   C3A10033  13.036  15.912   6.249 -0.0156 -0.2427 -0.1652
  717POPI   C4A10034  13.264  16.348   6.094  0.0579  0.1146 -0.0593
  717POPI   C1B10035  12.953  14.888   6.236  0.0718  0.1333 -0.0310
  717POPI   C2B10036  12.741  15.176   6.497 -0.2721  0.0662 -0.1423
  717POPI   C3B10037  12.863  15.319   6.962 -0.0069  0.0051 -0.1371
  717POPI   C4B10038  12.513  15.402   7.300 -0.1164  0.2504 -0.0073
  718POPI    C110039   8.613  12.851   5.321  0.0356  0.1719 -0.0303
  718POPI    C210040   8.376  12.791   5.003  0.1562  0.2180 -0.1297
  718POPI    C310041   8.312  13.104   5.244  0.0362  0.1572 -0.0818
  718POPI   PO410042   8.645  12.577   5.498  0.0016 -0.1402 -0.0173
  718POPI   GL110043   8.896  12.398   5.783  0.2710 -0.1118  0.1944
  718POPI   GL210044   8.556  12.352   5.994  0.0574 -0.1547 -0.3635
  718POPI   C1A10045   9.164  12.461   6.143  0.0739 -0.3257 -0.0213
  718POPI   D2A10046   9.393  12.370   6.519 -0.3195 -0.0529 -0.1404
  718POPI   C3A10047   9.226  12.449   6.793 -0.3745  0.3414  0.0063
  718POPI   C4A10048   9.137  12.649   7.234 -0.2687  0.3523 -0.0857
  718POPI   C1B10049   8.590  12.685   6.206 -0.0391  0.2355  0.0481
  718POPI   C2B10050   8.969  12.823   6.490  0.0655 -0.1057  0.2112
  718POPI   C3B10051   8.945  12.911   6.896  0.1302  0.0620  0.0320
  718POPI   C4B10052   8.761  12.909   7.389  0.2353 -0.0435  0.0451
  719POPI    C110053  11.198   1.569   5.471  0.0648  0.0713  0.3721
  719POPI    C210054  11.379   1.738   5.157 -0.0547  0.0870  0.3110
  719POPI    C310055  11.510   1.388   5.298  0.0517  0.1203  0.2965
  719POPI   PO410056  11.208   1.815   5.669 -0.1766  0.3188  0.0531
  719POPI   GL110057  11.123   1.986   6.093 -0.1768 -0.3188 -0.0194
  719POPI   GL210058  11.065   1.669   6.110 -0.0891 -0.0505 -0.0138
  719POPI   C1A10059  11.352   2.205   6.365 -0.1269 -0.0018  0.0091
  719POPI   D2A10060  11.399   2.374   6.802 -0.1634 -0.0758  0.0089
  719POPI   C3A10061  11.534   2.309   7.239 -0.1374 -0.0852 -0.0202
  719POPI   C4A10062  11.573   2.204   7.608 -0.0056 -0.0092  0.1308
  719POPI   C1B10063  11.144   1.521   6.451  0.0892 -0.0086 -0.2023
  719POPI   C2B10064  11.131   1.456   6.948 -0.0062  0.1353  0.0634
  719POPI   C3B10065  11.365   1.261   7.226 -0.2294  0.2238  0.0440
  719POPI   C4B10066  11.765   1.214   7.402 -0.2836  0.0743  0.0653
  720POPI    C110067  17.938  10.812   5.543 -0.1900  0.0262 -0.2567
  720POPI    C210068  18.243  10.645   5.741 -0.2010  0.2682 -0.0296
  720POPI    C310069  18.302  10.801   5.378 -0.0764  0.2277 -0.0272
  720POPI   PO410070  17.866  10.958   5.792 -0.1712 -0.0596 -0.0427
  720POPI   GL110071  17.587  11.314   5.824  0.0281  0.1960  0.2229
  720POPI   GL210072  17.264  11.312   5.759 -0.1181 -0.0972  0.3167
  720POPI   C1A10073  17.912  11.541   6.018  0.0696 -0.1511  0.3124
  720POPI   D2A10074  18.103  11.695   6.301 -0.4454  0.3516 -0.2675
  720POPI   C3A10075  18.427  11.413   6.381 -0.0697 -0.1995 -0.2075
  720POPI   C4A10076  18.748  11.152   6.257  0.1039 -0.1260 -0.1530
  720POPI   C1B10077  17.235  11.256   6.210  0.0653 -0.0241 -0.0283
  720POPI   C2B10078  17.364  11.119   6.705 -0.2140  0.1693 -0.0609
  720POPI   C3B10079  17.748  11.215   6.950 -0.0376  0.1094 -0.2986
  720POPI   C4B10080  17.864  10.966   7.366 -0.1750 -0.1258 -0.1265
  721POPI    C110081   9.389   1.481   5.527 -0.0093 -0.1483  0.1807
  721POPI    C210082   9.058   1.552   5.314 -0.0015 -0.0616  0.1971
  721POPI    C310083   9.171   1.176   5.389 -0.1985 -0.0925  0.3494
  721POPI   PO410084   9.377   1.566   5.751  0.0476 -0.3789  0.2230
  721POPI   GL110085   9.309   1.539   6.182 -0.0197  0.2460  0.0673
  721POPI   GL210086   9.119   1.664   6.223  0.0274  0.0079 -0.1753
  721POPI   C1A10087   9.673   1.480   6.418  0.0629  0.0078  0.1573
  721POPI   D2A10088   9.834   1.702   6.713 -0.1004  0.0597  0.0424
  721POPI   C3A10089   9.698   1.844   7.059  0.1651 -0.1579  0.0046
  721POPI   C4A10090   9.730   2.268   7.239  0.5996  0.0916 -0.2240
  721POPI   C1B10091   9.264   1.782   6.623  0.3065  0.1131 -0.2171
  721POPI   C2B10092   9.111   1.984   7.028 -0.1046 -0.1179  0.0745
  721POPI   C3B10093   9.274   2.048   7.474 -0.1388 -0.0893 -0.1327
  721POPI   C4B10094   9.150   2.057   7.898 -0.0523 -0.3436 -0.0993
  722POPI    C110095   4.271   5.622   5.010  0.0698 -0.1247  0.0736
  722POPI    C210096   4.586   5.853   4.923 -0.1964  0.2557  0.0962
  722POPI    C310097   4.338   5.736   4.632 -0.0873  0.0321  0.0915
  722POPI   PO410098   4.346   5.615   5.259  0.0224 -0.2444 -0.2364
  722POPI   GL110099   4.295   5.591   5.627 -0.1494 -0.0979  0.0919
  722POPI   GL210100   4.398   5.224   5.671  0.0732 -0.1740 -0.0491
  722POPI   C1A10101   4.178   5.793   6.051  0.1422 -0.3634  0.2867
  722POPI   D2A10102   3.802   5.617   6.294  0.0789  0.1422 -0.0605
  722POPI   C3A10103   3.368   5.873   6.194  0.0716 -0.1108 -0.1794
  722POPI   C4A10104   3.088   5.890   6.606  0.2367 -0.2826 -0.3479
  722POPI   C1B10105   4.463   5.386   6.104 -0.0960  0.4718 -0.0527
  722POPI   C2B10106   4.340   5.640   6.465  0.1212 -0.0113  0.0382
  722POPI   C3B10107   3.967   5.699   6.773  0.0117  0.3674 -0.2408
  722POPI   C4B10108   3.816   5.562   7.162  0.1595 -0.0064 -0.3420
  723POPI    C110109   5.971  11.334   5.076  0.0403  0.1170 -0.1606
  723POPI    C210110   5.898  11.089   4.768  0.0624  0.0378 -0.1033
  723POPI    C310111   5.605  11.316   4.918 -0.1084 -0.3777  0.2135
  723POPI   PO410112   6.042  11.117   5.270 -0.1089  0.2266  0.1015
  723POPI   GL110113   6.209  11.144   5.678  0.2397  0.0435 -0.0883
  723POPI   GL210114   6.306  11.434   5.534  0.2084 -0.0192 -0.3881
  723POPI   C1A10115   6.369  11.126   6.047 -0.0009 -0.1595  0.1694
  723POPI   D2A10116   6.321  11.235   6.478  0.1604  0.1650 -0.0524
  723POPI   C3A10117   6.107  11.586   6.611 -0.1796 -0.5443  0.0920
  723POPI   C4A10118   5.781  11.880   6.505  0.0679 -0.1605  0.0599
  723POPI   C1B10119   6.324  11.658   5.981  0.1334  0.0136 -0.1450
  723POPI   C2B10120   6.232  12.013   6.311 -0.0168 -0.1903 -0.1057
  723POPI   C3B10121   6.072  12.189   6.735  0.1646 -0.0531 -0.1731
  723POPI   C4B10122   6.227  12.247   7.076  0.0463 -0.0431  0.1896
  724POPI    C110123  16.442   3.500   5.148 -0.4743  0.2970  0.1038
  724POPI    C210124  16.232   3.494   4.808 -0.0607  0.0071 -0.1552
  724POPI    C310125  16.574   3.700   4.828  0.0618 -0.2074 -0.0060
  724POPI   PO410126  16.270   3.413   5.313  0.0282 -0.3111 -0.4730
  724POPI   GL110127  16.230   3.196   5.622 -0.0499 -0.1986 -0.0106
  724POPI   GL210128  15.828   3.136   5.849 -0.3085 -0.1649  0.1650
  724POPI   C1A10129  16.449   2.942   5.935  0.0761  0.1434  0.2619
  724POPI   D2A10130  16.433   3.021   6.345  0.0185 -0.0310 -0.0927
  724POPI   C3A10131  16.374   3.172   6.749  0.0763 -0.0660 -0.0844
  724POPI   C4A10132  16.207   3.228   7.097 -0.3046  0.0521  0.0622
  724POPI   C1B10133  16.074   3.413   6.100  0.3636  0.0493  0.0686
  724POPI   C2B10134  16.057   3.625   6.480 -0.0481 -0.1352  0.0054
  724POPI   C3B10135  15.822   3.504   6.871  0.3459  0.1070 -0.2187
  724POPI   C4B10136  15.907   3.595   7.304  0.1082  0.0049  0.0491
  725POPI    C110137  16.683  11.371   5.081  0.1162 -0.2192 -0.0062
  725POPI    C210138  16.821  11.017   4.957  0.1323 -0.2203  0.0146
  725POPI    C310139  16.460  11.142   4.841  0.0614 -0.3132  0.1335
  725POPI   PO410140  16.773  11.388   5.392 -0.2796  0.0134 -0.2751
  725POPI   GL110141  16.803  11.360   5.805  0.1198  0.1728 -0.2014
  725POPI   GL210142  16.889  11.591   5.843 -0.1215  0.1260  0.0630
  725POPI   C1A10143  16.731  11.209   6.237  0.3049 -0.1642 -0.1742
  725POPI   D2A10144  16.945  11.303   6.654 -0.0052  0.2035 -0.2080
  725POPI   C3A10145  16.828  11.262   7.081 -0.0497 -0.0268  0.0776
  725POPI   C4A10146  16.844  11.314   7.452 -0.1902  0.1718  0.1154
  725POPI   C1B10147  17.005  11.693   6.273  0.1842 -0.4765 -0.1636
  725POPI   C2B10148  16.914  11.829   6.667 -0.1181 -0.2654  0.1455
  725POPI   C3B10149  16.984  12.058   7.046 -0.0594 -0.0244  0.0635
  725POPI   C4B10150  16.866  11.884   7.367  0.0475 -0.1239 -0.1888
  726POPI    C110151   4.082  13.576   5.151 -0.2244  0.1329  0.1102
  726POPI    C210152   3.937  13.708   4.802  0.2572  0.2388 -0.0581
  726POPI    C310153   3.687  13.577   5.086 -0.1488  0.2681 -0.3919
  726POPI   PO410154   4.256  13.715   5.241  0.0800 -0.0962 -0.1329
  726POPI   GL110155   4.437  13.734   5.564  0.2761 -0.0967  0.3450
  726POPI   GL210156   4.598  14.105   5.730  0.0533 -0.0020 -0.1957
  726POPI   C1A10157   4.152  13.550   5.887  0.2551 -0.1239 -0.1055
  726POPI   D2A10158   4.110  13.402   6.219 -0.1733 -0.2409 -0.0186
  726POPI   C3A10159   4.084  13.848   6.455 -0.0432 -0.0294  0.4407
  726POPI   C4A10160   4.253  14.118   6.197 -0.0537  0.0432 -0.0127
  726POPI   C1B10161   4.653  13.815   6.055  0.0590  0.3551  0.0745
  726POPI   C2B10162   4.594  13.531   6.356  0.3313  0.3585  0.0681
  726POPI   C3B10163   4.438  13.448   6.790  0.0582  0.2286  0.4102
  726POPI   C4B10164   4.655  13.385   7.242 -0.1442 -0.0148 -0.0473
  727POPI    C110165   5.685  15.776   5.427  0.0141  0.1802 -0.1586
  727POPI    C210166   5.833  16.143   5.370  0.0249  0.1917 -0.0582
  727POPI    C310167   5.437  16.086   5.382  0.0236  0.2090 -0.0180
  727POPI   PO410168   5.818  15.683   5.644  0.1926 -0.0598 -0.1127
  727POPI   GL110169   5.960  15.725   6.120  0.2029 -0.1389 -0.1922
  727POPI   GL210170   5.695  15.581   6.083 -0.0015  0.0496 -0.1152
  727POPI   C1A10171   6.297  15.692   6.346 -0.2476 -0.1201 -0.0020
  727POPI   D2A10172   6.421  15.837   6.694 -0.2640 -0.5040  0.3833
  727POPI   C3A10173   6.451  16.317   6.686  0.2011 -0.0622 -0.0009
  727POPI   C4A10174   6.490  16.803   6.816  0.0352 -0.2567  0.2220
  727POPI   C1B10175   5.852  15.463   6.483 -0.0021  0.0864 -0.3558
  727POPI   C2B10176   6.152  15.441   6.789 -0.0367  0.0407 -0.2432
  727POPI   C3B10177   6.371  15.588   7.164  0.3123 -0.0117 -0.0049
  727POPI   C4B10178   6.591  15.429   7.499 -0.1169  0.2221 -0.1358
  728POPI    C110179   5.884   3.862   5.754 -0.4159  0.1809  0.0235
  728POPI    C210180   5.754   3.596   5.485  0.1596 -0.1275  0.0348
  728POPI    C310181   5.981   3.904   5.368 -0.0252  0.0364  0.1019
  728POPI   PO410182   6.029   3.683   5.902 -0.1124  0.0157 -0.1064
  728POPI   GL110183   6.483   3.590   6.057  0.2489 -0.2394 -0.2663
  728POPI   GL210184   6.368   3.922   6.137  0.0227  0.1636  0.4496
  728POPI   C1A10185   6.568   3.657   6.485 -0.0970 -0.2296 -0.3756
  728POPI   D2A10186   6.854   3.640   6.704  0.4327 -0.1361 -0.1788
  728POPI   C3A10187   6.797   3.816   7.030  0.1641  0.2413  0.1055
  728POPI   C4A10188   6.458   3.930   7.131 -0.0378  0.2957  0.0176
  728POPI   C1B10189   6.177   4.129   6.478 -0.0218  0.1276  0.1105
  728POPI   C2B10190   6.048   4.070   6.855 -0.2485  0.1193 -0.1049
  728POPI   C3B10191   5.824   4.354   7.078 -0.0570  0.2267 -0.1510
  728POPI   C4B10192   5.496   4.610   6.959  0.2383  0.3198  0.2205
  729POPI    C110193   5.609  10.391   5.454 -0.0189 -0.0242  0.2747
  729POPI    C210194   5.668  10.009   5.559  0.0913 -0.0115  0.2592
  729POPI    C310195   5.560  10.100   5.184 -0.1166 -0.0418  0.3107
  729POPI   PO410196   5.448  10.492   5.682  0.1534  0.2840  0.1243
  729POPI   GL110197   5.523  10.459   6.049  0.2464  0.0611 -0.1054
  729POPI   GL210198   5.801  10.251   6.103 -0.3425 -0.1372 -0.3039
  729POPI   C1A10199   5.225  10.436   6.417 -0.1458 -0.4218 -0.1824
  729POPI   D2A10200   5.235  10.683   6.812 -0.0683 -0.0648 -0.0936
  729POPI   C3A10201   4.950  10.684   7.284 -0.0347 -0.2275 -0.0202
  729POPI   C4A10202   4.617  10.874   7.188  0.3495  0.0974 -0.2473
  729POPI   C1B10203   5.863  10.418   6.474  0.3263  0.2675 -0.1222
  729POPI   C2B10204   5.872  10.559   6.989  0.2450 -0.4531 -0.1076
  729POPI   C3B10205   5.771  10.366   7.300 -0.2961  0.0142 -0.0052
  729POPI   C4B10206   5.407  10.105   7.425  0.1282  0.3827  0.1650
  730POPI    C110207   3.012   3.106   5.458  0.0243 -0.1746 -0.2219
  730POPI    C210208   3.364   3.279   5.378 -0.1513  0.1939 -0.2148
  730POPI    C310209   3.134   3.144   5.080 -0.0464  0.0350 -0.2246
  730POPI   PO410210   2.954   3.116   5.777 -0.1363 -0.0262  0.1601
  730POPI   GL110211   2.987   3.268   6.178 -0.0020  0.2051 -0.0735
  730POPI   GL210212   3.048   3.668   6.327 -0.0165  0.0450 -0.1727
  730POPI   C1A10213   2.922   3.076   6.617  0.3014  0.3199  0.3036
  730POPI   D2A10214   2.817   2.626   6.682  0.2249  0.0803  0.2396
  730POPI   C3A10215   3.187   2.355   6.805 -0.2928 -0.1306 -0.0881
  730POPI   C4A10216   3.528   2.377   7.036  0.2827 -0.0175 -0.1059
  730POPI   C1B10217   3.187   3.998   6.674 -0.3153  0.0032  0.0330
  730POPI   C2B10218   3.278   3.840   7.094  0.5361  0.0485 -0.2189
  730POPI   C3B10219   3.400   4.058   7.428 -0.0320  0.3834  0.0292
  730POPI   C4B10220   3.536   4.275   7.602  0.1626 -0.1779  0.1928
  731POPI    C110221   3.604  15.807   5.330 -0.0234  0.3724  0.4318
  731POPI    C210222   3.384  16.052   5.103  0.1568  0.1705  0.0292
  731POPI    C310223   3.780  16.104   5.127  0.1701  0.0394  0.1008
  731POPI   PO410224   3.473  15.805   5.601 -0.2033 -0.1158 -0.0002
  731POPI   GL110225   3.587  15.832   6.123  0.1569  0.0442 -0.0933
  731POPI   GL210226   3.246  16.034   6.061 -0.0152  0.2577 -0.2899
  731POPI   C1A10227   3.545  15.683   6.466  0.0435  0.1399 -0.0226
  731POPI   D2A10228   3.578  15.630   6.904 -0.1808  0.2625  0.1937
  731POPI   C3A10229   3.184  15.543   7.192  0.3142  0.1182 -0.1970
  731POPI   C4A10230   2.958  15.350   7.592  0.3282  0.2032 -0.1918
  731POPI   C1B10231   2.946  15.954   6.368 -0.1385  0.0322 -0.1610
  731POPI   C2B10232   2.692  15.580   6.398 -0.6994  0.2157 -0.1948
  731POPI   C3B10233   2.383  15.206   6.330 -0.3337  0.1503  0.3629
  731POPI   C4B10234   2.020  15.022   6.456 -0.1071  0.0072 -0.0378
  732POPI    C110235  13.389  13.850   4.904 -0.0375  0.0742  0.0753
  732POPI    C210236  13.151  14.084   4.683 -0.1239  0.0978  0.1920
  732POPI    C310237  13.537  14.179   4.731 -0.1802  0.2681  0.3160
  732POPI   PO410238  13.186  13.827   5.119 -0.2077  0.0113  0.0450
  732POPI   GL110239  13.179  13.791   5.488 -0.0213 -0.0906 -0.4333
  732POPI   GL210240  13.007  13.641   5.715  0.0657  0.5306 -0.2344
  732POPI   C1A10241  13.369  14.107   5.755  0.0133  0.0651  0.0414
  732POPI   D2A10242  13.768  14.002   6.203 -0.2037  0.0877  0.1000
  732POPI   C3A10243  14.219  13.879   6.017  0.2540 -0.0412 -0.1567
  732POPI   C4A10244  14.584  13.675   6.150  0.3102 -0.2155  0.3328
  732POPI   C1B10245  12.762  13.468   6.114 -0.1562 -0.4774  0.1620
  732POPI   C2B10246  12.686  13.664   6.437  0.3269  0.0858  0.0100
  732POPI   C3B10247  12.843  13.886   6.862 -0.1933 -0.2568  0.0712
  732POPI   C4B10248  12.895  14.041   7.366 -0.1382  0.2635  0.3578
  733POPI    C110249   2.766   1.560   5.706  0.0859  0.1387  0.1085
  733POPI    C210250   2.762   1.350   5.365 -0.3570 -0.0563  0.2273
  733POPI    C310251   2.796   1.749   5.354  0.3431 -0.1103 -0.0065
  733POPI   PO410252   2.891   1.391   5.864  0.2621 -0.0460  0.2401
  733POPI   GL110253   3.168   1.446   6.204 -0.0214  0.0656 -0.1655
  733POPI   GL210254   2.874   1.671   6.297 -0.1270  0.1981  0.0474
  733POPI   C1A10255   3.377   1.541   6.609 -0.1599 -0.0324  0.1431
  733POPI   D2A10256   3.478   1.486   7.140 -0.0098  0.0390 -0.2708
  733POPI   C3A10257   3.221   1.422   7.470  0.0443 -0.2349  0.0614
  733POPI   C4A10258   2.823   1.322   7.705  0.0155  0.0267  0.0341
  733POPI   C1B10259   2.458   1.670   6.539 -0.0815 -0.0752  0.0052
  733POPI   C2B10260   2.178   1.430   6.883  0.1515 -0.3085  0.1501
  733POPI   C3B10261   1.883   1.225   7.090 -0.0963  0.0408 -0.3232
  733POPI   C4B10262   1.934   1.033   7.474 -0.0949  0.2534 -0.1918
  734POPI    C110263  14.490   2.051   5.806  0.0636 -0.3959  0.0517
  734POPI    C210264  14.247   2.190   5.521  0.2586 -0.0669  0.0404
  734POPI    C310265  14.163   2.259   5.906  0.0573 -0.4109  0.0621
  734POPI   PO410266  14.543   1.810   5.748  0.6588  0.2923  0.0374
  734POPI   GL110267  14.393   1.536   6.021 -0.3123  0.1620  0.0610
  734POPI   GL210268  14.205   1.831   6.194  0.0164 -0.1224  0.1555
  734POPI   C1A10269  14.500   1.393   6.393 -0.0036  0.0978  0.0155
  734POPI   D2A10270  14.771   1.216   6.666 -0.1406 -0.4222  0.1069
  734POPI   C3A10271  15.001   1.417   6.963  0.1534  0.1849  0.1174
  734POPI   C4A10272  14.843   1.947   7.122 -0.0308 -0.1265 -0.2494
  734POPI   C1B10273  14.165   1.978   6.607  0.1128 -0.0512 -0.2154
  734POPI   C2B10274  14.112   1.899   7.126 -0.0547 -0.1655 -0.2523
  734POPI   C3B10275  14.305   1.689   7.502  0.3368  0.0242  0.3580
  734POPI   C4B10276  14.649   1.606   7.833  0.0978 -0.0110 -0.3220
  735POPI    C110277  12.938   7.236   5.182  0.0663 -0.0333  0.2069
  735POPI    C210278  13.305   7.394   5.162  0.0216  0.0510  0.0243
  735POPI    C310279  13.167   7.171   4.860 -0.1965  0.2846 -0.0520
  735POPI   PO410280  12.861   7.319   5.442  0.0763  0.0807  0.4293
  735POPI   GL110281  12.698   7.526   5.818 -0.1150 -0.0661  0.1414
  735POPI   GL210282  12.353   7.696   5.984 -0.1244  0.0094  0.0620
  735POPI   C1A10283  12.611   7.265   6.125  0.0813  0.1664  0.0811
  735POPI   D2A10284  12.521   7.215   6.545  0.0956  0.0591 -0.1678
  735POPI   C3A10285  12.786   7.160   6.915 -0.0229  0.4131 -0.1850
  735POPI   C4A10286  13.047   6.870   7.200  0.0986 -0.1339 -0.3199
  735POPI   C1B10287  12.435   7.728   6.406 -0.2706  0.2188  0.1763
  735POPI   C2B10288  12.393   7.559   6.851 -0.0334 -0.0693 -0.0254
  735POPI   C3B10289  12.376   7.542   7.321 -0.1836  0.1157  0.1521
  735POPI   C4B10290  11.765   7.556   7.484 -0.0589 -0.1787  0.3239
  736POPI    C110291  17.110   5.698   5.481 -0.0212  0.0819 -0.1924
  736POPI    C210292  16.825   5.838   5.238 -0.1471  0.2457  0.0454
  736POPI    C310293  17.130   6.073   5.344  0.0650  0.0796 -0.1863
  736POPI   PO410294  16.887   5.553   5.699 -0.0216 -0.4064  0.0950
  736POPI   GL110295  16.725   5.782   6.061 -0.3850 -0.2487  0.0683
  736POPI   GL210296  16.405   5.630   5.924  0.1006  0.0418 -0.1799
  736POPI   C1A10297  16.866   6.142   6.366 -0.1363  0.1506  0.0713
  736POPI   D2A10298  16.973   6.465   6.657 -0.0683  0.1461 -0.0655
  736POPI   C3A10299  16.937   6.449   7.044 -0.0202 -0.0450 -0.1105
  736POPI   C4A10300  17.070   6.268   7.361  0.1031  0.2331  0.2237
  736POPI   C1B10301  16.146   5.372   6.117 -0.2832 -0.0580 -0.0661
  736POPI   C2B10302  15.821   5.489   6.380 -0.3383  0.0846  0.2604
  736POPI   C3B10303  15.807   5.781   6.583  0.2690  0.0088 -0.0864
  736POPI   C4B10304  15.418   5.988   6.705  0.0343  0.1873  0.1332
  737POPI    C110305   9.139   8.611   4.978  0.1349 -0.0475  0.1555
  737POPI    C210306   9.409   8.515   4.699  0.1163  0.4029 -0.0254
  737POPI    C310307   9.025   8.420   4.645  0.2037 -0.0705  0.1449
  737POPI   PO410308   9.229   8.550   5.214  0.1706 -0.2015  0.0358
  737POPI   GL110309   9.408   8.681   5.635 -0.0221  0.2433 -0.2819
  737POPI   GL210310   9.214   8.949   5.513  0.1805 -0.0723  0.5016
  737POPI   C1A10311   9.537   8.669   5.968  0.2972  0.0038  0.2367
  737POPI   D2A10312   9.576   8.821   6.444  0.0251  0.1755  0.2989
  737POPI   C3A10313   9.610   8.767   6.891  0.3717 -0.2225  0.2442
  737POPI   C4A10314   9.731   8.765   7.280 -0.2150 -0.0923  0.0581
  737POPI   C1B10315   8.945   8.766   5.885  0.2444  0.0140  0.0939
  737POPI   C2B10316   9.116   8.700   6.253 -0.1069  0.0856 -0.3291
  737POPI   C3B10317   9.117   8.858   6.641 -0.1346 -0.3436 -0.2572
  737POPI   C4B10318   9.140   8.729   7.094 -0.1666  0.0099  0.1316
  738POPI    C110319  17.445   8.653   5.331  0.0463  0.0301  0.0059
  738POPI    C210320  17.202   8.970   5.311  0.2606  0.2071  0.1627
  738POPI    C310321  17.476   8.910   5.026  0.1643  0.1163  0.0892
  738POPI   PO410322  17.343   8.624   5.696  0.1796  0.1454 -0.1611
  738POPI   GL110323  17.045   8.552   6.027 -0.3137 -0.1575  0.2330
  738POPI   GL210324  17.052   8.269   5.960 -0.2501 -0.2476 -0.1664
  738POPI   C1A10325  17.027   8.842   6.351 -0.2492  0.4458  0.2124
  738POPI   D2A10326  17.135   9.036   6.767 -0.3042  0.3049  0.0364
  738POPI   C3A10327  17.472   8.807   6.935  0.0380  0.1714 -0.0896
  738POPI   C4A10328  17.762   8.784   7.256 -0.5038 -0.0078 -0.0990
  738POPI   C1B10329  16.974   8.066   6.419 -0.1089 -0.0620 -0.0040
  738POPI   C2B10330  16.721   7.918   6.783 -0.0713  0.1448 -0.0009
  738POPI   C3B10331  16.377   8.046   6.973 -0.2788 -0.0301  0.0114
  738POPI   C4B10332  15.990   7.910   6.998 -0.1274 -0.0391 -0.1876
  739POPI    C110333  13.637  11.973   5.016  0.1170 -0.0887  0.0432
  739POPI    C210334  13.949  12.156   4.845  0.0114  0.0113 -0.0443
  739POPI    C310335  13.710  11.921   4.626 -0.0229  0.0005  0.0044
  739POPI   PO410336  13.609  12.097   5.288 -0.0237  0.2812 -0.0893
  739POPI   GL110337  13.706  12.243   5.629  0.1359 -0.2000 -0.3200
  739POPI   GL210338  13.505  12.381   5.807 -0.1124 -0.1217  0.1853
  739POPI   C1A10339  13.814  12.018   6.002 -0.1225 -0.1671 -0.0064
  739POPI   D2A10340  14.088  11.951   6.428  0.2295 -0.1924 -0.0629
  739POPI   C3A10341  14.512  11.909   6.454 -0.2617 -0.0209 -0.1957
  739POPI   C4A10342  14.853  11.804   6.735 -0.1423  0.1774  0.1924
  739POPI   C1B10343  13.797  12.513   6.096  0.1479 -0.0867  0.0796
  739POPI   C2B10344  14.177  12.450   6.389  0.1733  0.2385 -0.2757
  739POPI   C3B10345  14.379  12.315   6.716  0.0278  0.1911 -0.0754
  739POPI   C4B10346  14.511  11.984   6.972  0.2596  0.0047  0.0510
  740POPI    C110347   0.198   0.685   4.923 -0.2218  0.1473 -0.1599
  740POPI    C210348   0.427   0.620   4.602  0.2822  0.1445  0.1888
  740POPI    C310349   0.050   0.487   4.609  0.2706  0.1242 -0.3862
  740POPI   PO410350   0.405   0.718   5.163  0.0372 -0.1729  0.0735
  740POPI   GL110351   0.452   0.721   5.573 -0.2214 -0.1473 -0.1028
  740POPI   GL210352   0.690   0.448   5.481 -0.1461  0.1686  0.3472
  740POPI   C1A10353   0.266   0.805   5.976  0.0583 -0.3112 -0.1962
  740POPI   D2A10354   0.239   0.897   6.404 -0.0753  0.3772 -0.1757
  740POPI   C3A10355   0.658   0.900   6.583  0.1312 -0.0950  0.1102
  740POPI   C4A10356   0.827   1.194   6.505  0.1639 -0.1434  0.1169
  740POPI   C1B10357   0.740   0.489   5.881  0.2257 -0.0323  0.0647
  740POPI   C2B10358   0.542   0.477   6.202 -0.1556  0.0716 -0.4836
  740POPI   C3B10359   0.325   0.463   6.648 -0.0314 -0.1907 -0.4452
  740POPI   C4B10360  -0.013   0.700   7.044 -0.1491 -0.1778  0.1637
  741POPI    C110361   7.038  10.636   5.233  0.2913 -0.1812 -0.0815
  741POPI    C210362   6.726  10.738   5.004  0.1338  0.1537  0.2717
  741POPI    C310363   7.097  10.839   4.893  0.0986 -0.0364 -0.0303
  741POPI   PO410364   6.887  10.693   5.464  0.0224 -0.0801 -0.0156
  741POPI   GL110365   6.984  10.594   5.799 -0.1843 -0.0414 -0.0100
  741POPI   GL210366   6.741  10.735   5.992  0.2128  0.1119  0.0631
  741POPI   C1A10367   7.284  10.682   6.111  0.2677  0.0754 -0.0445
  741POPI   D2A10368   7.603  10.691   6.455  0.1107  0.0154  0.0117
  741POPI   C3A10369   7.638  10.851   6.953 -0.0835 -0.1467 -0.1279
  741POPI   C4A10370   7.652  11.128   7.296 -0.2028  0.0987 -0.1388
  741POPI   C1B10371   6.751  10.683   6.390  0.1461 -0.0866 -0.1208
  741POPI   C2B10372   6.682  10.910   6.696  0.0193 -0.1388  0.0098
  741POPI   C3B10373   6.545  10.829   7.080 -0.0164  0.4739  0.1800
  741POPI   C4B10374   6.659  10.519   7.427  0.1564 -0.4370  0.2271
  742POPS   CNO10375  13.251   4.778   5.102 -0.5169  0.1987  0.2054
  742POPS   PO410376  13.218   5.038   5.522  0.1106 -0.0756 -0.3333
  742POPS   GL110377  13.601   5.043   5.664  0.1163 -0.3051 -0.0063
  742POPS   GL210378  13.541   4.770   5.852  0.0186  0.0557 -0.1847
  742POPS   C1A10379  13.789   5.223   6.015  0.0622 -0.1586  0.0663
  742POPS   D2A10380  14.084   5.267   6.361 -0.2656  0.0035  0.0698
  742POPS   C3A10381  13.994   5.547   6.645 -0.1334 -0.1292  0.0580
  742POPS   C4A10382  13.776   5.569   7.066  0.0859 -0.3006  0.0260
  742POPS   C1B10383  13.915   4.725   6.147  0.0204  0.0731 -0.0022
  742POPS   C2B10384  14.047   4.774   6.523 -0.0587  0.2988 -0.0506
  742POPS   C3B10385  14.074   5.128   6.888 -0.2039 -0.0258 -0.0945
  742POPS   C4B10386  14.182   5.181   7.236  0.2749 -0.0270 -0.0437
  743POPS   CNO10387   6.234   9.293   5.335 -0.1533  0.0141  0.0594
  743POPS   PO410388   6.609   9.248   5.507  0.1413 -0.1204 -0.1250
  743POPS   GL110389   6.702   9.031   6.004 -0.0536 -0.1564 -0.3605
  743POPS   GL210390   6.950   9.001   6.010  0.0808  0.0765 -0.1410
  743POPS   C1A10391   6.458   8.814   6.342 -0.0409 -0.0265  0.3157
  743POPS   D2A10392   6.241   8.573   6.651  0.0346  0.2768  0.0477
  743POPS   C3A10393   6.297   8.433   6.977 -0.1294 -0.1798  0.1002
  743POPS   C4A10394   6.012   8.453   7.299  0.2216  0.3892 -0.0954
  743POPS   C1B10395   6.783   9.116   6.489 -0.0007 -0.3103 -0.1178
  743POPS   C2B10396   6.815   9.355   6.908  0.4052 -0.1594 -0.2728
  743POPS   C3B10397   6.883   9.535   7.320 -0.2094 -0.0806  0.2138
  743POPS   C4B10398   7.165   9.389   7.563 -0.2104 -0.0075  0.0079
  744POPS   CNO10399  11.729   9.271   5.138  0.1906 -0.1629  0.0908
  744POPS   PO410400  11.631   8.850   4.898 -0.0387 -0.3139  0.1192
  744POPS   GL110401  11.496   8.858   5.382 -0.0854 -0.3562 -0.0527
  744POPS   GL210402  11.242   8.840   5.713 -0.1015 -0.0355  0.0468
  744POPS   C1A10403  11.510   8.413   5.583 -0.2218  0.3380  0.3791
  744POPS   D2A10404  11.288   8.009   5.764  0.2641 -0.0700 -0.1724
  744POPS   C3A10405  10.975   7.969   5.983 -0.0057 -0.0118 -0.1085
  744POPS   C4A10406  10.637   8.159   6.068  0.1616 -0.2239 -0.4011
  744POPS   C1B10407  11.152   8.433   6.040 -0.3899  0.1179 -0.3012
  744POPS   C2B10408  11.066   8.276   6.417  0.0098  0.1162  0.0098
  744POPS   C3B10409  10.847   7.934   6.500 -0.3685  0.4022  0.0669
  744POPS   C4B10410  10.534   7.667   6.649 -0.0077  0.3782  0.1060
  745POPS   CNO10411   2.662  18.696   5.245  0.2734  0.1529 -0.4802
  745POPS   PO410412   2.382  19.037   5.331  0.0173 -0.0681 -0.4861
  745POPS   GL110413   2.382  19.138   5.737  0.0311  0.0624  0.0888
  745POPS   GL210414   2.675  19.048   5.978  0.2836 -0.2496 -0.2524
  745POPS   C1A10415   2.291  19.317   6.164  0.2951  0.0620  0.1881
  745POPS   D2A10416   2.010  19.507   6.381  0.0252  0.0675 -0.0866
  745POPS   C3A10417   2.160  19.552   6.860 -0.0461 -0.0117 -0.0346
  745POPS   C4A10418   2.213  19.679   7.327 -0.0189  0.0446  0.0069
  745POPS   C1B10419   2.426  18.831   6.245  0.2800  0.0706 -0.1727
  745POPS   C2B10420   2.190  19.015   6.595  0.1221 -0.3079  0.1415
  745POPS   C3B10421   1.981  18.856   6.906 -0.0725 -0.1512  0.1228
  745POPS   C4B10422   2.069  18.604   7.312  0.2418  0.0180 -0.6616
  746POPS   CNO10423  14.160  12.398   5.262 -0.0984  0.2407 -0.0168
  746POPS   PO410424  14.391  12.685   5.449  0.1232 -0.1435  0.1123
  746POPS   GL110425  14.444  13.130   5.551  0.0805 -0.2874 -0.4447
  746POPS   GL210426  14.662  12.977   5.832  0.1385  0.5163 -0.3553
  746POPS   C1A10427  14.176  13.405   5.908 -0.0632  0.1245  0.0055
  746POPS   D2A10428  13.930  13.548   6.288  0.4744  0.1645  0.2810
  746POPS   C3A10429  14.220  13.714   6.516 -0.2132  0.2136  0.0906
  746POPS   C4A10430  14.356  13.832   6.868  0.2758 -0.0806 -0.5073
  746POPS   C1B10431  14.554  13.204   6.170 -0.4047 -0.1775  0.1093
  746POPS   C2B10432  14.491  13.315   6.539  0.1994 -0.2061 -0.1713
  746POPS   C3B10433  14.337  13.281   6.933  0.1434  0.0539  0.0501
  746POPS   C4B10434  14.130  12.941   7.232 -0.0542  0.0525 -0.2588
  747POPS   CNO10435   6.873  12.501   5.138  0.1042 -0.0836  0.1462
  747POPS   PO410436   6.359  12.415   5.252 -0.0946  0.1499  0.1620
  747POPS   GL110437   6.379  12.156   5.597  0.1484  0.1426  0.2082
  747POPS   GL210438   6.061  12.266   5.848 -0.2731  0.0585 -0.0056
  747POPS   C1A10439   6.667  12.062   6.019 -0.3024 -0.2193 -0.2380
  747POPS   D2A10440   7.032  12.048   6.245  0.0494  0.1833 -0.1959
  747POPS   C3A10441   7.100  11.969   6.719  0.2693 -0.1104  0.0443
  747POPS   C4A10442   7.212  12.005   7.108  0.2170  0.0263 -0.0738
  747POPS   C1B10443   5.888  11.824   5.944  0.1257 -0.2004 -0.1890
  747POPS   C2B10444   5.938  11.430   6.126  0.1833  0.1288 -0.3700
  747POPS   C3B10445   5.764  11.042   6.222 -0.0056  0.0370 -0.2972
  747POPS   C4B10446   5.670  10.912   6.608 -0.1567 -0.0655  0.1829
  748POPS   CNO10447  10.685   3.046   5.333  0.0848 -0.1175  0.0610
  748POPS   PO410448  10.429   3.216   5.535 -0.0542  0.0950 -0.1291
  748POPS   GL110449  10.558   3.200   6.005  0.0099  0.2886 -0.1276
  748POPS   GL210450  10.534   2.920   6.225  0.2534 -0.3955  0.2030
  748POPS   C1A10451  10.651   3.466   6.396 -0.0299 -0.1199  0.0600
  748POPS   D2A10452  10.719   3.473   6.832  0.1141  0.1547 -0.2373
  748POPS   C3A10453  10.521   3.539   7.179  0.2626 -0.2060  0.0328
  748POPS   C4A10454  10.698   3.489   7.598 -0.2072  0.0604  0.4800
  748POPS   C1B10455  10.680   2.982   6.594  0.0711 -0.4302 -0.0851
  748POPS   C2B10456  10.505   2.959   7.047 -0.0509 -0.2164 -0.0760
  748POPS   C3B10457  10.298   3.178   7.537 -0.0173  0.1267  0.0004
  748POPS   C4B10458  10.184   3.327   7.938  0.1686 -0.2979 -0.0516
  749POPS   CNO10459   6.378  13.668   5.189 -0.2629  0.3516 -0.0656
  749POPS   PO410460   6.400  13.284   5.354  0.0238 -0.3350  0.2059
  749POPS   GL110461   6.350  13.241   5.736 -0.1509  0.0333  0.3063
  749POPS   GL210462   5.995  13.424   5.777  0.3392 -0.0807 -0.0888
  749POPS   C1A10463   6.471  13.136   6.122 -0.3384 -0.3605  0.2716
  749POPS   D2A10464   6.327  12.873   6.554 -0.0464 -0.3612  0.3188
  749POPS   C3A10465   6.377  13.118   7.032 -0.0947  0.1383 -0.1192
  749POPS   C4A10466   6.338  13.176   7.460  0.0878  0.1430  0.1594
  749POPS   C1B10467   6.052  13.375   6.245  0.1503  0.0236  0.1304
  749POPS   C2B10468   6.099  13.331   6.671 -0.0707 -0.0004 -0.0308
  749POPS   C3B10469   5.907  13.101   6.957  0.2750  0.1732 -0.1269
  749POPS   C4B10470   5.709  13.305   7.289 -0.1515 -0.0889 -0.0097
  750POPS   CNO10471   7.734   0.136   6.375 -0.1094 -0.1453  0.0768
  750POPS   PO410472   8.037   0.152   6.060  0.0862 -0.0197 -0.0148
  750POPS   GL110473   8.210   0.217   6.411  0.2175  0.0963 -0.1417
  750POPS   GL210474   8.346  -0.123   6.552 -0.3866  0.1792  0.2145
  750POPS   C1A10475   8.098   0.268   6.769  0.0563  0.0369 -0.1929
  750POPS   D2A10476   8.247   0.184   7.117  0.1094  0.3561 -0.2115
  750POPS   C3A10477   8.242   0.273   7.518  0.0004 -0.3193  0.1915
  750POPS   C4A10478   7.780   0.410   7.608  0.1496  0.1436 -0.1010
  750POPS   C1B10479   8.371  -0.311   6.915 -0.0095 -0.4429 -0.0083
  750POPS   C2B10480   8.465  -0.354   7.270  0.1140 -0.1638 -0.2201
  750POPS   C3B10481   8.357  -0.256   7.728  0.0093  0.0010  0.0027
  750POPS   C4B10482   8.531  -0.506   7.896 -0.2640  0.1737 -0.1094
  751POPS   CNO10483  12.240   7.560   5.519 -0.4512  0.0956 -0.0590
  751POPS   PO410484  12.475   7.965   5.555 -0.0067 -0.0300 -0.2863
  751POPS   GL110485  12.217   8.157   5.879 -0.0667 -0.1674  0.3505
  751POPS   GL210486  11.975   8.258   5.706 -0.4657 -0.0350 -0.1173
  751POPS   C1A10487  12.011   7.984   6.214 -0.2351  0.0124 -0.3859
  751POPS   D2A10488  11.967   8.014   6.680  0.0203  0.1047 -0.4319
  751POPS   C3A10489  12.103   7.910   7.059  0.0499 -0.1731 -0.0727
  751POPS   C4A10490  12.152   8.060   7.443 -0.0436 -0.2184  0.0891
  751POPS   C1B10491  11.639   8.237   6.040  0.0361 -0.1106  0.0613
  751POPS   C2B10492  11.584   8.393   6.450 -0.3133 -0.0017 -0.3294
  751POPS   C3B10493  11.644   8.461   6.904 -0.0315  0.1435  0.0042
  751POPS   C4B10494  11.582   8.647   7.323 -0.0450 -0.0414  0.2185
  752POPS   CNO10495  17.916  16.667   4.659 -0.0430  0.1785  0.1969
  752POPS   PO410496  18.328  16.745   4.696 -0.0122 -0.2246  0.1225
  752POPS   GL110497  18.471  16.794   5.177  0.3668 -0.0589  0.1849
  752POPS   GL210498  18.850  16.963   5.197 -0.3955  0.2202 -0.2441
  752POPS   C1A10499  18.363  16.770   5.551  0.0340 -0.1219 -0.0374
  752POPS   D2A10500  18.487  16.703   5.981  0.2537 -0.1626  0.0164
  752POPS   C3A10501  18.899  16.825   6.105 -0.0297 -0.0397  0.1091
  752POPS   C4A10502  19.124  17.195   6.008 -0.0990  0.0845 -0.3468
  752POPS   C1B10503  18.638  17.142   5.691 -0.0245  0.2085 -0.1422
  752POPS   C2B10504  18.677  17.269   6.161  0.2516  0.3625 -0.1222
  752POPS   C3B10505  18.565  17.429   6.550  0.1176  0.2070 -0.3058
  752POPS   C4B10506  18.511  17.840   6.770 -0.1048 -0.0244 -0.1896
  753POPS   CNO10507   5.491  12.364   4.942  0.0446  0.0768 -0.4275
  753POPS   PO410508   5.478  12.008   5.298  0.3454  0.0486 -0.1687
  753POPS   GL110509   5.348  11.792   5.728 -0.1274  0.1545  0.2920
  753POPS   GL210510   5.066  11.844   5.824 -0.3767 -0.2163 -0.0394
  753POPS   C1A10511   5.387  11.892   6.171  0.0439  0.2264  0.1138
  753POPS   D2A10512   5.213  11.920   6.486  0.1342  0.4701 -0.0611
  753POPS   C3A10513   5.229  11.725   6.875  0.0085  0.3450  0.8146
  753POPS   C4A10514   5.341  11.895   7.247  0.1300  0.0911 -0.1006
  753POPS   C1B10515   5.108  12.221   5.907  0.2790 -0.4232 -0.0266
  753POPS   C2B10516   4.985  12.578   5.952 -0.0136 -0.1335 -0.1282
  753POPS   C3B10517   4.889  12.975   5.967 -0.0936  0.2470  0.0012
  753POPS   C4B10518   4.909  13.364   5.862 -0.5769 -0.1717  0.2039
  754POPS   CNO10519  13.408   6.927   5.316 -0.1525 -0.1096 -0.0458
  754POPS   PO410520  13.471   6.803   5.681  0.2798  0.0006  0.1979
  754POPS   GL110521  13.549   6.995   6.125 -0.0771  0.6184 -0.1334
  754POPS   GL210522  13.657   7.250   6.155 -0.1521 -0.0545  0.1767
  754POPS   C1A10523  13.641   6.925   6.538 -0.0169  0.0206  0.2152
  754POPS   D2A10524  14.038   6.800   6.649  0.1483 -0.4739 -0.0813
  754POPS   C3A10525  14.227   6.732   7.029 -0.0940 -0.2992 -0.2954
  754POPS   C4A10526  14.357   6.699   7.457  0.1581  0.3765  0.5250
  754POPS   C1B10527  14.114   7.099   6.149 -0.0485  0.2557  0.1023
  754POPS   C2B10528  14.529   6.980   6.435  0.0670 -0.0864 -0.0063
  754POPS   C3B10529  14.693   6.539   6.751  0.2679 -0.0277  0.0459
  754POPS   C4B10530  14.487   6.347   7.150 -0.2944 -0.1362 -0.2064
  755POPS   CNO10531  15.478  16.186   5.246  0.0456  0.1112  0.0755
  755POPS   PO410532  15.299  16.052   5.560 -0.2381 -0.1096 -0.0907
  755POPS   GL110533  15.301  16.206   5.985  0.0611 -0.1810  0.0091
  755POPS   GL210534  14.999  16.130   6.101 -0.1613 -0.0624 -0.3527
  755POPS   C1A10535  15.399  16.440   6.444 -0.1167  0.1994 -0.2170
  755POPS   D2A10536  15.610  16.664   6.780  0.2793 -0.0722  0.3483
  755POPS   C3A10537  15.652  16.447   7.258 -0.1264  0.0793 -0.1118
  755POPS   C4A10538  15.607  16.306   7.687 -0.1618 -0.0557 -0.2353
  755POPS   C1B10539  14.947  15.822   6.377  0.1921  0.3072  0.0839
  755POPS   C2B10540  14.870  15.528   6.706  0.0436 -0.1813 -0.2297
  755POPS   C3B10541  14.857  15.460   7.228  0.1284 -0.3066 -0.0972
  755POPS   C4B10542  15.049  15.469   7.635 -0.1804 -0.2697  0.0253
  756POPS   CNO10543  11.760  15.356   5.199  0.3356  0.1980 -0.1912
  756POPS   PO410544  11.568  15.517   5.541 -0.1522  0.0929  0.0953
  756POPS   GL110545  11.700  15.293   6.021 -0.1524  0.0553  0.2369
  756POPS   GL210546  11.944  15.450   6.058 -0.0574  0.0635 -0.0390
  756POPS   C1A10547  11.691  15.116   6.392  0.2186  0.2400  0.3906
  756POPS   D2A10548  11.698  15.092   6.776 -0.2197  0.2467 -0.1208
  756POPS   C3A10549  11.601  14.914   7.151 -0.0914 -0.2082  0.3978
  756POPS   C4A10550  11.237  14.873   7.370 -0.1414 -0.3064  0.0202
  756POPS   C1B10551  12.125  15.220   6.439 -0.2779  0.1022  0.2015
  756POPS   C2B10552  12.424  15.080   6.853 -0.0562 -0.1069  0.2253
  756POPS   C3B10553  12.750  14.715   6.788  0.2486 -0.1126  0.0563
  756POPS   C4B10554  12.983  14.613   7.128 -0.1021 -0.1647  0.1431
  757POPS   CNO10555  14.723   8.171   5.347  0.0889  0.0621  0.1100
  757POPS   PO410556  14.371   7.679   5.473 -0.0225 -0.1185 -0.0997
  757POPS   GL110557  14.576   7.745   5.857 -0.4150  0.1446  0.0673
  757POPS   GL210558  14.325   7.901   6.061 -0.2351 -0.0254  0.3366
  757POPS   C1A10559  14.999   7.684   6.115  0.0677  0.0933 -0.0767
  757POPS   D2A10560  15.123   7.437   6.447  0.0978 -0.0311 -0.1634
  757POPS   C3A10561  15.385   7.378   6.801  0.1931  0.1622  0.1657
  757POPS   C4A10562  15.547   7.754   7.027 -0.1344  0.2505  0.1744
  757POPS   C1B10563  14.291   7.847   6.550  0.2549  0.0376 -0.0115
  757POPS   C2B10564  14.380   7.747   6.952 -0.3034 -0.2111  0.1463
  757POPS   C3B10565  14.123   7.734   7.244  0.4291  0.6278 -0.0154
  757POPS   C4B10566  13.910   7.553   7.555 -0.2168 -0.3457 -0.0002
  758POPS   CNO10567   6.632  17.556   6.003 -0.0099 -0.0041 -0.1350
  758POPS   PO410568   6.312  17.436   5.828 -0.0562 -0.0194 -0.1223
  758POPS   GL110569   6.258  17.346   6.271 -0.0688 -0.1375 -0.2405
  758POPS   GL210570   6.355  17.602   6.405  0.3138  0.1000  0.1212
  758POPS   C1A10571   6.212  16.957   6.454  0.2684 -0.0975 -0.0014
  758POPS   D2A10572   6.011  16.723   6.890  0.0799 -0.0314 -0.1023
  758POPS   C3A10573   6.225  16.500   7.091  0.1525  0.0889  0.0476
  758POPS   C4A10574   6.421  16.116   7.108  0.3569  0.1505  0.2883
  758POPS   C1B10575   6.216  17.317   6.872  0.0318 -0.1240 -0.1241
  758POPS   C2B10576   6.345  17.038   7.268  0.0807  0.1693 -0.2898
  758POPS   C3B10577   6.245  16.975   7.676 -0.3622 -0.0017  0.0331
  758POPS   C4B10578   5.961  17.169   7.781 -0.0618  0.0894  0.0550
  759POPS   CNO10579   6.904   4.813   5.483 -0.2738  0.2344  0.2960
  759POPS   PO410580   6.533   4.868   5.410 -0.1024  0.1016 -0.1517
  759POPS   GL110581   6.334   4.700   5.763 -0.0122 -0.2738 -0.1715
  759POPS   GL210582   6.484   4.517   5.961  0.1049  0.1600 -0.0475
  759POPS   C1A10583   6.374   4.987   6.189 -0.1686  0.2858  0.0110
  759POPS   D2A10584   6.212   5.221   6.544 -0.0802 -0.0541 -0.2669
  759POPS   C3A10585   5.968   5.379   6.925 -0.3991 -0.2167 -0.1329
  759POPS   C4A10586   5.781   5.195   7.254 -0.0828 -0.1186  0.1169
  759POPS   C1B10587   6.507   4.439   6.416  0.0677 -0.1668 -0.0918
  759POPS   C2B10588   6.478   4.365   6.851  0.3831 -0.0810  0.0923
  759POPS   C3B10589   6.380   4.380   7.233  0.0999  0.0951  0.1242
  759POPS   C4B10590   6.513   4.188   7.605  0.2218  0.0294  0.1100
  760POPS   CNO10591   7.471   6.652   5.468 -0.2080  0.1316 -0.0679
  760POPS   PO410592   7.173   6.401   5.627  0.2501 -0.3143 -0.0422
  760POPS   GL110593   7.505   6.340   5.923  0.0315 -0.0690  0.3839
  760POPS   GL210594   7.819   6.529   5.987  0.0183 -0.0319 -0.0184
  760POPS   C1A10595   7.591   6.206   6.331 -0.0317  0.4569 -0.0778
  760POPS   D2A10596   7.703   6.340   6.675  0.0491 -0.1006 -0.1592
  760POPS   C3A10597   7.755   6.067   7.082  0.0430 -0.2463  0.0883
  760POPS   C4A10598   7.958   5.714   7.215 -0.1648 -0.1080 -0.1859
  760POPS   C1B10599   7.639   6.697   6.257 -0.3315 -0.0107 -0.0496
  760POPS   C2B10600   7.591   6.850   6.666 -0.3484 -0.3345 -0.3987
  760POPS   C3B10601   7.696   6.664   7.104 -0.1234  0.3569  0.3978
  760POPS   C4B10602   7.680   6.382   7.494 -0.1895  0.0868 -0.0917
  761POPS   CNO10603  13.021   3.840   5.339  0.0566 -0.1801  0.0215
  761POPS   PO410604  12.933   4.154   5.623  0.1177  0.2403 -0.4865
  761POPS   GL110605  12.711   4.088   5.924 -0.0496  0.2526 -0.0233
  761POPS   GL210606  12.777   3.778   5.970 -0.4608  0.0313  0.2106
  761POPS   C1A10607  13.021   4.035   6.351 -0.0283  0.2735 -0.1145
  761POPS   D2A10608  13.213   3.974   6.734  0.1122  0.1487 -0.0515
  761POPS   C3A10609  13.423   4.252   6.926  0.2058  0.1150  0.0552
  761POPS   C4A10610  13.271   4.621   7.112 -0.0376  0.2788  0.3020
  761POPS   C1B10611  12.562   3.771   6.232  0.0685 -0.1290 -0.1555
  761POPS   C2B10612  12.669   4.077   6.647 -0.0355 -0.0849  0.1044
  761POPS   C3B10613  12.976   4.382   6.661  0.2201 -0.0320 -0.1754
  761POPS   C4B10614  13.156   4.844   6.574 -0.1926  0.0151 -0.3138
  762POPS   CNO10615  10.468   9.340   5.122 -0.0695 -0.0173 -0.1720
  762POPS   PO410616  10.422   9.554   5.482 -0.0853 -0.2416  0.1374
  762POPS   GL110617  10.541   9.563   5.921 -0.1823  0.2014  0.1183
  762POPS   GL210618  10.209   9.380   5.916  0.2061  0.1657 -0.1716
  762POPS   C1A10619  10.663   9.641   6.394  0.3103 -0.0622  0.2373
  762POPS   D2A10620  10.770   9.453   6.812  0.1299  0.0606  0.0291
  762POPS   C3A10621  11.031   8.936   6.955  0.4500  0.1955  0.3483
  762POPS   C4A10622  11.146   8.805   7.368 -0.1313 -0.0933 -0.1684
  762POPS   C1B10623   9.830   9.222   6.214  0.0839 -0.1344  0.0243
  762POPS   C2B10624   9.783   9.354   6.682  0.0867 -0.4066 -0.1572
  762POPS   C3B10625   9.806   9.416   7.084  0.0975 -0.0497 -0.0067
  762POPS   C4B10626   9.540   9.596   7.413  0.6046  0.0351  0.1193
  763POPS   CNO10627   3.796   0.361   5.344 -0.0672  0.4150 -0.1028
  763POPS   PO410628   3.923   0.344   5.713  0.0834 -0.4751  0.2722
  763POPS   GL110629   3.942   0.231   6.136 -0.1665 -0.3527  0.2166
  763POPS   GL210630   3.606   0.440   6.240 -0.0901  0.1164 -0.0297
  763POPS   C1A10631   3.899   0.190   6.570 -0.0522  0.1173 -0.0425
  763POPS   D2A10632   4.003  -0.118   6.806  0.4908 -0.0422 -0.0148
  763POPS   C3A10633   4.394  -0.212   6.903  0.0892 -0.1428  0.0364
  763POPS   C4A10634   4.635  -0.305   7.244  0.2076 -0.0318  0.0370
  763POPS   C1B10635   3.437   0.537   6.598  0.0271 -0.2946 -0.2032
  763POPS   C2B10636   3.400   0.634   7.002  0.0031 -0.0561 -0.1910
  763POPS   C3B10637   3.508   0.643   7.508 -0.0874  0.0268 -0.0262
  763POPS   C4B10638   3.263   0.916   7.654  0.0459  0.1979  0.0705
  764POPS   CNO10639  16.557  17.922   5.082 -0.1040 -0.3371  0.1172
  764POPS   PO410640  16.823  17.527   5.136  0.3297  0.0815 -0.0722
  764POPS   GL110641  16.636  17.478   5.515  0.0324 -0.0344 -0.0495
  764POPS   GL210642  16.519  17.119   5.600 -0.1388 -0.1881  0.1182
  764POPS   C1A10643  16.823  17.418   5.922  0.2930 -0.4680  0.1777
  764POPS   D2A10644  16.849  17.356   6.466  0.0404 -0.3102  0.3395
  764POPS   C3A10645  17.103  16.998   6.684  0.0572 -0.0179  0.2384
  764POPS   C4A10646  17.285  16.640   6.762  0.1043  0.0554  0.1412
  764POPS   C1B10647  16.686  16.836   5.947 -0.1323  0.0276 -0.3281
  764POPS   C2B10648  16.748  16.770   6.418 -0.2267 -0.1493  0.1060
  764POPS   C3B10649  16.796  16.746   6.935 -0.2031 -0.0137 -0.2742
  764POPS   C4B10650  17.143  16.921   7.224  0.0504  0.2014  0.0583
  765POPS   CNO10651   2.117   8.652   5.415  0.1316 -0.1436 -0.1146
  765POPS   PO410652   1.949   9.056   5.419  0.1251  0.0002 -0.1612
  765POPS   GL110653   1.963   8.987   5.800  0.0383 -0.1021  0.4846
  765POPS   GL210654   2.266   9.240   5.853  0.1146 -0.0873  0.3013
  765POPS   C1A10655   1.996   8.794   6.229 -0.1825 -0.1293  0.1484
  765POPS   D2A10656   2.078   8.807   6.727 -0.1346 -0.2314  0.1808
  765POPS   C3A10657   1.761   8.916   7.045  0.1279  0.1999  0.0885
  765POPS   C4A10658   1.977   9.132   7.397  0.1859  0.0832  0.0987
  765POPS   C1B10659   2.212   9.232   6.224  0.1333  0.1107  0.1972
  765POPS   C2B10660   2.352   9.240   6.600  0.1552  0.1124 -0.3039
  765POPS   C3B10661   2.358   9.087   7.044 -0.0797 -0.5732 -0.0922
  765POPS   C4B10662   2.457   9.146   7.476  0.0422  0.0829 -0.0220
  766POPS   CNO10663   2.207   6.542   5.103 -0.1674 -0.0065 -0.0898
  766POPS   PO410664   1.977   6.642   5.582 -0.3983  0.2219  0.0384
  766POPS   GL110665   2.262   6.816   5.920  0.0998  0.1805 -0.0815
  766POPS   GL210666   2.599   6.884   5.948 -0.1629 -0.0192 -0.3873
  766POPS   C1A10667   2.160   6.865   6.294 -0.1563  0.2591 -0.0507
  766POPS   D2A10668   2.186   7.224   6.518  0.0211 -0.0988 -0.2221
  766POPS   C3A10669   1.919   7.239   6.921  0.1455  0.2350 -0.4260
  766POPS   C4A10670   1.864   7.618   7.162 -0.1452  0.0290  0.2748
  766POPS   C1B10671   2.614   6.987   6.387  0.0679 -0.2224 -0.0549
  766POPS   C2B10672   2.645   7.300   6.681  0.1078  0.2778  0.2558
  766POPS   C3B10673   2.409   7.115   7.108 -0.1523 -0.2574  0.0025
  766POPS   C4B10674   2.220   6.810   7.273  0.2846  0.2239 -0.0328
  767POPS   CNO10675  17.030  16.290   4.755 -0.1567 -0.0979  0.0169
  767POPS   PO410676  17.056  16.310   5.184 -0.0147 -0.0057 -0.0088
  767POPS   GL110677  17.024  16.336   5.622 -0.1396  0.2604  0.4329
  767POPS   GL210678  17.076  16.587   5.766 -0.1544  0.1908  0.2226
  767POPS   C1A10679  17.413  16.335   5.942  0.2033  0.2949 -0.1554
  767POPS   D2A10680  17.382  16.206   6.375 -0.1837 -0.2810 -0.0314
  767POPS   C3A10681  17.636  16.279   6.642 -0.0468  0.2244 -0.0149
  767POPS   C4A10682  17.543  16.396   7.045  0.0226 -0.0876 -0.0057
  767POPS   C1B10683  16.922  16.413   6.154 -0.1481 -0.2289  0.0459
  767POPS   C2B10684  16.982  16.358   6.597  0.0846  0.3886  0.2198
  767POPS   C3B10685  16.964  16.262   6.965  0.1171  0.0823 -0.3891
  767POPS   C4B10686  16.976  16.475   7.344  0.0923  0.1595  0.2593
  768POPS   CNO10687   8.811   6.273   5.258 -0.2004  0.2731 -0.3017
  768POPS   PO410688   9.218   6.223   5.383  0.1170  0.0345 -0.1047
  768POPS   GL110689   9.135   6.445   5.716  0.0577  0.1138  0.2433
  768POPS   GL210690   8.874   6.427   5.797  0.0759 -0.2258  0.3021
  768POPS   C1A10691   9.025   6.753   6.148  0.2077  0.0409 -0.1920
  768POPS   D2A10692   9.030   6.687   6.588  0.1622  0.1761 -0.0926
  768POPS   C3A10693   9.065   6.936   6.926 -0.0820  0.1179 -0.0120
  768POPS   C4A10694   9.233   7.055   7.384  0.1235  0.2688  0.0728
  768POPS   C1B10695   9.205   6.299   6.173  0.2356  0.0435 -0.2415
  768POPS   C2B10696   9.133   6.232   6.728  0.1727  0.0378  0.0250
  768POPS   C3B10697   9.407   6.105   7.105 -0.2042  0.1930  0.0355
  768POPS   C4B10698   9.478   5.851   7.506 -0.0978  0.1903 -0.3428
  769POPS   CNO10699   6.105   6.180   5.244 -0.0477  0.0557  0.2437
  769POPS   PO410700   6.500   6.352   5.467  0.0990  0.1150 -0.0438
  769POPS   GL110701   6.224   6.240   5.700  0.3924 -0.2644  0.0892
  769POPS   GL210702   6.271   6.206   5.972  0.1535  0.1043 -0.1845
  769POPS   C1A10703   5.784   6.363   6.008  0.1532 -0.0420 -0.3165
  769POPS   D2A10704   5.623   6.349   6.549  0.0425 -0.1730 -0.0439
  769POPS   C3A10705   5.689   6.557   6.940 -0.2080 -0.0139  0.3091
  769POPS   C4A10706   5.446   6.488   7.317 -0.2205  0.0813 -0.3940
  769POPS   C1B10707   6.158   6.163   6.424  0.1242 -0.0291 -0.2348
  769POPS   C2B10708   6.021   6.178   6.861 -0.0453  0.1885 -0.1208
  769POPS   C3B10709   5.678   6.066   7.021 -0.0765  0.0724 -0.2762
  769POPS   C4B10710   5.465   5.741   6.984  0.2711 -0.0045 -0.1139
  770POPS   CNO10711  11.826  17.800   5.756  0.1491 -0.1180  0.1915
  770POPS   PO410712  11.656  18.146   5.578  0.0576  0.1602 -0.0356
  770POPS   GL110713  11.589  18.132   6.089 -0.0870  0.1283  0.1776
  770POPS   GL210714  11.755  18.298   6.297  0.2538 -0.1432 -0.2295
  770POPS   C1A10715  11.305  18.176   6.393 -0.2178 -0.1162  0.4038
  770POPS   D2A10716  11.053  18.321   6.705  0.2356  0.0025 -0.2018
  770POPS   C3A10717  10.856  18.629   6.868 -0.0920 -0.0697 -0.3754
  770POPS   C4A10718  11.026  18.973   6.955 -0.0558 -0.1083 -0.2307
  770POPS   C1B10719  11.714  18.058   6.622 -0.0854 -0.2848 -0.2745
  770POPS   C2B10720  11.450  18.146   7.018 -0.0475 -0.2620  0.0619
  770POPS   C3B10721  11.432  18.079   7.513  0.0219 -0.0956 -0.1913
  770POPS   C4B10722  11.060  18.130   7.829 -0.0013  0.3295 -0.2200
  771POPS   CNO10723  18.158   6.468   5.824 -0.2812  0.2519  0.3460
  771POPS   PO410724  18.566   6.286   5.866 -0.4442 -0.1791  0.0910
  771POPS   GL110725  18.541   6.232   6.171  0.1902  0.0533 -0.0227
  771POPS   GL210726  18.395   6.343   6.422  0.2140  0.0432 -0.2259
  771POPS   C1A10727  18.754   5.912   6.497 -0.3509 -0.0246  0.2973
  771POPS   D2A10728  18.947   5.930   6.914 -0.1812  0.2248 -0.1687
  771POPS   C3A10729  18.804   5.806   7.374 -0.0843  0.0612  0.1685
  771POPS   C4A10730  18.786   5.401   7.505  0.0974  0.3814  0.2182
  771POPS   C1B10731  18.558   6.325   6.688  0.2581 -0.3516 -0.2215
  771POPS   C2B10732  18.442   6.230   7.071  0.1541  0.3225 -0.0684
  771POPS   C3B10733  18.535   6.278   7.497  0.1845  0.0525 -0.1227
  771POPS   C4B10734  18.455   6.295   7.932 -0.1089 -0.0497  0.1251
  772POPS   CNO10735  13.391   1.348   5.913  0.1311  0.0180  0.2033
  772POPS   PO410736  13.524   1.714   5.730 -0.0015  0.0810 -0.3073
  772POPS   GL110737  13.802   1.541   6.163  0.1384 -0.2150 -0.0505
  772POPS   GL210738  13.964   1.276   6.003  0.3649 -0.1341  0.2377
  772POPS   C1A10739  13.801   1.488   6.713 -0.1624  0.0604  0.0776
  772POPS   D2A10740  13.658   1.427   7.124 -0.3339 -0.1632 -0.0114
  772POPS   C3A10741  13.592   0.997   7.414  0.1159 -0.1658  0.3079
  772POPS   C4A10742  13.549   0.871   7.769  0.1102  0.0897  0.1411
  772POPS   C1B10743  14.098   1.134   6.444  0.0230  0.2577  0.1488
  772POPS   C2B10744  14.355   1.035   6.830  0.0366  0.0456 -0.0229
  772POPS   C3B10745  14.694   1.043   7.123  0.0617  0.0864 -0.1029
  772POPS   C4B10746  14.767   1.396   7.381 -0.3001  0.2338 -0.1461
  773POPS   CNO10747  11.338  12.501   5.090 -0.2050 -0.2773  0.2783
  773POPS   PO410748  11.628  12.382   5.480 -0.1840 -0.1229  0.0543
  773POPS   GL110749  11.550  12.477   5.930  0.0148 -0.0481 -0.2025
  773POPS   GL210750  11.243  12.362   5.826  0.1674  0.3097  0.2284
  773POPS   C1A10751  11.506  12.476   6.372  0.0117 -0.1858 -0.0680
  773POPS   D2A10752  11.324  12.461   6.797  0.0048  0.0072  0.1004
  773POPS   C3A10753  11.282  12.303   7.111 -0.2183  0.0958 -0.0620
  773POPS   C4A10754  11.119  12.129   7.511 -0.2462  0.1467 -0.0956
  773POPS   C1B10755  11.173  12.134   6.208 -0.2125  0.3182  0.2161
  773POPS   C2B10756  11.077  12.078   6.680 -0.0551 -0.0606  0.0855
  773POPS   C3B10757  10.821  11.947   7.089  0.2765 -0.1063  0.0445
  773POPS   C4B10758  10.670  11.794   7.536  0.1853 -0.0726  0.1300
  774POPS   CNO10759  18.830  12.464   5.501 -0.0738 -0.1914  0.4034
  774POPS   PO410760  19.308  12.318   5.580 -0.3013 -0.0650  0.1566
  774POPS   GL110761  19.201  12.206   5.975  0.0209 -0.2595 -0.0084
  774POPS   GL210762  18.857  12.488   6.016  0.1191 -0.0026 -0.0957
  774POPS   C1A10763  19.077  12.179   6.450  0.0898  0.0263 -0.0029
  774POPS   D2A10764  19.370  12.094   6.899  0.3390 -0.5118 -0.0115
  774POPS   C3A10765  19.560  11.643   6.990  0.1299 -0.4389 -0.1451
  774POPS   C4A10766  19.667  11.503   7.427  0.0740 -0.3413  0.1878
  774POPS   C1B10767  18.770  12.606   6.432  0.1220 -0.0187 -0.0365
  774POPS   C2B10768  18.950  12.562   6.843  0.0651  0.2644 -0.2154
  774POPS   C3B10769  19.066  12.341   7.205 -0.3215 -0.7651  0.2255
  774POPS   C4B10770  19.250  12.071   7.408  0.2797  0.1078  0.1145
  775POPS   CNO10771   0.534   5.307   5.727 -0.0660  0.1243 -0.1935
  775POPS   PO410772   0.032   5.467   5.741 -0.0584  0.2233 -0.1336
  775POPS   GL110773   0.219   5.316   6.166  0.2092  0.1442 -0.0218
  775POPS   GL210774   0.520   5.333   6.266 -0.1952  0.1643 -0.1977
  775POPS   C1A10775   0.259   5.122   6.607  0.0537 -0.0251  0.0244
  775POPS   D2A10776   0.374   5.248   6.967  0.1618  0.2371 -0.0707
  775POPS   C3A10777   0.615   4.963   7.214  0.1277  0.1207  0.0706
  775POPS   C4A10778   0.734   4.917   7.545 -0.0961 -0.1438  0.2118
  775POPS   C1B10779   0.591   5.597   6.659 -0.4795  0.0928  0.1192
  775POPS   C2B10780   0.853   5.960   6.720 -0.4368  0.0712  0.4164
  775POPS   C3B10781   1.103   6.244   7.027  0.0671  0.2769  0.0481
  775POPS   C4B10782   1.379   6.297   7.440  0.1071  0.0065 -0.1891
  776POPS   CNO10783  12.945  18.309   5.608  0.0324  0.2313 -0.0645
  776POPS   PO410784  13.336  18.385   5.549  0.0597  0.3294 -0.0733
  776POPS   GL110785  13.290  18.252   5.992 -0.1312  0.0699 -0.0545
  776POPS   GL210786  13.517  18.022   6.075  0.0265  0.2969 -0.0648
  776POPS   C1A10787  13.216  18.399   6.319  0.1713 -0.0887 -0.1283
  776POPS   D2A10788  13.461  18.292   6.624 -0.2619  0.3493  0.1355
  776POPS   C3A10789  13.698  18.520   6.912 -0.2744  0.2594 -0.1738
  776POPS   C4A10790  13.777  18.504   7.317  0.0337  0.3982 -0.2186
  776POPS   C1B10791  13.690  17.831   6.504 -0.0621  0.0231  0.1634
  776POPS   C2B10792  13.704  17.980   6.983 -0.0125 -0.0236 -0.2470
  776POPS   C3B10793  14.084  18.100   7.231 -0.0701 -0.2790 -0.0929
  776POPS   C4B10794  14.523  18.097   7.508  0.2410 -0.0646 -0.0944
  777POPS   CNO10795  14.737   5.262   4.679 -0.1294  0.0260 -0.2225
  777POPS   PO410796  14.959   5.216   5.093  0.1176  0.3559 -0.0373
  777POPS   GL110797  14.896   5.464   5.529  0.0822  0.2424 -0.2847
  777POPS   GL210798  14.597   5.288   5.508 -0.1949 -0.3251  0.1809
  777POPS   C1A10799  15.254   5.626   5.851 -0.0099  0.1745 -0.0768
  777POPS   D2A10800  15.493   5.805   6.236  0.1375 -0.1060  0.1338
  777POPS   C3A10801  15.333   5.502   6.439  0.2647 -0.3491 -0.0830
  777POPS   C4A10802  15.248   5.081   6.685  0.2604  0.1640 -0.2210
  777POPS   C1B10803  14.463   5.319   5.922  0.0071 -0.0609  0.0935
  777POPS   C2B10804  14.140   5.646   6.070 -0.2311  0.0058 -0.3531
  777POPS   C3B10805  14.133   5.892   6.327 -0.0688 -0.2010  0.0907
  777POPS   C4B10806  14.271   6.079   6.745  0.1074 -0.1849  0.1080
  778POPS   CNO10807  16.633  13.815   5.730  0.0974 -0.0018 -0.0861
  778POPS   PO410808  16.606  13.544   5.273 -0.1897 -0.1156  0.0897
  778POPS   GL110809  16.540  13.341   5.565 -0.1786 -0.0171  0.5580
  778POPS   GL210810  16.400  13.432   5.909 -0.2097  0.1376  0.2961
  778POPS   C1A10811  16.503  12.932   5.931  0.0985  0.1796 -0.4627
  778POPS   D2A10812  16.391  12.572   6.075  0.2114  0.0019  0.4233
  778POPS   C3A10813  16.309  12.409   6.467 -0.1127 -0.1558 -0.2792
  778POPS   C4A10814  16.072  12.636   6.779  0.0860 -0.3319 -0.3068
  778POPS   C1B10815  16.527  13.502   6.259 -0.0279 -0.0429 -0.0525
  778POPS   C2B10816  16.496  13.508   6.710 -0.0313 -0.3692  0.0751
  778POPS   C3B10817  16.727  13.546   7.057 -0.3796  0.1809  0.1133
  778POPS   C4B10818  16.597  13.493   7.513  0.0767 -0.0411  0.1076
  779POPS   CNO10819  13.893  11.055   4.913  0.1154  0.1251 -0.0567
  779POPS   PO410820  14.175  11.230   5.177  0.1168  0.1827  0.4120
  779POPS   GL110821  14.022  11.260   5.641 -0.0928 -0.0356 -0.1047
  779POPS   GL210822  14.152  11.061   5.861 -0.1049 -0.1094 -0.1590
  779POPS   C1A10823  13.918  11.596   5.918 -0.0983 -0.2451  0.1932
  779POPS   D2A10824  13.641  11.641   6.272 -0.2734 -0.1809  0.0667
  779POPS   C3A10825  13.640  11.818   6.582  0.2674 -0.1473  0.2110
  779POPS   C4A10826  13.384  11.968   6.977 -0.1637  0.0057 -0.2455
  779POPS   C1B10827  13.993  11.212   6.292 -0.1170 -0.2673  0.2936
  779POPS   C2B10828  13.817  11.271   6.730  0.4289 -0.2820  0.3853
  779POPS   C3B10829  13.913  11.114   7.208 -0.0981 -0.0512 -0.0019
  779POPS   C4B10830  13.766  10.909   7.518  0.1811 -0.1510 -0.1011
  780POPS   CNO10831  10.706  13.390   5.098  0.1076 -0.1374 -0.1105
  780POPS   PO410832  10.455  13.331   5.347  0.1947 -0.1178 -0.0307
  780POPS   GL110833  10.247  13.054   5.479 -0.0608 -0.2256 -0.3039
  780POPS   GL210834  10.018  12.980   5.511  0.1889  0.1178  0.2402
  780POPS   C1A10835  10.409  12.695   5.715  0.0715  0.0365  0.0849
  780POPS   D2A10836  10.738  12.659   5.801  0.0971  0.2716  0.3299
  780POPS   C3A10837  10.895  12.522   6.188  0.1334 -0.1225 -0.1580
  780POPS   C4A10838  10.822  12.535   6.558  0.0727  0.0190  0.1385
  780POPS   C1B10839  10.027  12.837   6.007 -0.0414  0.1021 -0.1320
  780POPS   C2B10840  10.088  12.996   6.379  0.2996  0.1815  0.2135
  780POPS   C3B10841   9.960  13.062   6.777  0.2909 -0.1200 -0.1536
  780POPS   C4B10842   9.947  13.016   7.163 -0.2700  0.4554  0.4914
  781POPS   CNO10843   8.889   3.181   6.035 -0.0910  0.1433 -0.3659
  781POPS   PO410844   8.958   3.627   5.748 -0.1436 -0.0860  0.0368
  781POPS   GL110845   8.969   3.711   6.249  0.0940 -0.2857  0.0036
  781POPS   GL210846   8.820   3.470   6.457  0.0957 -0.0656  0.1903
  781POPS   C1A10847   8.993   3.960   6.609 -0.0381  0.1404 -0.2016
  781POPS   D2A10848   8.980   4.277   6.819 -0.0356  0.3646 -0.2026
  781POPS   C3A10849   8.550   4.458   7.057  0.4874 -0.2130 -0.2639
  781POPS   C4A10850   8.492   4.724   7.138  0.1446  0.2228  0.1689
  781POPS   C1B10851   8.791   3.345   6.799  0.0971  0.1004 -0.1562
  781POPS   C2B10852   8.478   3.480   7.093 -0.3413 -0.0295 -0.1431
  781POPS   C3B10853   8.238   3.532   7.428  0.1717  0.0924  0.2546
  781POPS   C4B10854   7.970   3.463   7.797  0.0517 -0.1629  0.3612
  782POPS   CNO10855  12.694   2.462   5.509 -0.0186 -0.0174 -0.1664
  782POPS   PO410856  12.880   2.863   5.439  0.0415  0.0524 -0.2136
  782POPS   GL110857  13.084   3.031   5.727  0.0645  0.1416 -0.0634
  782POPS   GL210858  13.100   3.347   5.797  0.2753 -0.1633  0.0975
  782POPS   C1A10859  13.022   2.937   6.252 -0.0768 -0.2536  0.2825
  782POPS   D2A10860  13.203   3.014   6.563 -0.2679  0.1499  0.4749
  782POPS   C3A10861  13.105   3.174   6.966  0.3482  0.0941  0.0583
  782POPS   C4A10862  13.274   3.000   7.407  0.4038  0.2015  0.0352
  782POPS   C1B10863  13.121   3.454   6.301 -0.0844  0.2693 -0.1578
  782POPS   C2B10864  12.871   3.627   6.638  0.0398 -0.0211 -0.3176
  782POPS   C3B10865  12.786   3.578   7.096 -0.0788 -0.2361 -0.1782
  782POPS   C4B10866  12.616   3.857   7.498  0.2678  0.1337  0.0621
  783POPS   CNO10867  15.271   6.443   5.465 -0.1676 -0.0226 -0.1405
  783POPS   PO410868  14.939   6.620   5.439 -0.0119 -0.1077 -0.0441
  783POPS   GL110869  14.814   6.780   5.835 -0.1689 -0.0803  0.0362
  783POPS   GL210870  14.551   6.660   5.930 -0.2149  0.3186  0.0931
  783POPS   C1A10871  14.882   7.195   6.065  0.0929 -0.1959  0.0103
  783POPS   D2A10872  14.539   7.459   6.330 -0.0067 -0.1161  0.3208
  783POPS   C3A10873  14.602   7.373   6.719  0.2003 -0.2266  0.3689
  783POPS   C4A10874  14.477   7.170   7.056 -0.0626  0.2497  0.1641
  783POPS   C1B10875  14.308   6.531   6.234  0.2804 -0.2392  0.2422
  783POPS   C2B10876  13.914   6.368   6.513 -0.0763  0.4614  0.2287
  783POPS   C3B10877  13.525   6.078   6.535 -0.0423  0.1198 -0.1163
  783POPS   C4B10878  13.036   5.867   6.495  0.4976 -0.0469  0.0570
  784POPS   CNO10879   1.333  14.347   5.452  0.2334  0.0828  0.0405
  784POPS   PO410880   1.517  13.932   5.694  0.2491  0.1558  0.0914
  784POPS   GL110881   1.609  14.256   6.098  0.1054  0.3973  0.0183
  784POPS   GL210882   1.719  14.372   5.840  0.1258 -0.1222 -0.1181
  784POPS   C1A10883   1.363  14.292   6.474  0.0005 -0.0826  0.1021
  784POPS   D2A10884   1.054  14.254   6.837 -0.2602  0.1466  0.2583
  784POPS   C3A10885   1.301  14.355   7.183  0.1000  0.0469  0.0447
  784POPS   C4A10886   1.309  14.429   7.638 -0.0068 -0.0376  0.2961
  784POPS   C1B10887   1.504  14.760   6.088  0.0925  0.1535 -0.1228
  784POPS   C2B10888   1.108  14.778   6.512  0.0250 -0.1785 -0.1395
  784POPS   C3B10889   1.005  14.717   6.945  0.0285  0.1273 -0.1737
  784POPS   C4B10890   1.102  14.803   7.365  0.1149 -0.1359  0.1058
  785POPS   CNO10891  11.131   5.467   5.487  0.0299  0.0931  0.1253
  785POPS   PO410892  11.556   5.355   5.595  0.0268  0.0695  0.2146
  785POPS   GL110893  11.418   5.556   5.928 -0.1446 -0.2316 -0.1864
  785POPS   GL210894  11.435   5.337   6.249 -0.2307 -0.0187 -0.0343
  785POPS   C1A10895  11.233   5.834   6.230 -0.2325 -0.2657  0.1378
  785POPS   D2A10896  11.190   5.954   6.571 -0.0246 -0.0282 -0.0281
  785POPS   C3A10897  11.367   5.930   6.956  0.1705  0.2134 -0.2094
  785POPS   C4A10898  11.349   5.668   7.215  0.3098 -0.1110 -0.0073
  785POPS   C1B10899  11.528   5.612   6.570 -0.2778 -0.3168 -0.0376
  785POPS   C2B10900  11.897   5.724   6.857 -0.0623  0.1525  0.1841
  785POPS   C3B10901  11.896   5.646   7.240 -0.1197 -0.3212 -0.0698
  785POPS   C4B10902  11.661   5.703   7.694  0.0043 -0.4632 -0.2496
  786POPS   CNO10903   5.287   0.252   5.493 -0.1361  0.0788  0.0869
  786POPS   PO410904   5.490  -0.032   5.789  0.0720 -0.0435  0.2076
  786POPS   GL110905   5.471   0.041   6.274 -0.2651 -0.3264  0.0849
  786POPS   GL210906   5.182   0.221   6.436  0.0720 -0.0965 -0.1652
  786POPS   C1A10907   5.312  -0.203   6.582  0.2691  0.1127 -0.0707
  786POPS   D2A10908   5.482  -0.500   6.719 -0.1061  0.0698  0.1548
  786POPS   C3A10909   5.560  -0.591   7.188 -0.1241  0.3083  0.4061
  786POPS   C4A10910   5.411  -0.762   7.609 -0.1486 -0.1998  0.2355
  786POPS   C1B10911   4.871   0.048   6.697  0.0586 -0.0646  0.1044
  786POPS   C2B10912   4.708   0.189   7.046  0.0183 -0.1616 -0.1915
  786POPS   C3B10913   4.763   0.384   7.431  0.0861  0.2330  0.0155
  786POPS   C4B10914   4.907   0.389   7.854  0.0132 -0.1072  0.0785
  787POPS   CNO10915  16.684  16.671   5.481  0.3603  0.0323  0.0250
  787POPS   PO410916  16.291  16.431   5.396  0.1558  0.3315 -0.1712
  787POPS   GL110917  16.203  16.751   5.683  0.1067  0.3706 -0.0039
  787POPS   GL210918  16.093  16.613   5.958 -0.0898  0.0537 -0.3082
  787POPS   C1A10919  16.346  17.169   6.036 -0.0467 -0.0043 -0.1106
  787POPS   D2A10920  16.413  17.226   6.438 -0.0514  0.1240 -0.3285
  787POPS   C3A10921  16.460  17.325   6.830  0.0142 -0.1263 -0.2205
  787POPS   C4A10922  16.591  17.268   7.240  0.2229 -0.0987  0.3920
  787POPS   C1B10923  16.279  16.739   6.274  0.0237  0.6116  0.1606
  787POPS   C2B10924  16.332  16.746   6.737 -0.1057  0.3189  0.0832
  787POPS   C3B10925  16.061  16.616   6.971 -0.2263 -0.0661  0.1772
  787POPS   C4B10926  16.120  16.392   7.410  0.0022  0.1660 -0.1073
  788POPS   CNO10927  15.332   1.506   5.390  0.1206 -0.0918 -0.2668
  788POPS   PO410928  15.602   1.199   5.280 -0.0198 -0.1360  0.2525
  788POPS   GL110929  15.695   1.457   5.720 -0.3325 -0.0897 -0.2422
  788POPS   GL210930  15.469   1.765   5.809 -0.2513  0.2085 -0.1050
  788POPS   C1A10931  15.849   1.539   6.075  0.0450  0.0416  0.0805
  788POPS   D2A10932  15.939   1.423   6.480 -0.3972 -0.2199  0.0725
  788POPS   C3A10933  15.775   1.628   6.764 -0.2315 -0.4330 -0.2060
  788POPS   C4A10934  16.018   1.933   6.986  0.1176 -0.4055  0.0227
  788POPS   C1B10935  15.482   1.857   6.294 -0.3055 -0.1335  0.2538
  788POPS   C2B10936  15.591   2.096   6.683  0.1165  0.0789  0.1650
  788POPS   C3B10937  15.722   2.432   6.845 -0.3122 -0.4419  0.1163
  788POPS   C4B10938  15.559   2.596   7.173  0.3047  0.0180 -0.3387
  789POPS   CNO10939  14.286   3.068   5.230  0.1164 -0.3459  0.2264
  789POPS   PO410940  13.790   2.871   5.145 -0.3013  0.1399 -0.0075
  789POPS   GL110941  13.760   2.785   5.589 -0.1011  0.2215 -0.2051
  789POPS   GL210942  14.072   2.644   5.582  0.2485 -0.1837 -0.1346
  789POPS   C1A10943  13.804   2.575   6.026  0.1351 -0.0212 -0.0943
  789POPS   D2A10944  13.981   2.496   6.425  0.3295  0.1422  0.1749
  789POPS   C3A10945  13.904   2.544   6.822  0.1197  0.1665 -0.0152
  789POPS   C4A10946  14.060   2.457   7.214  0.2010 -0.0609  0.1599
  789POPS   C1B10947  14.344   2.685   6.022 -0.1701 -0.0861 -0.1372
  789POPS   C2B10948  14.334   2.897   6.430  0.0702  0.1201  0.2690
  789POPS   C3B10949  14.324   2.878   6.793 -0.2912  0.0863  0.0164
  789POPS   C4B10950  14.201   2.950   7.210 -0.0202  0.0677 -0.1399
  790POPS   CNO10951   4.890   0.540   5.677  0.1257 -0.1182 -0.3047
  790POPS   PO410952   4.825   0.484   6.096  0.0628  0.2758  0.1460
  790POPS   GL110953   4.451   0.659   6.330  0.1347  0.2122  0.0166
  790POPS   GL210954   4.357   0.970   6.248 -0.0687  0.2018 -0.4478
  790POPS   C1A10955   4.435   0.679   6.789 -0.0615  0.2475  0.1774
  790POPS   D2A10956   4.571   0.861   7.083 -0.1541  0.0807  0.1472
  790POPS   C3A10957   4.436   0.710   7.375  0.4823 -0.0641  0.2975
  790POPS   C4A10958   4.031   0.988   7.661 -0.5331  0.2221 -0.3438
  790POPS   C1B10959   4.361   1.267   6.666  0.0776  0.0163  0.0121
  790POPS   C2B10960   4.538   1.389   7.027  0.0388  0.1514  0.0624
  790POPS   C3B10961   4.298   1.443   7.439 -0.2410  0.0675 -0.0858
  790POPS   C4B10962   4.104   1.412   7.861  0.1980  0.1993  0.1865
  791POPS   CNO10963   8.282  11.317   5.435  0.2163 -0.0228 -0.0823
  791POPS   PO410964   8.003  11.596   5.348 -0.0365  0.0393 -0.2922
  791POPS   GL110965   8.006  11.595   5.872  0.1885  0.4097 -0.4112
  791POPS   GL210966   8.007  11.872   5.988 -0.0415  0.1570 -0.0017
  791POPS   C1A10967   7.918  11.429   6.028 -0.1876 -0.1848 -0.1272
  791POPS   D2A10968   7.811  11.507   6.336  0.0618 -0.1959  0.1041
  791POPS   C3A10969   7.589  11.237   6.435  0.2435  0.2135 -0.1428
  791POPS   C4A10970   7.226  10.973   6.561  0.2572  0.0853  0.0304
  791POPS   C1B10971   8.130  12.118   6.238  0.1176 -0.0281 -0.0189
  791POPS   C2B10972   8.454  12.204   6.439  0.0232 -0.1850  0.1039
  791POPS   C3B10973   8.689  12.416   6.697  0.0576 -0.1271  0.1462
  791POPS   C4B10974   8.524  12.650   7.048 -0.2612 -0.1761  0.2057
  792POPS   CNO10975  15.668  12.766   4.895 -0.1568  0.0227  0.1967
  792POPS   PO410976  15.755  12.617   5.334  0.0989 -0.3416  0.0628
  792POPS   GL110977  15.919  12.565   5.724  0.3011 -0.1299 -0.0072
  792POPS   GL210978  16.125  12.335   5.726  0.1840 -0.0172 -0.2079
  792POPS   C1A10979  15.908  12.684   6.161  0.1070  0.0067  0.2188
  792POPS   D2A10980  15.797  12.910   6.529  0.0131  0.0772 -0.2835
  792POPS   C3A10981  15.836  13.001   7.044 -0.1505  0.0034  0.1468
  792POPS   C4A10982  15.975  13.088   7.479  0.3025  0.0830 -0.0286
  792POPS   C1B10983  15.936  12.189   6.164 -0.1194  0.3472  0.0510
  792POPS   C2B10984  15.838  12.175   6.585  0.0993 -0.0259  0.1333
  792POPS   C3B10985  15.916  12.177   6.949 -0.4739  0.2753  0.1128
  792POPS   C4B10986  16.030  11.729   7.145 -0.0445 -0.0645 -0.1598
  793POPS   CNO10987  11.892   4.473   5.935 -0.2367 -0.4940 -0.0509
  793POPS   PO410988  12.310   4.320   5.811 -0.1549 -0.2184  0.3693
  793POPS   GL110989  12.343   4.363   6.177 -0.0193  0.1375 -0.0528
  793POPS   GL210990  12.613   4.379   6.261 -0.0543 -0.0681  0.0422
  793POPS   C1A10991  12.174   4.130   6.516 -0.1667 -0.1434  0.0378
  793POPS   D2A10992  12.205   4.197   6.964 -0.1424 -0.0389  0.3508
  793POPS   C3A10993  12.632   4.128   7.107 -0.1697 -0.0982 -0.0952
  793POPS   C4A10994  12.970   4.215   7.423  0.1229 -0.1279  0.1487
  793POPS   C1B10995  12.480   4.519   6.694 -0.1349 -0.1223  0.1534
  793POPS   C2B10996  12.378   5.005   6.823  0.0120  0.2471 -0.2852
  793POPS   C3B10997  12.224   5.080   7.179  0.0822 -0.1201 -0.0968
  793POPS   C4B10998  12.375   5.358   7.373 -0.3564  0.0759  0.0965
  794POPS   CNO10999  14.177   4.642   4.996 -0.0916  0.2896 -0.2528
  794POPS   PO411000  14.188   4.247   5.249  0.2592 -0.0350  0.0023
  794POPS   GL111001  14.106   4.465   5.746  0.0968  0.0934  0.2662
  794POPS   GL211002  13.816   4.288   5.854 -0.1160  0.0004 -0.1085
  794POPS   C1A11003  14.311   4.396   6.129  0.4937  0.0081  0.0548
  794POPS   D2A11004  14.616   4.435   6.507 -0.0672 -0.0727 -0.1879
  794POPS   C3A11005  14.470   4.536   6.872 -0.0458 -0.0176  0.0298
  794POPS   C4A11006  14.190   4.715   7.040 -0.3167  0.0403 -0.0463
  794POPS   C1B11007  13.992   3.973   6.038 -0.3056 -0.0032 -0.3669
  794POPS   C2B11008  14.258   3.792   6.319  0.1524  0.0135  0.1034
  794POPS   C3B11009  14.231   3.326   6.312  0.1730 -0.0020  0.0052
  794POPS   C4B11010  14.105   3.131   5.831  0.0796 -0.2967 -0.0598
  795POPS   CNO11011   3.166   6.154   5.162  0.0946 -0.0780 -0.0229
  795POPS   PO411012   3.021   6.352   5.471 -0.2451  0.1350 -0.1045
  795POPS   GL111013   2.868   6.423   5.896 -0.2757  0.0337  0.0301
  795POPS   GL211014   2.944   6.251   6.087  0.1470 -0.2428 -0.3315
  795POPS   C1A11015   2.621   6.499   6.359  0.0012  0.1206  0.3283
  795POPS   D2A11016   2.551   6.721   6.735  0.2723 -0.2408 -0.2790
  795POPS   C3A11017   2.906   6.934   7.060 -0.4041  0.2156 -0.2002
  795POPS   C4A11018   3.248   7.235   7.127 -0.0344 -0.0202  0.3461
  795POPS   C1B11019   3.102   6.406   6.521 -0.0597 -0.1271  0.1820
  795POPS   C2B11020   3.212   6.596   7.004 -0.0753  0.2249  0.0185
  795POPS   C3B11021   3.262   6.800   7.367 -0.1407  0.0404  0.4307
  795POPS   C4B11022   3.233   6.389   7.645 -0.1166  0.2555  0.0027
  796POPS   CNO11023  16.030  15.821   4.751  0.0709  0.1608 -0.0966
  796POPS   PO411024  16.033  16.162   5.086  0.1501  0.3266  0.1611
  796POPS   GL111025  15.925  16.129   5.512 -0.2429  0.0035  0.1237
  796POPS   GL211026  15.725  16.295   5.699  0.1527  0.2326 -0.0681
  796POPS   C1A11027  16.022  15.940   5.855 -0.0501 -0.3686 -0.1605
  796POPS   D2A11028  16.140  15.826   6.222  0.2425  0.0702 -0.2681
  796POPS   C3A11029  16.072  15.732   6.661  0.0642 -0.0333  0.3479
  796POPS   C4A11030  15.792  15.557   6.968 -0.1267  0.2514  0.1777
  796POPS   C1B11031  15.749  16.257   6.095 -0.1504  0.2310  0.2230
  796POPS   C2B11032  15.885  16.200   6.555 -0.3428  0.3770  0.0335
  796POPS   C3B11033  15.951  16.097   6.985 -0.1791 -0.4874 -0.0506
  796POPS   C4B11034  15.881  15.942   7.433  0.1663  0.1597  0.1642
  797POPS   CNO11035   4.570  12.870   5.225 -0.0601  0.0934  0.0965
  797POPS   PO411036   4.204  12.706   5.037 -0.1416 -0.0469 -0.0355
  797POPS   GL111037   4.095  12.605   5.470 -0.2219  0.0968 -0.1631
  797POPS   GL211038   3.788  12.605   5.665  0.1263  0.0327  0.0650
  797POPS   C1A11039   4.273  12.629   5.847 -0.0839  0.0597  0.0214
  797POPS   D2A11040   4.564  12.573   6.224  0.2817  0.0833 -0.0135
  797POPS   C3A11041   4.587  12.470   6.734  0.1860 -0.0355  0.0793
  797POPS   C4A11042   4.537  12.377   7.181 -0.1860 -0.0422  0.0555
  797POPS   C1B11043   3.841  12.788   6.077  0.0582  0.2358  0.0182
  797POPS   C2B11044   3.786  13.078   6.312  0.3172  0.3801  0.0868
  797POPS   C3B11045   3.991  13.210   6.683  0.0772 -0.1308  0.1712
  797POPS   C4B11046   4.160  13.108   7.193 -0.2434 -0.1534  0.0651
  798POPS   CNO11047  16.632   1.197   5.023 -0.2733  0.1460  0.0414
  798POPS   PO411048  16.577   1.417   5.400 -0.0865 -0.1227  0.0245
  798POPS   GL111049  16.596   1.389   5.832 -0.1962  0.0212 -0.0825
  798POPS   GL211050  16.265   1.333   5.881  0.0387 -0.0442 -0.0501
  798POPS   C1A11051  16.663   0.973   6.058  0.0930 -0.0050  0.0683
  798POPS   D2A11052  16.847   1.085   6.393  0.1855  0.2675 -0.0729
  798POPS   C3A11053  16.687   1.102   6.820 -0.2137  0.1766  0.2146
  798POPS   C4A11054  16.685   1.102   7.329 -0.1501  0.2127 -0.0860
  798POPS   C1B11055  16.311   1.185   6.340 -0.0599 -0.1833 -0.1846
  798POPS   C2B11056  16.208   1.096   6.716  0.0808 -0.3090 -0.1388
  798POPS   C3B11057  16.212   1.056   7.117  0.1261 -0.2234 -0.1822
  798POPS   C4B11058  16.135   0.706   7.391 -0.1314  0.1729  0.1503
  799POPS   CNO11059   2.618   2.657   5.561  0.1410 -0.2315  0.0829
  799POPS   PO411060   2.269   2.692   5.751 -0.0226 -0.2725  0.1269
  799POPS   GL111061   2.029   2.869   6.039 -0.1398 -0.2266 -0.0068
  799POPS   GL211062   1.809   2.654   6.067  0.0438  0.1092  0.1008
  799POPS   C1A11063   1.904   2.879   6.483  0.1725 -0.2063 -0.0292
  799POPS   D2A11064   1.857   2.836   6.907  0.0045  0.3665  0.0172
  799POPS   C3A11065   1.722   3.051   7.281  0.0651  0.0293  0.1525
  799POPS   C4A11066   1.542   3.291   7.565  0.1872  0.1071 -0.1174
  799POPS   C1B11067   1.485   2.571   6.328 -0.3166  0.2753  0.3455
  799POPS   C2B11068   1.450   2.584   6.760 -0.0236 -0.2739  0.1141
  799POPS   C3B11069   1.481   2.562   7.150  0.0902  0.1974 -0.0054
  799POPS   C4B11070   1.858   2.577   7.452 -0.1689  0.1359  0.0505
  800POPS   CNO11071  16.773   9.505   5.542 -0.0857 -0.4068 -0.0636
  800POPS   PO411072  16.878   9.511   5.882  0.0189  0.0901 -0.2030
  800POPS   GL111073  16.893   9.517   6.268  0.1098  0.4508 -0.1314
  800POPS   GL211074  16.728   9.863   6.340  0.2073 -0.3858  0.1219
  800POPS   C1A11075  17.056   9.465   6.662 -0.2880 -0.1493 -0.1706
  800POPS   D2A11076  17.473   9.626   6.905  0.3517 -0.2109  0.1013
  800POPS   C3A11077  17.381   9.879   7.240 -0.0885 -0.1183 -0.2948
  800POPS   C4A11078  17.154  10.059   7.534 -0.3046  0.0602 -0.1713
  800POPS   C1B11079  16.542   9.734   6.786  0.4516  0.2652  0.0526
  800POPS   C2B11080  16.187   9.582   7.131 -0.1572 -0.0986 -0.2233
  800POPS   C3B11081  15.851   9.650   7.425 -0.3479  0.0329 -0.1956
  800POPS   C4B11082  15.768   9.594   7.872 -0.1914 -0.1747 -0.0192
  801POPS   CNO11083  11.490   2.756   5.513 -0.1063  0.0539  0.0890
  801POPS   PO411084  11.888   2.761   5.800 -0.0313 -0.3249  0.0617
  801POPS   GL111085  11.787   2.664   6.169 -0.1898  0.2611 -0.0120
  801POPS   GL211086  11.930   2.422   6.199 -0.0737  0.3816  0.4783
  801POPS   C1A11087  11.471   2.723   6.473 -0.2137 -0.1952 -0.4754
  801POPS   D2A11088  11.396   2.842   6.943 -0.0583  0.1789  0.0437
  801POPS   C3A11089  11.297   2.749   7.301 -0.1119 -0.0783  0.0826
  801POPS   C4A11090  11.093   2.502   7.539 -0.2570 -0.2229 -0.2730
  801POPS   C1B11091  12.140   2.469   6.578 -0.2430  0.0083 -0.0238
  801POPS   C2B11092  12.322   2.618   6.859 -0.0198  0.2032  0.0277
  801POPS   C3B11093  12.327   2.683   7.204 -0.0640  0.0134  0.0333
  801POPS   C4B11094  12.341   2.856   7.547  0.3134  0.0760  0.0603
  802POPS   CNO11095   0.104  12.784   5.696  0.2362 -0.1016  0.1842
  802POPS   PO411096   0.282  13.161   5.597  0.0250 -0.0919  0.1431
  802POPS   GL111097   0.402  13.156   6.026 -0.2099  0.1146 -0.3162
  802POPS   GL211098   0.731  12.949   6.125 -0.2522  0.0327 -0.0291
  802POPS   C1A11099   0.316  13.158   6.366 -0.0860  0.1633 -0.1364
  802POPS   D2A11100  -0.026  13.067   6.643 -0.4081  0.0262 -0.1866
  802POPS   C3A11101  -0.256  13.182   7.014  0.1274  0.0456 -0.0508
  802POPS   C4A11102  -0.638  13.134   7.170  0.2351 -0.0753 -0.0044
  802POPS   C1B11103   0.942  12.989   6.533  0.1232  0.0489  0.0722
  802POPS   C2B11104   1.270  13.225   6.682  0.2729 -0.1169  0.0091
  802POPS   C3B11105   1.524  13.124   6.897  0.3073  0.1486 -0.0250
  802POPS   C4B11106   1.709  13.420   7.213 -0.0453 -0.0951  0.4470
  803POPS   CNO11107   7.888   9.379   5.014 -0.0321 -0.1617  0.0432
  803POPS   PO411108   8.080   9.103   5.415 -0.1814  0.1236 -0.0623
  803POPS   GL111109   8.208   9.067   5.854  0.0536 -0.2145 -0.1481
  803POPS   GL211110   8.489   9.153   5.900 -0.0655 -0.0709  0.1509
  803POPS   C1A11111   8.106   9.135   6.356 -0.2107  0.4670 -0.2444
  803POPS   D2A11112   7.944   8.979   6.708 -0.1288  0.2259  0.3473
  803POPS   C3A11113   8.189   8.878   7.098  0.1284  0.2277  0.2839
  803POPS   C4A11114   8.406   8.945   7.490 -0.0994 -0.0060 -0.0201
  803POPS   C1B11115   8.456   9.467   6.204 -0.2594 -0.0590  0.2765
  803POPS   C2B11116   8.464   9.298   6.533  0.0884 -0.0720 -0.2114
  803POPS   C3B11117   8.797   9.131   6.896  0.0290 -0.0152  0.1925
  803POPS   C4B11118   8.840   9.215   7.293 -0.0879 -0.0156 -0.0209
  804POPS   CNO11119  12.155   9.625   5.779  0.0331 -0.0909  0.2017
  804POPS   PO411120  12.178   9.361   5.350  0.0741  0.3936 -0.2382
  804POPS   GL111121  12.411   9.233   5.534 -0.0448  0.1912 -0.0529
  804POPS   GL211122  12.428   8.955   5.660  0.2319  0.1934  0.0292
  804POPS   C1A11123  12.502   9.369   5.953  0.0666  0.2306 -0.2828
  804POPS   D2A11124  12.568   9.291   6.409 -0.1066 -0.2758 -0.2280
  804POPS   C3A11125  12.578   9.675   6.634 -0.1074 -0.1855  0.3350
  804POPS   C4A11126  12.875   9.865   7.090 -0.0846 -0.2694  0.1514
  804POPS   C1B11127  12.341   8.902   6.085  0.0375  0.0431 -0.0040
  804POPS   C2B11128  12.017   8.729   6.381  0.0142  0.1903  0.2480
  804POPS   C3B11129  12.084   8.618   6.669 -0.1223 -0.3198 -0.2499
  804POPS   C4B11130  12.125   8.553   7.189 -0.2182 -0.0107  0.2177
  805POPS   CNO11131   3.635   4.656   5.915 -0.1045  0.1529 -0.0853
  805POPS   PO411132   3.390   5.004   5.770 -0.0996  0.0564 -0.1271
  805POPS   GL111133   3.531   5.148   6.091  0.1647 -0.1961 -0.2307
  805POPS   GL211134   3.366   5.259   6.399 -0.0578  0.0793  0.4045
  805POPS   C1A11135   3.506   4.804   6.449  0.2232  0.1744  0.0406
  805POPS   D2A11136   3.413   4.771   6.895 -0.0824  0.1853  0.1334
  805POPS   C3A11137   3.068   4.922   7.094 -0.0437  0.1862 -0.0116
  805POPS   C4A11138   2.773   4.882   7.418 -0.1281  0.0943 -0.2986
  805POPS   C1B11139   3.485   5.585   6.741 -0.1699 -0.0853 -0.0535
  805POPS   C2B11140   3.344   5.617   7.198 -0.1473  0.2680  0.2938
  805POPS   C3B11141   3.620   5.906   7.542  0.0551  0.3020  0.0319
  805POPS   C4B11142   3.737   6.288   7.723  0.2781 -0.3225 -0.0020
  806POPS   CNO11143   9.665   3.908   5.868  0.0642  0.0293  0.3642
  806POPS   PO411144   9.992   3.977   5.863 -0.0197 -0.1120  0.3277
  806POPS   GL111145  10.019   3.992   6.282  0.3069 -0.0424 -0.0655
  806POPS   GL211146   9.867   3.723   6.303  0.0338 -0.1652 -0.3242
  806POPS   C1A11147   9.983   4.236   6.719 -0.0876  0.3219 -0.2732
  806POPS   D2A11148  10.203   4.418   7.076  0.0246 -0.2482  0.2733
  806POPS   C3A11149  10.001   4.281   7.445  0.0471  0.1336  0.2140
  806POPS   C4A11150  10.347   4.043   7.711 -0.0790  0.1231 -0.0627
  806POPS   C1B11151   9.799   3.658   6.814  0.0341 -0.1847  0.0437
  806POPS   C2B11152   9.594   3.626   7.149 -0.1597 -0.0977 -0.1008
  806POPS   C3B11153   9.649   3.628   7.644 -0.0259 -0.0395  0.1225
  806POPS   C4B11154   9.859   3.574   8.227  0.2246  0.0380 -0.1916
  807POPS   CNO11155   5.760   7.766   5.475 -0.2742 -0.2864  0.2639
  807POPS   PO411156   5.616   7.931   5.813  0.0568  0.0064 -0.2065
  807POPS   GL111157   5.517   8.201   6.101 -0.2691  0.0758 -0.1509
  807POPS   GL211158   5.606   8.573   6.150  0.0981 -0.3593 -0.1512
  807POPS   C1A11159   5.510   8.131   6.559  0.0413  0.2571 -0.0421
  807POPS   D2A11160   5.458   7.772   6.887 -0.2126  0.0212  0.6271
  807POPS   C3A11161   5.308   7.390   6.808  0.0337 -0.0390  0.1416
  807POPS   C4A11162   5.322   6.979   7.069 -0.1281  0.4268  0.0697
  807POPS   C1B11163   5.671   8.598   6.599  0.0467  0.0051  0.1745
  807POPS   C2B11164   5.679   8.266   6.988 -0.0649  0.0090 -0.3747
  807POPS   C3B11165   5.683   8.028   7.255  0.0226  0.0670 -0.1020
  807POPS   C4B11166   5.778   7.636   7.248  0.0084 -0.0160  0.2383
  808POPS   CNO11167   5.594   7.405   5.804 -0.2606 -0.2113  0.0854
  808POPS   PO411168   6.122   7.496   5.733  0.0487  0.0714 -0.1133
  808POPS   GL111169   6.005   7.450   6.133  0.1289 -0.2804 -0.0545
  808POPS   GL211170   5.760   7.712   6.272  0.1583  0.3616  0.0229
  808POPS   C1A11171   6.271   7.441   6.523 -0.5050 -0.1074  0.0686
  808POPS   D2A11172   6.431   7.454   6.847 -0.1273  0.3220  0.3456
  808POPS   C3A11173   6.228   7.426   7.260 -0.1624 -0.1242  0.1595
  808POPS   C4A11174   5.915   7.290   7.550 -0.2465 -0.1708  0.0934
  808POPS   C1B11175   5.825   7.456   6.692  0.1117  0.3989  0.3357
  808POPS   C2B11176   5.795   7.243   6.992 -0.2365  0.3485 -0.1056
  808POPS   C3B11177   5.858   6.919   7.242 -0.3403 -0.2661  0.0246
  808POPS   C4B11178   5.974   6.523   7.333 -0.1202 -0.3354 -0.0128
  809POPS   CNO11179   5.778  13.525   5.250 -0.1607  0.2754 -0.1068
  809POPS   PO411180   5.789  13.071   5.263  0.0127  0.1524  0.1547
  809POPS   GL111181   5.723  12.969   5.704 -0.3411 -0.0375 -0.0529
  809POPS   GL211182   5.426  12.900   5.805 -0.0462 -0.0008  0.1046
  809POPS   C1A11183   5.858  12.854   6.137  0.2919  0.1703 -0.0458
  809POPS   D2A11184   6.017  12.575   6.360 -0.3389  0.1943  0.2757
  809POPS   C3A11185   5.961  12.657   6.806  0.0258 -0.0281  0.1885
  809POPS   C4A11186   6.122  12.725   7.251 -0.0356 -0.2241  0.0924
  809POPS   C1B11187   5.345  12.858   6.295 -0.0374  0.0097 -0.1571
  809POPS   C2B11188   4.977  12.736   6.491  0.1991  0.1771 -0.2252
  809POPS   C3B11189   4.911  13.220   6.397 -0.1243 -0.0503 -0.2660
  809POPS   C4B11190   5.143  13.731   6.263 -0.1986 -0.2758 -0.1250
  810POPS   CNO11191   3.874   4.082   5.825  0.0205 -0.4983 -0.1594
  810POPS   PO411192   3.559   3.896   5.945  0.2238 -0.0051  0.2449
  810POPS   GL111193   3.488   3.806   6.320  0.1362 -0.0246  0.1664
  810POPS   GL211194   3.471   3.443   6.239  0.0320 -0.0804  0.0272
  810POPS   C1A11195   3.663   3.764   6.729 -0.1981  0.2218  0.1468
  810POPS   D2A11196   3.759   3.832   7.119 -0.3363  0.3842 -0.1451
  810POPS   C3A11197   3.985   4.203   7.355  0.1153 -0.1976  0.1091
  810POPS   C4A11198   4.010   4.580   7.666 -0.3196  0.1892 -0.2174
  810POPS   C1B11199   3.306   3.389   6.676 -0.1348 -0.1060 -0.1519
  810POPS   C2B11200   3.034   3.312   7.066 -0.0872 -0.2451 -0.1684
  810POPS   C3B11201   2.943   3.306   7.477 -0.1180  0.2207 -0.0058
  810POPS   C4B11202   3.115   3.323   7.972 -0.0319 -0.0840  0.0761
  811POPS   CNO11203  18.012  12.457   5.361 -0.2029 -0.2146  0.2536
  811POPS   PO411204  17.647  12.153   5.356 -0.2925  0.0050  0.0587
  811POPS   GL111205  17.530  12.370   5.719  0.3032 -0.0509  0.0227
  811POPS   GL211206  17.876  12.422   5.875  0.1714  0.0434  0.2011
  811POPS   C1A11207  17.442  12.299   6.175 -0.4357 -0.0565 -0.1084
  811POPS   D2A11208  17.281  12.096   6.533  0.3917  0.1364  0.0252
  811POPS   C3A11209  17.379  12.256   6.857 -0.1375 -0.2164  0.2824
  811POPS   C4A11210  17.189  12.476   7.138  0.1503 -0.2685 -0.2818
  811POPS   C1B11211  17.839  12.073   6.131 -0.1203 -0.2510  0.4360
  811POPS   C2B11212  17.790  12.099   6.533  0.1292  0.1441 -0.1393
  811POPS   C3B11213  17.842  12.088   6.939  0.0354  0.2158  0.0931
  811POPS   C4B11214  17.930  12.192   7.373  0.0944  0.0656  0.0982
  812YOPS   CNO11215   9.728   7.116   5.169 -0.1661 -0.1210 -0.3776
  812YOPS   PO411216   9.974   7.493   5.195  0.1662 -0.1713 -0.0824
  812YOPS   GL111217   9.848   7.432   5.620  0.0318 -0.0227  0.4222
  812YOPS   GL211218   9.916   7.717   5.785  0.0006 -0.0938  0.0386
  812YOPS   C1A11219  10.252   7.366   5.897 -0.0779 -0.2485  0.0891
  812YOPS   D2A11220  10.387   7.131   6.298 -0.0650  0.0462  0.1725
  812YOPS   C3A11221  10.515   7.163   6.687  0.1337  0.0843 -0.1013
  812YOPS   C4A11222  10.350   7.067   7.143  0.0274  0.2535  0.1056
  812YOPS   C1B11223   9.894   7.540   6.152 -0.4738  0.3016  0.1999
  812YOPS   C2B11224  10.001   7.380   6.617 -0.2035 -0.1833  0.1143
  812YOPS   D3B11225  10.062   7.523   6.900 -0.3197 -0.0474  0.1491
  812YOPS   C4B11226  10.449   7.611   7.172 -0.1173 -0.0080  0.5729
  813YOPS   CNO11227   2.724  13.669   4.877  0.1446  0.1760 -0.0165
  813YOPS   PO411228   2.818  13.914   5.259 -0.2425 -0.2973 -0.0519
  813YOPS   GL111229   2.737  13.683   5.679  0.0124  0.0676  0.3716
  813YOPS   GL211230   2.474  13.811   5.771  0.0127 -0.0550  0.1575
  813YOPS   C1A11231   2.623  13.293   5.911  0.2698 -0.0272 -0.2862
  813YOPS   D2A11232   2.751  12.905   5.871 -0.1271 -0.0311 -0.0707
  813YOPS   C3A11233   3.157  12.723   5.897  0.1409 -0.3227  0.1557
  813YOPS   C4A11234   3.353  12.768   6.315 -0.1779  0.0413 -0.2879
  813YOPS   C1B11235   2.379  13.690   6.135 -0.0979  0.5302 -0.0674
  813YOPS   C2B11236   2.453  13.584   6.548  0.0547  0.2125 -0.1150
  813YOPS   D3B11237   2.415  13.972   6.826  0.2405 -0.1551 -0.0611
  813YOPS   C4B11238   2.423  13.823   7.160  0.2045  0.0356 -0.3862
  814YOPS   CNO11239  14.461  12.113   4.657 -0.2950  0.0193 -0.2217
  814YOPS   PO411240  14.357  11.969   5.035 -0.0419 -0.1146  0.0013
  814YOPS   GL111241  14.375  11.740   5.424 -0.3297 -0.1812  0.1226
  814YOPS   GL211242  14.142  11.939   5.640 -0.0439 -0.0211  0.0433
  814YOPS   C1A11243  14.413  11.528   5.838  0.0321 -0.1060 -0.4083
  814YOPS   D2A11244  14.448  11.495   6.260 -0.0276  0.2360  0.1662
  814YOPS   C3A11245  14.334  11.278   6.659 -0.2718  0.2745 -0.2438
  814YOPS   C4A11246  14.163  11.550   6.936 -0.1126  0.2839 -0.3597
  814YOPS   C1B11247  14.387  11.978   6.011 -0.0676  0.1823  0.2326
  814YOPS   C2B11248  14.616  12.328   6.227 -0.1547  0.0913 -0.0031
  814YOPS   D3B11249  14.856  12.326   6.625  0.2375  0.0537  0.0327
  814YOPS   C4B11250  14.967  12.639   6.811 -0.1165 -0.0216 -0.0775
  815YOPS   CNO11251  13.659  16.437   5.064 -0.0980  0.0189  0.0453
  815YOPS   PO411252  13.240  16.629   5.023 -0.1911  0.1299 -0.5929
  815YOPS   GL111253  13.344  16.762   5.553 -0.2675 -0.2497  0.1938
  815YOPS   GL211254  13.521  16.794   5.769 -0.0709 -0.1025 -0.0714
  815YOPS   C1A11255  13.109  16.958   6.002  0.0276  0.1453  0.0494
  815YOPS   D2A11256  13.188  16.734   6.421  0.0800 -0.4393 -0.0510
  815YOPS   C3A11257  13.197  16.717   6.816  0.0661 -0.3487 -0.1696
  815YOPS   C4A11258  13.406  16.660   7.029 -0.1217 -0.3677  0.0396
  815YOPS   C1B11259  13.579  17.009   6.192 -0.1459 -0.3281  0.1472
  815YOPS   C2B11260  13.611  16.986   6.677 -0.1060  0.0802 -0.2717
  815YOPS   D3B11261  13.693  17.031   7.094 -0.2243  0.0921 -0.0725
  815YOPS   C4B11262  13.928  17.154   7.387  0.0463 -0.1859  0.1766
  816YOPS   CNO11263   7.049  14.731   5.168 -0.0299  0.1735  0.1111
  816YOPS   PO411264   7.005  14.799   5.610  0.0852  0.1394  0.1795
  816YOPS   GL111265   7.109  14.654   6.072  0.1171  0.1321  0.0371
  816YOPS   GL211266   7.172  14.403   6.009  0.0663 -0.1993  0.1912
  816YOPS   C1A11267   7.377  14.833   6.341 -0.2560  0.0651 -0.1565
  816YOPS   D2A11268   7.583  14.999   6.656 -0.3299 -0.1338  0.1656
  816YOPS   C3A11269   7.707  14.822   7.046 -0.1045  0.1130 -0.1354
  816YOPS   C4A11270   8.044  14.893   7.273  0.1679 -0.2728  0.2672
  816YOPS   C1B11271   7.323  14.100   6.358  0.0485  0.0135 -0.2935
  816YOPS   C2B11272   7.661  13.944   6.669  0.0328  0.2206  0.2896
  816YOPS   D3B11273   7.778  13.872   7.067 -0.1739 -0.2274  0.1184
  816YOPS   C4B11274   7.561  13.684   7.474  0.0925 -0.3247  0.0970
  817YOPS   CNO11275   3.217   5.644   5.299  0.0336 -0.0832  0.0129
  817YOPS   PO411276   3.305   5.499   5.630  0.1659 -0.0962 -0.0970
  817YOPS   GL111277   3.098   5.449   6.006  0.1258 -0.0552 -0.1407
  817YOPS   GL211278   2.781   5.527   6.002  0.0040  0.2386  0.0624
  817YOPS   C1A11279   2.947   5.492   6.431 -0.3245 -0.1511 -0.0999
  817YOPS   D2A11280   3.038   5.389   6.900 -0.2005 -0.2777 -0.0787
  817YOPS   C3A11281   2.849   5.462   7.318  0.3616 -0.1062  0.0738
  817YOPS   C4A11282   3.096   5.331   7.665 -0.3213  0.0080 -0.2385
  817YOPS   C1B11283   2.650   5.852   6.295 -0.2158  0.2520  0.1332
  817YOPS   C2B11284   2.291   5.905   6.193  0.2106 -0.1078  0.1893
  817YOPS   D3B11285   1.999   5.623   6.352  0.0717 -0.1430 -0.2216
  817YOPS   C4B11286   2.085   5.459   6.830 -0.1773  0.1368 -0.0841
  818YOPS   CNO11287   7.555  17.557   6.098  0.1007 -0.0183  0.1333
  818YOPS   PO411288   7.132  17.576   5.889 -0.2782 -0.2013  0.2835
  818YOPS   GL111289   6.996  17.753   6.281 -0.2429 -0.1928  0.1558
  818YOPS   GL211290   6.736  17.981   6.410 -0.0323  0.0181  0.2263
  818YOPS   C1A11291   7.107  17.739   6.660  0.0221  0.3261  0.1217
  818YOPS   D2A11292   7.183  17.739   7.053 -0.0373  0.0698 -0.0231
  818YOPS   C3A11293   7.221  17.797   7.401 -0.0088 -0.0317 -0.0167
  818YOPS   C4A11294   7.178  17.412   7.720 -0.3438  0.4877  0.1254
  818YOPS   C1B11295   6.622  17.824   6.788  0.0545  0.1390 -0.0470
  818YOPS   C2B11296   6.564  17.733   7.177 -0.2615 -0.2601 -0.1300
  818YOPS   D3B11297   6.724  17.715   7.590  0.2886 -0.1381 -0.1949
  818YOPS   C4B11298   6.715  17.218   7.673  0.1074  0.1607 -0.3001
  819YOPS   CNO11299  16.136   4.045   4.767 -0.2864 -0.1368  0.0602
  819YOPS   PO411300  16.025   4.276   5.080 -0.1553  0.1171 -0.1678
  819YOPS   GL111301  15.882   4.281   5.438 -0.2306 -0.2713  0.1005
  819YOPS   GL211302  15.602   4.058   5.381 -0.0491  0.3791  0.0347
  819YOPS   C1A11303  15.985   4.299   5.808 -0.1184  0.1775 -0.2390
  819YOPS   D2A11304  16.244   4.266   6.160 -0.3980  0.0932  0.1048
  819YOPS   C3A11305  16.346   4.004   6.494 -0.0647 -0.0300 -0.5226
  819YOPS   C4A11306  16.231   4.225   6.894  0.0377 -0.0306  0.1262
  819YOPS   C1B11307  15.307   4.172   5.721 -0.2451  0.3007 -0.1530
  819YOPS   C2B11308  15.125   4.146   6.001 -0.4876  0.0163 -0.0199
  819YOPS   D3B11309  14.989   4.115   6.453 -0.0727 -0.1548 -0.1095
  819YOPS   C4B11310  15.298   4.124   6.862  0.1129  0.2965  0.0261
  820YOPS   CNO11311  11.951   6.567   4.997  0.1625  0.3052  0.4477
  820YOPS   PO411312  12.090   6.752   5.411  0.1305  0.1174  0.0680
  820YOPS   GL111313  12.315   6.870   5.832  0.0369 -0.0937  0.0341
  820YOPS   GL211314  12.195   7.084   5.877  0.1856  0.0977 -0.1402
  820YOPS   C1A11315  12.533   6.803   6.259  0.2514 -0.0116  0.0792
  820YOPS   D2A11316  12.675   6.727   6.618  0.1861  0.3946  0.0407
  820YOPS   C3A11317  12.863   6.465   6.784  0.2726 -0.3777 -0.2631
  820YOPS   C4A11318  12.925   6.151   6.896  0.2540  0.2384  0.1066
  820YOPS   C1B11319  12.001   7.409   6.240  0.1942  0.1718  0.1505
  820YOPS   C2B11320  11.928   7.569   6.536  0.2164  0.1324 -0.0566
  820YOPS   D3B11321  11.627   7.559   6.980  0.0937 -0.2271  0.0186
  820YOPS   C4B11322  11.644   8.043   7.142 -0.0116  0.2181  0.0014
  821YOPS   CNO11323  12.285   2.397   5.811  0.1424 -0.1196  0.0715
  821YOPS   PO411324  12.130   1.971   6.066 -0.0570  0.1616 -0.0726
  821YOPS   GL111325  12.366   1.858   6.480  0.1792 -0.4138  0.1707
  821YOPS   GL211326  12.744   1.842   6.392 -0.1050  0.1144  0.0342
  821YOPS   C1A11327  12.481   2.031   6.836  0.1328  0.0619  0.1048
  821YOPS   D2A11328  12.573   2.250   7.215 -0.1826 -0.1635  0.2572
  821YOPS   C3A11329  12.849   2.303   7.534 -0.2313  0.0995 -0.3333
  821YOPS   C4A11330  13.100   2.050   7.612  0.0470 -0.0187  0.0092
  821YOPS   C1B11331  12.842   1.749   6.809 -0.1477 -0.1105  0.0455
  821YOPS   C2B11332  12.680   1.810   7.226 -0.0049 -0.1036  0.2412
  821YOPS   D3B11333  12.565   1.725   7.560  0.1097 -0.0741 -0.0491
  821YOPS   C4B11334  12.429   1.936   7.847  0.3760  0.0947  0.0014
  822YOPS   CNO11335  13.063   9.813   5.192  0.1861  0.2192  0.1996
  822YOPS   PO411336  13.194  10.016   5.375  0.0537  0.1435 -0.4223
  822YOPS   GL111337  13.055  10.001   5.758  0.0492 -0.2355  0.0257
  822YOPS   GL211338  13.285  10.026   5.978  0.0435 -0.0773 -0.1719
  822YOPS   C1A11339  12.613  10.048   5.943  0.0507 -0.0490  0.0679
  822YOPS   D2A11340  12.346   9.826   6.189  0.0898  0.0661  0.0043
  822YOPS   C3A11341  12.110   9.481   6.412  0.1636  0.0584 -0.1389
  822YOPS   C4A11342  12.079   9.266   6.181  0.3390 -0.1664  0.2495
  822YOPS   C1B11343  13.013  10.071   6.387  0.2100 -0.1234  0.1420
  822YOPS   C2B11344  12.871  10.134   6.712  0.1050 -0.1936  0.1249
  822YOPS   D3B11345  12.697  10.517   6.992 -0.1748 -0.4363 -0.1390
  822YOPS   C4B11346  12.226  10.449   7.222 -0.0347 -0.1738  0.0569
  823YOPS   CNO11347   7.671   7.082   5.240 -0.3204  0.1305 -0.0138
  823YOPS   PO411348   7.957   7.290   5.471 -0.2086 -0.2718 -0.2350
  823YOPS   GL111349   8.218   7.314   5.800 -0.1058  0.1876  0.2207
  823YOPS   GL211350   8.105   6.945   5.850  0.3130 -0.0565  0.2273
  823YOPS   C1A11351   8.548   7.327   6.111  0.1036  0.2524  0.0503
  823YOPS   D2A11352   8.623   7.493   6.522  0.0639 -0.4443  0.0146
  823YOPS   C3A11353   8.650   7.711   6.970  0.0834  0.2100 -0.2895
  823YOPS   C4A11354   8.513   7.591   7.403 -0.0555 -0.0037  0.1373
  823YOPS   C1B11355   7.932   7.126   6.151  0.3682  0.0698 -0.0373
  823YOPS   C2B11356   8.052   7.033   6.565 -0.0421 -0.2928  0.1844
  823YOPS   D3B11357   8.215   6.874   6.908  0.3539 -0.3833  0.2196
  823YOPS   C4B11358   8.614   6.720   7.068  0.0003  0.1863  0.1062
  824YOPS   CNO11359  16.806  11.906   5.434 -0.1131  0.0870  0.1263
  824YOPS   PO411360  17.270  11.745   5.520 -0.3007 -0.0855  0.1315
  824YOPS   GL111361  17.411  11.886   5.813 -0.1141  0.2676 -0.0435
  824YOPS   GL211362  17.096  12.077   5.907  0.2816  0.2764  0.1963
  824YOPS   C1A11363  17.463  11.710   6.167  0.2074  0.2773 -0.3277
  824YOPS   D2A11364  17.673  11.574   6.488 -0.1902 -0.2139  0.1866
  824YOPS   C3A11365  17.532  11.682   6.869  0.0757 -0.0844 -0.1588
  824YOPS   C4A11366  17.152  11.595   7.060  0.0537  0.0447  0.1143
  824YOPS   C1B11367  16.893  12.333   6.253  0.0436 -0.2109  0.3077
  824YOPS   C2B11368  16.736  12.266   6.632 -0.2144  0.3351  0.1722
  824YOPS   D3B11369  16.398  12.177   6.904  0.0423 -0.3104  0.0080
  824YOPS   C4B11370  16.345  12.056   7.348  0.1758  0.1725 -0.4309
  825YOPS   CNO11371  11.778   3.575   5.787 -0.3670  0.1453 -0.0141
  825YOPS   PO411372  11.312   3.572   5.875  0.0845  0.1373  0.1809
  825YOPS   GL111373  11.055   3.770   6.221  0.4349 -0.0938  0.0084
  825YOPS   GL211374  11.225   4.033   6.280  0.1827  0.3982 -0.0824
  825YOPS   C1A11375  10.842   3.975   6.642  0.0019  0.2072 -0.1396
  825YOPS   D2A11376  10.734   4.198   7.038  0.1170  0.1791 -0.1453
  825YOPS   C3A11377  10.527   4.415   7.414  0.1315 -0.0240 -0.0842
  825YOPS   C4A11378  10.715   4.558   7.793  0.1784  0.0644  0.2087
  825YOPS   C1B11379  11.556   4.152   6.568 -0.0942 -0.6696  0.2144
  825YOPS   C2B11380  11.740   4.258   6.942 -0.3948  0.0441  0.1611
  825YOPS   D3B11381  11.655   4.068   7.318  0.1702  0.2291 -0.0079
  825YOPS   C4B11382  11.661   4.406   7.626 -0.0768 -0.0566  0.2243
  826YOPS   CNO11383  14.293  17.495   5.436  0.1251 -0.2700  0.3699
  826YOPS   PO411384  13.975  17.801   5.641 -0.2469  0.1843 -0.2547
  826YOPS   GL111385  13.973  17.815   6.117  0.2960 -0.0711  0.0766
  826YOPS   GL211386  14.189  18.004   6.239  0.0539 -0.2145  0.0972
  826YOPS   C1A11387  13.913  17.404   6.280 -0.1897 -0.0631  0.0147
  826YOPS   D2A11388  14.087  17.117   6.358  0.1165  0.1090  0.0902
  826YOPS   C3A11389  14.581  17.021   6.371 -0.0926  0.1264 -0.0683
  826YOPS   C4A11390  14.626  16.870   6.715  0.0873 -0.0052 -0.0782
  826YOPS   C1B11391  14.139  17.836   6.641 -0.1095 -0.0581  0.0682
  826YOPS   C2B11392  13.960  17.447   6.822 -0.3290  0.2068 -0.1284
  826YOPS   D3B11393  14.153  17.080   6.862 -0.2769 -0.1390 -0.0417
  826YOPS   C4B11394  14.312  16.745   7.130  0.0434  0.1902 -0.2348
  827YOPS   CNO11395   7.037   0.702   5.790  0.1440  0.2999  0.2764
  827YOPS   PO411396   7.167   0.346   5.955 -0.3541  0.3447 -0.1122
  827YOPS   GL111397   7.319   0.507   6.360  0.0361 -0.0764  0.1280
  827YOPS   GL211398   7.102   0.896   6.386  0.0594 -0.1303  0.2295
  827YOPS   C1A11399   7.334   0.466   6.899  0.4629 -0.1892 -0.0058
  827YOPS   D2A11400   7.105   0.393   7.132  0.1937 -0.1797 -0.2466
  827YOPS   C3A11401   6.897   0.141   7.410  0.1407  0.0443  0.1527
  827YOPS   C4A11402   7.069  -0.340   7.418  0.2262 -0.1791  0.4975
  827YOPS   C1B11403   7.027   1.016   6.819 -0.2426 -0.1692 -0.0663
  827YOPS   C2B11404   7.206   0.980   7.212 -0.2376 -0.1061  0.2007
  827YOPS   D3B11405   7.483   0.782   7.375  0.1360 -0.0713  0.0460
  827YOPS   C4B11406   7.724   0.888   7.659  0.1237  0.1265 -0.0840
  828YOPS   CNO11407   0.079   4.960   5.677 -0.1513 -0.0708  0.0171
  828YOPS   PO411408  -0.417   4.869   5.642  0.0148 -0.0571  0.0509
  828YOPS   GL111409  -0.343   4.935   6.084 -0.0327 -0.1054 -0.0857
  828YOPS   GL211410  -0.425   5.233   6.026  0.3520  0.0633 -0.0828
  828YOPS   C1A11411  -0.044   4.768   6.379 -0.0381  0.1609  0.0180
  828YOPS   D2A11412  -0.038   4.517   6.702 -0.3881 -0.3904 -0.0149
  828YOPS   C3A11413  -0.042   4.279   7.130 -0.0194  0.0871  0.2933
  828YOPS   C4A11414   0.099   3.841   7.035 -0.0222 -0.3705  0.1409
  828YOPS   C1B11415  -0.219   5.384   6.425 -0.3245  0.2522 -0.1905
  828YOPS   C2B11416   0.055   5.534   6.664 -0.0116 -0.0011 -0.0951
  828YOPS   D3B11417   0.197   5.634   7.174 -0.1101  0.4031 -0.1186
  828YOPS   C4B11418   0.627   5.734   7.143 -0.4146 -0.1709  0.2046
  829YOPS   CNO11419  16.041   2.811   5.435  0.0318 -0.3064 -0.1893
  829YOPS   PO411420  15.600   2.853   5.463 -0.0086  0.3879  0.0143
  829YOPS   GL111421  15.495   2.709   5.765 -0.2253 -0.2025 -0.0826
  829YOPS   GL211422  15.488   2.329   5.799 -0.0884 -0.0058 -0.0355
  829YOPS   C1A11423  15.444   2.947   6.130 -0.0357  0.2406  0.0044
  829YOPS   D2A11424  15.601   3.276   6.406  0.2982  0.1861 -0.2459
  829YOPS   C3A11425  15.415   3.217   6.904  0.0032  0.1079  0.1409
  829YOPS   C4A11426  15.713   3.189   7.294 -0.0966  0.2261  0.0758
  829YOPS   C1B11427  15.678   2.336   6.175  0.2020  0.2877 -0.1975
  829YOPS   C2B11428  15.462   2.541   6.429  0.0818  0.1295  0.2342
  829YOPS   D3B11429  15.438   2.801   6.723  0.1474  0.0166  0.0635
  829YOPS   C4B11430  15.159   2.863   7.148 -0.0943 -0.1979 -0.1574
  830YOPS   CNO11431  16.427  18.343   5.461  0.0928 -0.0635 -0.0153
  830YOPS   PO411432  16.706  18.719   5.379  0.1723  0.0617  0.0472
  830YOPS   GL111433  16.583  18.757   5.840  0.3459 -0.0226  0.1892
  830YOPS   GL211434  16.330  18.963   5.819 -0.1845 -0.2053 -0.1492
  830YOPS   C1A11435  16.523  18.496   6.243 -0.3154 -0.1004  0.0669
  830YOPS   D2A11436  16.765  18.272   6.553  0.2313 -0.3240  0.1961
  830YOPS   C3A11437  16.667  18.361   7.038 -0.0506 -0.1540  0.1216
  830YOPS   C4A11438  16.408  18.253   7.338 -0.1646  0.0928 -0.0776
  830YOPS   C1B11439  16.360  18.977   6.284 -0.0066 -0.1994  0.0092
  830YOPS   C2B11440  16.285  19.278   6.718 -0.0309 -0.2207 -0.0021
  830YOPS   D3B11441  16.480  19.370   7.020 -0.0674  0.0950  0.1229
  830YOPS   C4B11442  16.612  19.730   7.110  0.4093  0.1858  0.1047
  831YOPS   CNO11443   4.401  10.753   5.294  0.2212  0.0623 -0.2067
  831YOPS   PO411444   4.217  10.975   5.570 -0.2297  0.1222  0.0388
  831YOPS   GL111445   4.086  10.886   5.898 -0.2134 -0.3059 -0.2153
  831YOPS   GL211446   4.359  11.010   6.154  0.3371 -0.1975  0.2843
  831YOPS   C1A11447   3.737  10.661   6.196  0.2752  0.0573  0.1537
  831YOPS   D2A11448   3.694  10.418   6.439  0.2050  0.2418 -0.0596
  831YOPS   C3A11449   3.285  10.301   6.636 -0.2962 -0.0979  0.1995
  831YOPS   C4A11450   3.247  10.309   7.092 -0.0241  0.3524 -0.1321
  831YOPS   C1B11451   4.359  11.243   6.536 -0.0502 -0.1311 -0.1360
  831YOPS   C2B11452   4.449  11.246   6.936  0.1376  0.0000 -0.0408
  831YOPS   D3B11453   4.518  11.429   7.379 -0.2264  0.0166  0.0732
  831YOPS   C4B11454   4.230  11.651   7.689  0.1235 -0.3789  0.5234
  832YOPS   CNO11455   7.364  12.734   4.992 -0.2928  0.2541 -0.4179
  832YOPS   PO411456   7.198  12.781   5.411 -0.0651  0.1995  0.0257
  832YOPS   GL111457   7.205  12.687   5.842  0.2900 -0.1452  0.1198
  832YOPS   GL211458   7.024  12.893   6.014  0.0423  0.2496 -0.0152
  832YOPS   C1A11459   7.268  12.533   6.284 -0.1168 -0.0120  0.1667
  832YOPS   D2A11460   7.245  12.467   6.706 -0.0833 -0.0696 -0.0148
  832YOPS   C3A11461   7.048  12.498   7.078  0.0342  0.0668  0.6151
  832YOPS   C4A11462   6.602  12.696   6.904  0.1209 -0.4331 -0.1795
  832YOPS   C1B11463   6.913  13.071   6.377 -0.1792 -0.2263  0.0062
  832YOPS   C2B11464   6.949  13.009   6.732  0.1799  0.1150  0.2476
  832YOPS   D3B11465   6.917  13.144   7.073 -0.0191  0.2299  0.0336
  832YOPS   C4B11466   7.170  13.511   7.235 -0.0873  0.0435  0.3571
  833YOPS   CNO11467   9.597  13.242   5.551  0.1018  0.0641  0.1457
  833YOPS   PO411468   9.189  13.024   5.389  0.0461 -0.0178  0.0469
  833YOPS   GL111469   9.215  13.318   5.831  0.1215  0.0081 -0.1542
  833YOPS   GL211470   9.338  13.650   5.949 -0.3557  0.0680 -0.1780
  833YOPS   C1A11471   9.157  13.242   6.259 -0.1371 -0.0103 -0.4247
  833YOPS   D2A11472   9.170  13.331   6.638 -0.3511 -0.0378 -0.1058
  833YOPS   C3A11473   9.002  13.390   7.003 -0.0161  0.0537 -0.2658
  833YOPS   C4A11474   9.037  13.412   7.429 -0.4231 -0.1614 -0.0081
  833YOPS   C1B11475   9.224  13.784   6.346 -0.2633 -0.0754  0.1814
  833YOPS   C2B11476   9.098  13.920   6.719  0.1291 -0.0157 -0.0511
  833YOPS   D3B11477   9.022  13.906   7.172 -0.1820  0.0927 -0.0944
  833YOPS   C4B11478   8.638  13.854   7.396 -0.0279 -0.3088 -0.1035
  834YOPS   CNO11479   2.584   4.778   5.323 -0.2762 -0.2664  0.1916
  834YOPS   PO411480   2.428   5.126   5.201 -0.0160  0.3653  0.1686
  834YOPS   GL111481   2.502   5.115   5.687  0.0908  0.0089  0.0015
  834YOPS   GL211482   2.520   4.706   5.830 -0.1555 -0.0926  0.2643
  834YOPS   C1A11483   2.274   5.358   6.075  0.3138 -0.0367  0.3132
  834YOPS   D2A11484   2.427   5.475   6.494 -0.0461  0.1102 -0.1183
  834YOPS   C3A11485   2.590   5.707   6.846  0.1496  0.0732  0.3614
  834YOPS   C4A11486   2.428   5.683   7.147 -0.1637 -0.1261  0.0354
  834YOPS   C1B11487   2.261   4.818   6.104  0.0716  0.0581 -0.1456
  834YOPS   C2B11488   2.151   4.984   6.465 -0.2443 -0.1736  0.2296
  834YOPS   D3B11489   1.928   4.965   6.882  0.0620  0.1960  0.1433
  834YOPS   C4B11490   1.772   5.024   7.380  0.0902 -0.1553 -0.0680
  835YOPS   CNO11491   2.047  18.237   5.690  0.4265 -0.4097  0.4106
  835YOPS   PO411492   1.738  18.431   5.375  0.0762  0.5217 -0.2757
  835YOPS   GL111493   1.547  18.433   5.739 -0.0037 -0.1430 -0.3906
  835YOPS   GL211494   1.413  18.174   5.848  0.3973 -0.1243  0.1149
  835YOPS   C1A11495   1.686  18.534   6.089  0.0462  0.1056 -0.1562
  835YOPS   D2A11496   1.963  18.576   6.513  0.0954 -0.4318 -0.1054
  835YOPS   C3A11497   1.820  18.446   6.958 -0.0863 -0.0110  0.0824
  835YOPS   C4A11498   1.989  18.119   7.272 -0.4133  0.0574  0.1163
  835YOPS   C1B11499   1.253  18.187   6.271 -0.0485 -0.1463 -0.0158
  835YOPS   C2B11500   1.059  18.062   6.629  0.1319 -0.0656  0.1605
  835YOPS   D3B11501   0.828  17.956   6.912  0.3306 -0.2361  0.1936
  835YOPS   C4B11502   0.855  17.754   7.272 -0.2107 -0.2200  0.0709
  836YOPS   CNO11503   4.846  10.913   5.143 -0.2396  0.1446 -0.0786
  836YOPS   PO411504   5.119  11.137   5.173 -0.0329 -0.2131  0.3416
  836YOPS   GL111505   5.228  11.180   5.638  0.1501 -0.0413  0.0351
  836YOPS   GL211506   5.275  10.930   5.943 -0.2751  0.1938 -0.4755
  836YOPS   C1A11507   5.449  11.385   5.978 -0.0408  0.3131  0.0582
  836YOPS   D2A11508   5.424  11.440   6.459 -0.2066  0.1139  0.0517
  836YOPS   C3A11509   5.624  11.327   6.863 -0.0013  0.0770  0.0204
  836YOPS   C4A11510   5.521  11.373   7.208 -0.1490 -0.0337  0.0646
  836YOPS   C1B11511   5.166  11.027   6.379 -0.1762  0.1256 -0.0245
  836YOPS   C2B11512   5.155  11.250   6.775  0.0391  0.0973 -0.0840
  836YOPS   D3B11513   4.890  11.401   7.079  0.0621  0.0839  0.3908
  836YOPS   C4B11514   5.025  11.546   7.467 -0.2624 -0.0308 -0.3406
  837YOPS   CNO11515  11.748  15.727   4.870  0.0090  0.1820 -0.1512
  837YOPS   PO411516  11.847  15.911   5.182  0.1613  0.2051 -0.1243
  837YOPS   GL111517  11.714  15.972   5.667 -0.3656  0.0803  0.2749
  837YOPS   GL211518  11.878  16.173   5.868  0.2662 -0.2224  0.0143
  837YOPS   C1A11519  11.745  15.859   6.183 -0.3617  0.2005 -0.1456
  837YOPS   D2A11520  11.787  15.552   6.553  0.3257  0.0467 -0.2197
  837YOPS   C3A11521  12.062  15.376   6.942 -0.0631 -0.2182  0.1399
  837YOPS   C4A11522  11.948  15.248   7.317  0.3235  0.2251  0.2689
  837YOPS   C1B11523  11.558  16.449   6.132 -0.2756  0.1550  0.1199
  837YOPS   C2B11524  11.299  16.812   6.445  0.1760  0.0123 -0.0746
  837YOPS   D3B11525  11.016  17.042   6.558 -0.0798  0.1812  0.1644
  837YOPS   C4B11526  10.896  17.406   6.684  0.0819  0.2158  0.0809
  838YOPS   CNO11527  14.772  13.272   5.179 -0.2307  0.0234  0.2650
  838YOPS   PO411528  15.052  13.224   5.551  0.1074  0.0896  0.0152
  838YOPS   GL111529  15.155  12.938   5.946  0.0907 -0.1886  0.0813
  838YOPS   GL211530  15.371  12.959   6.149  0.0259 -0.1593 -0.1001
  838YOPS   C1A11531  14.885  12.745   6.241 -0.3010 -0.1024  0.3877
  838YOPS   D2A11532  14.511  12.759   6.465 -0.0045 -0.1401  0.2947
  838YOPS   C3A11533  14.405  12.770   6.852  0.5069  0.0340  0.0637
  838YOPS   C4A11534  14.608  12.424   7.150  0.0040 -0.1616  0.0120
  838YOPS   C1B11535  15.349  12.895   6.628  0.0468 -0.1141 -0.0569
  838YOPS   C2B11536  15.356  12.873   7.045 -0.2934 -0.0653  0.4210
  838YOPS   D3B11537  15.534  12.821   7.488  0.2255  0.2576 -0.0517
  838YOPS   C4B11538  15.507  13.146   7.733  0.4032  0.0498 -0.2178
  839YOPS   CNO11539   8.296   4.200   5.543  0.0033  0.1648 -0.1482
  839YOPS   PO411540   8.099   4.352   5.862  0.4452 -0.0714  0.3160
  839YOPS   GL111541   7.747   4.372   6.258  0.0919 -0.0271 -0.1414
  839YOPS   GL211542   7.755   4.728   6.418  0.1959  0.3379 -0.0860
  839YOPS   C1A11543   7.477   4.369   6.627 -0.0252 -0.1403  0.0261
  839YOPS   D2A11544   7.416   4.450   7.062  0.0609 -0.4564  0.3665
  839YOPS   C3A11545   7.427   4.336   7.493  0.2650 -0.2817  0.0204
  839YOPS   C4A11546   7.721   4.560   7.844 -0.1364 -0.1642  0.2960
  839YOPS   C1B11547   7.759   4.893   6.728 -0.4431 -0.1074 -0.0515
  839YOPS   C2B11548   7.669   4.862   7.122 -0.1744  0.2477 -0.1852
  839YOPS   D3B11549   7.261   4.861   7.332 -0.2169 -0.0212  0.0289
  839YOPS   C4B11550   7.190   4.863   7.799 -0.2424 -0.0918 -0.2926
  840YOPS   CNO11551   6.576   7.526   6.016  0.2617  0.2261  0.2252
  840YOPS   PO411552   6.940   7.568   5.810 -0.1153  0.2458  0.3495
  840YOPS   GL111553   6.996   7.330   6.201  0.1641 -0.1066 -0.0889
  840YOPS   GL211554   6.827   7.006   6.209 -0.1337  0.0277  0.1122
  840YOPS   C1A11555   6.879   7.528   6.584  0.1519  0.2455  0.3779
  840YOPS   D2A11556   7.045   7.437   6.842  0.0879 -0.1309 -0.2487
  840YOPS   C3A11557   7.295   7.409   7.161 -0.0432 -0.0839  0.0831
  840YOPS   C4A11558   7.122   7.259   7.568 -0.0672  0.3708 -0.0568
  840YOPS   C1B11559   7.127   6.969   6.509 -0.1005 -0.1216  0.0850
  840YOPS   C2B11560   7.282   6.925   7.072  0.1108 -0.1955  0.1446
  840YOPS   D3B11561   7.425   6.908   7.493 -0.2084 -0.1782  0.0844
  840YOPS   C4B11562   7.398   6.632   7.929  0.1575 -0.0573  0.0045
  841YOPS   CNO11563   4.061  16.322   5.497 -0.0597 -0.1544  0.2264
  841YOPS   PO411564   4.125  16.440   5.934  0.0895 -0.1287  0.1242
  841YOPS   GL111565   3.979  16.537   6.255  0.1016 -0.1472  0.4066
  841YOPS   GL211566   3.866  16.219   6.260  0.0917 -0.0915  0.0015
  841YOPS   C1A11567   3.905  16.481   6.680  0.2296 -0.0848 -0.0303
  841YOPS   D2A11568   3.804  16.261   7.092  0.0806  0.1567 -0.2200
  841YOPS   C3A11569   3.638  15.895   7.326 -0.2703 -0.1260  0.0567
  841YOPS   C4A11570   3.573  16.063   7.672 -0.0317  0.1858  0.0762
  841YOPS   C1B11571   3.917  16.000   6.689 -0.0905  0.2025 -0.2024
  841YOPS   C2B11572   4.041  15.803   7.015  0.1105 -0.0307 -0.2111
  841YOPS   D3B11573   4.057  15.927   7.580 -0.1155  0.4915 -0.0989
  841YOPS   C4B11574   4.307  16.265   7.782 -0.0793  0.0005 -0.2006
  842POPE   NH311575   8.712  10.246   5.506 -0.0153  0.3061  0.1815
  842POPE   PO411576   8.271  10.080   5.653 -0.1583  0.2021  0.1100
  842POPE   GL111577   8.596  10.128   5.967 -0.0587  0.0615 -0.2322
  842POPE   GL211578   8.671  10.312   6.390 -0.0548 -0.1095 -0.2411
  842POPE   C1A11579   8.854   9.801   6.199  0.1261  0.2613  0.0262
  842POPE   D2A11580   8.931   9.521   6.646 -0.2323  0.0273  0.1708
  842POPE   C3A11581   8.758   9.752   7.038  0.3581  0.1949 -0.5186
  842POPE   C4A11582   8.386   9.897   7.066  0.2084  0.1931 -0.3757
  842POPE   C1B11583   8.569  10.364   6.815 -0.2167  0.1474 -0.3031
  842POPE   C2B11584   8.726  10.206   7.232 -0.1777 -0.0241  0.0921
  842POPE   C3B11585   9.024  10.178   7.290 -0.0477 -0.1382 -0.0746
  842POPE   C4B11586   9.172  10.595   7.243  0.0396 -0.0231 -0.0378
  843POPE   NH311587  15.730   7.249   5.522  0.1607  0.0156 -0.1342
  843POPE   PO411588  15.438   7.630   5.430 -0.2807 -0.0061 -0.0790
  843POPE   GL111589  15.530   7.723   5.828  0.0140  0.1006 -0.0605
  843POPE   GL211590  15.394   7.369   5.907  0.1312 -0.2839  0.0393
  843POPE   C1A11591  15.549   7.653   6.301  0.1161 -0.1792 -0.0452
  843POPE   D2A11592  15.796   7.726   6.578  0.0569 -0.1371 -0.0853
  843POPE   C3A11593  15.883   7.355   6.926 -0.0696  0.1332 -0.1589
  843POPE   C4A11594  15.942   7.200   7.257 -0.3887  0.4250  0.1542
  843POPE   C1B11595  15.546   7.135   6.298 -0.0464 -0.3989 -0.1090
  843POPE   C2B11596  15.406   6.892   6.672  0.0575  0.2743 -0.0593
  843POPE   C3B11597  15.526   6.893   7.028 -0.0792 -0.1199 -0.1528
  843POPE   C4B11598  15.397   7.164   7.345  0.1358 -0.3809 -0.1877
  844POPE   NH311599  10.564  14.931   5.171 -0.6256 -0.0754 -0.0059
  844POPE   PO411600  10.154  14.981   5.279 -0.0727 -0.3547  0.0414
  844POPE   GL111601  10.309  14.931   5.657  0.3586  0.1605  0.2800
  844POPE   GL211602  10.196  15.084   5.943 -0.0971  0.0755 -0.1424
  844POPE   C1A11603  10.520  14.592   5.926  0.0878  0.0944 -0.0678
  844POPE   D2A11604  11.007  14.262   5.858 -0.0401 -0.2080  0.0086
  844POPE   C3A11605  11.343  14.505   5.840  0.1715  0.1280  0.2160
  844POPE   C4A11606  11.517  14.866   6.014  0.0466 -0.0308 -0.0158
  844POPE   C1B11607  10.083  14.891   6.275  0.0722  0.2652  0.0653
  844POPE   C2B11608  10.078  14.832   6.557 -0.0388  0.1424  0.1113
  844POPE   C3B11609  10.030  14.920   6.945  0.3243  0.0697 -0.0659
  844POPE   C4B11610   9.861  14.762   7.305  0.0385  0.1097  0.0510
  845POPE   NH311611  17.256  16.764   5.365  0.0205  0.2860  0.0457
  845POPE   PO411612  17.654  17.022   5.292 -0.0215 -0.2041 -0.3144
  845POPE   GL111613  17.903  16.902   5.614 -0.1442 -0.0266  0.1663
  845POPE   GL211614  17.620  16.735   5.767  0.2056  0.2020  0.2958
  845POPE   C1A11615  18.014  16.871   6.092  0.3626  0.2330  0.0060
  845POPE   D2A11616  18.304  17.016   6.416  0.0385  0.1447 -0.0710
  845POPE   C3A11617  17.960  17.041   6.687  0.0457 -0.0977 -0.0976
  845POPE   C4A11618  17.822  16.756   6.819  0.3621 -0.3250 -0.1711
  845POPE   C1B11619  17.600  17.118   5.976 -0.1252 -0.2538  0.2866
  845POPE   C2B11620  17.578  17.202   6.430 -0.0630  0.0582  0.4637
  845POPE   C3B11621  17.525  17.274   6.944 -0.3357  0.0137 -0.3129
  845POPE   C4B11622  17.624  16.999   7.328  0.0508 -0.1497  0.3719
  846POPE   NH311623   5.876   8.441   5.758  0.0014  0.0713 -0.2442
  846POPE   PO411624   5.558   8.793   5.716 -0.2201  0.3049 -0.1858
  846POPE   GL111625   5.543   9.112   5.966  0.2550 -0.1579 -0.1002
  846POPE   GL211626   5.430   9.465   5.927  0.2252  0.0732 -0.2693
  846POPE   C1A11627   5.481   9.021   6.389  0.0601  0.0430 -0.0775
  846POPE   D2A11628   5.481   9.068   6.748  0.2674 -0.0096 -0.1143
  846POPE   C3A11629   5.186   9.150   6.996 -0.1850  0.0307  0.2132
  846POPE   C4A11630   4.756   8.987   7.007 -0.2425  0.0426  0.1486
  846POPE   C1B11631   5.728   9.496   6.243  0.2934  0.0121  0.1775
  846POPE   C2B11632   5.829   9.590   6.634  0.2578  0.4676 -0.3414
  846POPE   C3B11633   5.770   9.396   7.080 -0.2411  0.0984 -0.2188
  846POPE   C4B11634   5.860   9.341   7.502  0.0948 -0.0630 -0.0282
  847POPE   NH311635   7.998   3.699   5.846 -0.1236 -0.0686 -0.1305
  847POPE   PO411636   7.622   3.895   6.208  0.0454  0.1137  0.3406
  847POPE   GL111637   7.150   4.161   6.349 -0.0924 -0.0715 -0.4000
  847POPE   GL211638   6.861   4.137   6.385  0.2598 -0.0715 -0.0654
  847POPE   C1A11639   6.966   4.275   6.831  0.0082 -0.3365  0.1867
  847POPE   D2A11640   6.879   4.583   7.041  0.1645 -0.2316  0.1310
  847POPE   C3A11641   6.918   4.487   7.414  0.0043 -0.0794 -0.0548
  847POPE   C4A11642   6.846   4.503   7.815 -0.1843 -0.1266  0.2000
  847POPE   C1B11643   6.991   4.592   6.423 -0.0137  0.1005  0.1151
  847POPE   C2B11644   6.633   4.921   6.627  0.0457 -0.1818  0.0554
  847POPE   C3B11645   6.474   4.901   7.120  0.3915 -0.0134  0.0348
  847POPE   C4B11646   6.483   4.820   7.574 -0.0444 -0.4299  0.4133
  848POPE   NH311647   5.324   2.419   5.894  0.0553 -0.0738  0.0528
  848POPE   PO411648   5.093   2.876   5.899  0.1094 -0.0745  0.2592
  848POPE   GL111649   5.067   2.711   6.297  0.0815 -0.0742  0.0046
  848POPE   GL211650   5.007   2.339   6.375  0.1288 -0.0451 -0.0491
  848POPE   C1A11651   4.979   2.628   6.753 -0.2235  0.2268  0.0569
  848POPE   D2A11652   5.218   2.601   7.128  0.0912  0.0625 -0.0890
  848POPE   C3A11653   5.038   2.619   7.521 -0.0621  0.1651  0.0699
  848POPE   C4A11654   4.537   2.473   7.725 -0.0126  0.1996 -0.1469
  848POPE   C1B11655   4.816   2.081   6.734 -0.0676 -0.2903 -0.2309
  848POPE   C2B11656   4.870   1.865   7.024 -0.1552 -0.0028  0.0544
  848POPE   C3B11657   4.823   1.617   7.420 -0.2545 -0.1765 -0.1025
  848POPE   C4B11658   4.734   1.220   7.500 -0.0061 -0.1977 -0.3346
  849POPE   NH311659  14.607  18.949   5.636 -0.2719  0.0884  0.0357
  849POPE   PO411660  14.499  18.612   5.344 -0.1365 -0.1052  0.0479
  849POPE   GL111661  14.543  18.410   5.774  0.0029  0.0060  0.1012
  849POPE   GL211662  14.701  18.193   5.971  0.1620  0.3930  0.0834
  849POPE   C1A11663  14.514  18.559   6.248 -0.1987 -0.0401  0.2540
  849POPE   D2A11664  14.268  18.832   6.525  0.0353  0.1170  0.2915
  849POPE   C3A11665  14.379  18.833   6.973 -0.3039 -0.2730  0.4193
  849POPE   C4A11666  14.461  19.115   7.316 -0.2945  0.0422  0.1212
  849POPE   C1B11667  14.671  18.114   6.457 -0.1207 -0.0139  0.1906
  849POPE   C2B11668  14.573  18.022   6.950 -0.1079  0.2941  0.0231
  849POPE   C3B11669  14.319  17.622   7.140  0.1648  0.0866  0.1321
  849POPE   C4B11670  14.377  17.187   7.403 -0.1441 -0.5243  0.0464
  850POPE   NH311671   6.797  10.190   5.494 -0.1225  0.1549  0.0809
  850POPE   PO411672   6.455  10.364   5.637 -0.0298  0.1322 -0.2132
  850POPE   GL111673   6.362  10.341   6.096  0.0390  0.2612 -0.1340
  850POPE   GL211674   6.279  10.661   6.163  0.1769  0.1470  0.1071
  850POPE   C1A11675   6.418  10.306   6.515 -0.0014  0.3291 -0.2970
  850POPE   D2A11676   6.648  10.342   6.800  0.2278 -0.0166 -0.1972
  850POPE   C3A11677   7.030  10.695   6.954 -0.3359  0.2127 -0.0600
  850POPE   C4A11678   7.284  10.785   7.262  0.1176 -0.1384  0.0093
  850POPE   C1B11679   6.200  10.738   6.590  0.0129 -0.5069  0.1320
  850POPE   C2B11680   6.021  11.060   7.008 -0.0028  0.2431  0.1579
  850POPE   C3B11681   6.116  11.024   7.387 -0.1610 -0.1340  0.1795
  850POPE   C4B11682   6.020  10.724   7.616  0.1319 -0.1107 -0.3020
  851POPE   NH311683   2.313   1.742   5.618  0.2125  0.1897 -0.2363
  851POPE   PO411684   2.316   2.208   5.730 -0.2531 -0.1605  0.2602
  851POPE   GL111685   2.525   2.317   6.120 -0.0295  0.1275  0.1429
  851POPE   GL211686   2.545   2.597   6.124  0.2835  0.2528  0.2834
  851POPE   C1A11687   2.542   2.203   6.547 -0.1490 -0.3403  0.1603
  851POPE   D2A11688   2.421   1.973   6.925  0.0891  0.4038  0.2101
  851POPE   C3A11689   2.412   1.968   7.360  0.3565 -0.0096 -0.0767
  851POPE   C4A11690   2.529   1.949   7.784 -0.0144 -0.2653 -0.0494
  851POPE   C1B11691   2.466   2.849   6.431  0.0969  0.1007  0.1122
  851POPE   C2B11692   2.330   2.677   6.801 -0.0978  0.0684 -0.0225
  851POPE   C3B11693   2.418   2.482   7.217  0.3098  0.2562  0.1165
  851POPE   C4B11694   2.292   2.401   7.679 -0.0958  0.1336  0.2039
  852POPE   NH311695   1.345   0.082   5.471  0.0737  0.0162 -0.0934
  852POPE   PO411696   1.233  -0.405   5.369 -0.1827 -0.1341  0.3024
  852POPE   GL111697   1.174  -0.299   5.823 -0.0068 -0.1695  0.1603
  852POPE   GL211698   0.875  -0.085   5.699 -0.1044  0.0820  0.2730
  852POPE   C1A11699   1.100  -0.298   6.145  0.0381 -0.0807 -0.1509
  852POPE   D2A11700   0.932  -0.344   6.551 -0.2368  0.2211 -0.1933
  852POPE   C3A11701   1.033  -0.218   6.903  0.0973  0.1176  0.1985
  852POPE   C4A11702   0.900   0.057   7.285  0.2019 -0.0383 -0.1496
  852POPE   C1B11703   0.670  -0.008   6.021  0.1064  0.3785 -0.1118
  852POPE   C2B11704   0.526  -0.061   6.401 -0.0369  0.2488 -0.0053
  852POPE   C3B11705   0.392  -0.008   6.754 -0.1684 -0.0341  0.0193
  852POPE   C4B11706   0.510  -0.200   7.045  0.0696  0.1724 -0.4332
  853POPE   NH311707  18.761   2.786   5.244  0.0256  0.1762  0.1519
  853POPE   PO411708  19.060   2.482   5.468 -0.2096  0.1790  0.1423
  853POPE   GL111709  19.087   2.478   5.851  0.2424  0.0568  0.2282
  853POPE   GL211710  19.425   2.686   5.799 -0.1612  0.0583 -0.0127
  853POPE   C1A11711  19.033   2.188   6.206 -0.0983 -0.1607  0.1497
  853POPE   D2A11712  19.217   2.156   6.642  0.2409  0.0983  0.2395
  853POPE   C3A11713  19.221   1.920   6.847 -0.2582 -0.1401 -0.1842
  853POPE   C4A11714  19.679   1.856   6.874  0.3441  0.2745  0.1619
  853POPE   C1B11715  19.570   2.936   6.273  0.2728  0.0903  0.1757
  853POPE   C2B11716  19.517   2.835   6.714  0.4130 -0.0454  0.0231
  853POPE   C3B11717  19.217   2.748   7.102  0.1204  0.1006  0.0799
  853POPE   C4B11718  19.126   2.481   7.449 -0.1180  0.1132 -0.0085
  854POPE   NH311719   1.134   8.776   5.269 -0.2566  0.0730 -0.0686
  854POPE   PO411720   1.029   9.282   5.365  0.0210 -0.1513 -0.0738
  854POPE   GL111721   1.004   9.120   5.700  0.0652  0.1846  0.3450
  854POPE   GL211722   1.163   9.153   5.960  0.0861  0.1396 -0.2302
  854POPE   C1A11723   0.731   8.924   5.871  0.2218 -0.2916  0.2588
  854POPE   D2A11724   0.301   8.852   5.842  0.1027  0.2814  0.4318
  854POPE   C3A11725  -0.056   8.933   6.105 -0.0312  0.0687 -0.3732
  854POPE   C4A11726   0.022   8.888   6.517  0.0161 -0.0084 -0.1032
  854POPE   C1B11727   1.009   9.151   6.280  0.2004 -0.0481 -0.1454
  854POPE   C2B11728   0.845   8.946   6.651  0.2110 -0.0642 -0.1497
  854POPE   C3B11729   0.785   8.755   6.978  0.1591 -0.5100  0.2126
  854POPE   C4B11730   0.301   8.805   7.232 -0.2892 -0.2208  0.0239
  855POPE   NH311731   8.833  11.871   5.673  0.0944 -0.2782  0.0905
  855POPE   PO411732   9.277  12.054   5.369 -0.1292 -0.0484  0.0042
  855POPE   GL111733   9.505  12.272   5.623  0.2210 -0.2551  0.3730
  855POPE   GL211734   9.331  11.939   5.855 -0.2294  0.2093 -0.3605
  855POPE   C1A11735   9.654  12.282   6.061 -0.0557 -0.2674  0.0911
  855POPE   D2A11736   9.857  12.485   6.411  0.2150  0.1192 -0.1477
  855POPE   C3A11737  10.051  12.191   6.566 -0.1466  0.0035 -0.2815
  855POPE   C4A11738  10.054  11.822   6.947  0.2408  0.0338  0.0024
  855POPE   C1B11739   9.340  11.830   6.202 -0.3917  0.1327  0.0236
  855POPE   C2B11740   9.405  11.537   6.550 -0.3033 -0.0421  0.1576
  855POPE   C3B11741   9.106  11.366   6.763 -0.2599 -0.0360  0.0054
  855POPE   C4B11742   9.004  10.942   6.850  0.2561 -0.0826  0.0568
  856POPE   NH311743   9.327   7.507   5.487  0.2535  0.1091 -0.0370
  856POPE   PO411744   9.468   7.749   5.459 -0.2541  0.1087 -0.0189
  856POPE   GL111745   9.354   8.194   5.551 -0.0504  0.0949  0.0732
  856POPE   GL211746   9.689   8.212   5.779  0.1019 -0.2481  0.1019
  856POPE   C1A11747   9.333   8.196   6.032  0.0456 -0.1924 -0.1200
  856POPE   D2A11748   9.450   8.336   6.331 -0.1940 -0.2100  0.1609
  856POPE   C3A11749   9.303   8.396   6.696  0.0583  0.1669 -0.2502
  856POPE   C4A11750   9.510   8.261   7.096 -0.2133 -0.0542 -0.0571
  856POPE   C1B11751   9.922   8.204   6.237  0.2985 -0.2038 -0.1927
  856POPE   C2B11752   9.931   8.418   6.710  0.0092  0.0212 -0.0351
  856POPE   C3B11753  10.143   8.475   7.121  0.2019  0.0135 -0.0818
  856POPE   C4B11754   9.894   8.395   7.523  0.1341  0.2144 -0.0268
  857POPE   NH311755   5.680   0.860   5.921 -0.2237  0.0216  0.1724
  857POPE   PO411756   6.020   0.722   5.800 -0.0540  0.0593  0.1374
  857POPE   GL111757   6.091   0.678   6.246 -0.0979 -0.0139  0.1547
  857POPE   GL211758   6.120   0.473   6.358 -0.5585 -0.3375  0.0535
  857POPE   C1A11759   5.961   0.900   6.620 -0.2155  0.1327 -0.0744
  857POPE   D2A11760   5.952   0.786   7.078 -0.2256  0.3873  0.2914
  857POPE   C3A11761   5.729   0.443   7.253  0.1669 -0.0966  0.0595
  857POPE   C4A11762   5.730   0.362   7.635  0.2386  0.0912 -0.3538
  857POPE   C1B11763   6.266   0.437   6.790 -0.1107 -0.0006  0.2288
  857POPE   C2B11764   6.126   0.260   7.060  0.1400  0.3079  0.3008
  857POPE   C3B11765   5.932   0.006   7.434 -0.1149 -0.3296  0.1932
  857POPE   C4B11766   5.651  -0.180   7.688 -0.1245  0.0495 -0.0738
  858POPE   NH311767  12.291   1.179   5.807 -0.1574 -0.2648  0.0150
  858POPE   PO411768  12.007   1.504   5.846  0.0899  0.5158  0.0349
  858POPE   GL111769  11.892   1.391   6.181  0.0249 -0.0033  0.0022
  858POPE   GL211770  11.859   1.036   6.091  0.0786  0.2977 -0.0754
  858POPE   C1A11771  11.796   1.630   6.522 -0.0738  0.0396 -0.5790
  858POPE   D2A11772  11.515   1.702   6.701  0.2926  0.0572  0.0848
  858POPE   C3A11773  11.552   1.766   7.063 -0.2358 -0.0851 -0.0309
  858POPE   C4A11774  11.368   1.759   7.425 -0.1375  0.1011  0.2447
  858POPE   C1B11775  11.659   0.750   6.275 -0.2141  0.2516  0.1903
  858POPE   C2B11776  11.377   0.636   6.513 -0.2284  0.0119  0.4654
  858POPE   C3B11777  11.172   0.897   6.836  0.2424  0.2336  0.1048
  858POPE   C4B11778  10.890   0.868   7.204 -0.0654  0.0288 -0.2172
  859POPE   NH311779   4.896   6.748   4.869 -0.0294 -0.1778 -0.0835
  859POPE   PO411780   4.581   6.554   5.252  0.0171  0.4376  0.0148
  859POPE   GL111781   4.312   6.696   5.611  0.2615  0.0354 -0.0665
  859POPE   GL211782   3.930   6.553   5.559  0.2148  0.0588  0.2265
  859POPE   C1A11783   4.260   6.870   5.898  0.1680 -0.0943 -0.1285
  859POPE   D2A11784   4.025   7.087   6.283  0.1175 -0.0745 -0.0505
  859POPE   C3A11785   4.140   6.908   6.735 -0.0693 -0.0019 -0.0516
  859POPE   C4A11786   3.821   6.809   7.147  0.0176 -0.0761  0.1111
  859POPE   C1B11787   3.837   6.095   5.969 -0.1548 -0.5332  0.3291
  859POPE   C2B11788   3.679   6.128   6.459  0.1139  0.2328  0.3706
  859POPE   C3B11789   3.420   6.142   6.878  0.3442  0.1594 -0.1506
  859POPE   C4B11790   3.515   6.248   7.263 -0.0838  0.0289  0.1071
  860POPE   NH311791  16.644  16.079   5.415  0.1608  0.1091 -0.0950
  860POPE   PO411792  16.774  15.605   5.272 -0.0824 -0.4084  0.2595
  860POPE   GL111793  16.769  15.696   5.700 -0.3256  0.3157  0.0970
  860POPE   GL211794  16.481  15.784   5.837 -0.0146 -0.2198 -0.1216
  860POPE   C1A11795  16.916  15.949   6.049 -0.1673  0.0110 -0.2008
  860POPE   D2A11796  17.002  15.861   6.434  0.2103  0.0055  0.1264
  860POPE   C3A11797  17.193  15.918   6.727  0.0767 -0.1243 -0.0866
  860POPE   C4A11798  17.407  15.877   7.192  0.0267  0.2901 -0.2557
  860POPE   C1B11799  16.625  15.618   6.211  0.0977  0.3888 -0.1060
  860POPE   C2B11800  16.568  15.636   6.640 -0.0073  0.0763  0.1181
  860POPE   C3B11801  16.826  15.780   7.008 -0.2764 -0.1244 -0.0166
  860POPE   C4B11802  16.944  15.781   7.454  0.1388  0.0625  0.1052
  861POPE   NH311803   8.499   7.615   5.236 -0.0570  0.0869  0.0429
  861POPE   PO411804   8.545   8.102   5.344  0.1420  0.0208 -0.0932
  861POPE   GL111805   8.519   8.343   5.784 -0.4145 -0.3004  0.2052
  861POPE   GL211806   8.398   8.623   5.694 -0.2502  0.1778 -0.2621
  861POPE   C1A11807   8.807   8.338   6.068 -0.2000  0.0175 -0.0492
  861POPE   D2A11808   8.794   8.402   6.505 -0.0241  0.1072  0.3317
  861POPE   C3A11809   8.642   8.185   6.812  0.1814 -0.2378  0.3576
  861POPE   C4A11810   8.327   8.047   7.149 -0.3797  0.1054  0.1078
  861POPE   C1B11811   8.305   8.599   6.178  0.1814  0.0506  0.0874
  861POPE   C2B11812   7.861   8.662   6.356  0.1561  0.0782 -0.1223
  861POPE   C3B11813   7.663   8.362   6.704  0.1766 -0.0566  0.1368
  861POPE   C4B11814   7.184   8.344   6.781  0.3621 -0.2787  0.3109
  862POPE   NH311815   1.190   0.960   5.061  0.1359 -0.0802 -0.0929
  862POPE   PO411816   1.469   0.662   5.271 -0.0828 -0.0417  0.0428
  862POPE   GL111817   1.737   0.438   5.695 -0.0675  0.1678 -0.2838
  862POPE   GL211818   1.603   0.657   5.915  0.0294 -0.4304 -0.1439
  862POPE   C1A11819   1.847   0.087   5.997 -0.0141 -0.2606  0.0251
  862POPE   D2A11820   1.608   0.004   6.355  0.0029  0.1326  0.0640
  862POPE   C3A11821   1.465  -0.449   6.541 -0.1864  0.2285 -0.0052
  862POPE   C4A11822   1.293  -0.631   6.871  0.4227  0.2082 -0.0386
  862POPE   C1B11823   1.493   0.504   6.273  0.1159 -0.0575  0.1051
  862POPE   C2B11824   1.537   0.391   6.673 -0.2862 -0.0411 -0.1052
  862POPE   C3B11825   1.467  -0.006   6.847  0.0460 -0.1988 -0.1182
  862POPE   C4B11826   1.518  -0.266   7.290 -0.0406  0.4173  0.2570
  863POPE   NH311827   0.572  11.928   5.705  0.2299 -0.0125  0.2353
  863POPE   PO411828   0.948  12.262   5.661  0.1997 -0.4864 -0.1266
  863POPE   GL111829   1.116  12.481   6.071 -0.0463 -0.3869  0.2453
  863POPE   GL211830   0.888  12.535   6.401 -0.0605 -0.1398 -0.0857
  863POPE   C1A11831   1.536  12.257   6.290 -0.0230  0.3759 -0.0538
  863POPE   D2A11832   1.830  12.264   6.538 -0.2159 -0.0484 -0.0800
  863POPE   C3A11833   1.847  12.114   6.948 -0.2063  0.2797 -0.0241
  863POPE   C4A11834   1.949  11.948   7.310 -0.1193  0.1687 -0.2294
  863POPE   C1B11835   1.017  12.640   6.872  0.0164  0.1430 -0.0353
  863POPE   C2B11836   1.184  12.882   7.206 -0.1725  0.1564  0.1263
  863POPE   C3B11837   1.502  12.960   7.430 -0.0145 -0.2729 -0.0536
  863POPE   C4B11838   1.920  12.926   7.514  0.1153 -0.0169 -0.1059
  864POPE   NH311839   9.612   4.824   5.557  0.2588  0.0693 -0.0569
  864POPE   PO411840   9.353   5.197   5.586  0.0918 -0.3149 -0.0531
  864POPE   GL111841   9.260   5.420   6.031  0.0268  0.0921  0.0121
  864POPE   GL211842   9.546   5.651   6.059 -0.3088 -0.2835  0.1660
  864POPE   C1A11843   8.964   5.559   6.302  0.1911 -0.1031 -0.2625
  864POPE   D2A11844   9.134   5.749   6.588 -0.0017  0.1454  0.1455
  864POPE   C3A11845   9.453   5.915   6.496 -0.1195  0.0123  0.1082
  864POPE   C4A11846   9.894   5.829   6.510  0.2472  0.1386 -0.2982
  864POPE   C1B11847   9.670   6.117   6.026  0.0595  0.0083 -0.0102
  864POPE   C2B11848  10.006   6.363   6.215  0.0657 -0.0267 -0.3650
  864POPE   C3B11849  10.288   6.069   6.356  0.2096  0.1359  0.1699
  864POPE   C4B11850  10.394   5.668   6.278  0.0298  0.0479 -0.1529
  865POPE   NH311851   8.665   0.154   6.169  0.2365  0.2214 -0.0479
  865POPE   PO411852   8.928   0.418   5.947  0.0341  0.0963 -0.0561
  865POPE   GL111853   9.060   0.377   6.363 -0.1623 -0.2123  0.2362
  865POPE   GL211854   9.106   0.670   6.340 -0.0122 -0.0846 -0.1378
  865POPE   C1A11855   9.200   0.213   6.771 -0.0894  0.3174 -0.2724
  865POPE   D2A11856   9.330   0.378   7.132  0.2975  0.2206  0.3902
  865POPE   C3A11857   9.288   0.205   7.531  0.0016  0.1982 -0.1757
  865POPE   C4A11858   9.079   0.299   7.937 -0.3617 -0.2257 -0.2307
  865POPE   C1B11859   9.199   0.777   6.728  0.2008  0.1769 -0.3625
  865POPE   C2B11860   9.118   0.792   7.122 -0.2172 -0.3377 -0.1608
  865POPE   C3B11861   9.126   0.741   7.533 -0.0494  0.2187 -0.2927
  865POPE   C4B11862   9.017   0.816   8.035  0.4413  0.3270 -0.2219
  866POPE   NH311863   0.486  16.182   5.256 -0.5695 -0.0087  0.0828
  866POPE   PO411864   0.182  16.502   5.111 -0.1306 -0.0709  0.1368
  866POPE   GL111865   0.499  16.632   5.467 -0.0988  0.3883  0.0559
  866POPE   GL211866   0.529  16.374   5.741  0.0427  0.1731 -0.0569
  866POPE   C1A11867   0.606  17.096   5.472  0.2265  0.0792 -0.5132
  866POPE   D2A11868   0.545  17.535   5.820 -0.1656  0.0781 -0.2040
  866POPE   C3A11869   0.636  17.411   6.146  0.0290 -0.0117 -0.0003
  866POPE   C4A11870   0.458  17.463   6.520 -0.1216 -0.0076 -0.4403
  866POPE   C1B11871   0.328  16.664   6.030  0.3596 -0.0624  0.0606
  866POPE   C2B11872   0.283  16.816   6.463  0.3920  0.0903  0.0660
  866POPE   C3B11873   0.167  17.142   6.821  0.1307 -0.0131  0.2924
  866POPE   C4B11874  -0.099  17.428   7.015  0.3483 -0.1378  0.4157
  867POPE   NH311875  16.481   1.939   5.343  0.2720 -0.1509  0.5941
  867POPE   PO411876  16.638   2.323   5.264 -0.3121 -0.2716 -0.1477
  867POPE   GL111877  16.684   2.276   5.719 -0.1365 -0.1009 -0.0867
  867POPE   GL211878  16.399   2.295   6.002 -0.2272 -0.1143  0.2847
  867POPE   C1A11879  16.834   2.636   5.965 -0.0313 -0.0679  0.0272
  867POPE   D2A11880  16.944   2.656   6.364 -0.0757  0.4354 -0.3153
  867POPE   C3A11881  17.119   2.366   6.636  0.0282 -0.0567  0.0749
  867POPE   C4A11882  17.109   1.937   6.962 -0.0013  0.0071 -0.1010
  867POPE   C1B11883  16.465   2.495   6.278  0.3470 -0.1247 -0.0421
  867POPE   C2B11884  16.520   2.545   6.664  0.0394  0.0024 -0.0605
  867POPE   C3B11885  16.824   2.395   7.026  0.0710  0.1504 -0.1568
  867POPE   C4B11886  16.963   2.291   7.473  0.1690  0.0783 -0.2916
  868POPE   NH311887  13.145  11.226   5.482  0.0274 -0.1534 -0.0477
  868POPE   PO411888  12.837  10.921   5.273  0.0211  0.0880  0.3195
  868POPE   GL111889  12.958  10.777   5.715  0.0444  0.4084  0.1192
  868POPE   GL211890  12.997  10.981   6.083  0.2712 -0.2525  0.0513
  868POPE   C1A11891  12.929  10.470   6.110  0.0768  0.1777  0.0472
  868POPE   D2A11892  12.890  10.559   6.542  0.0812 -0.2737  0.0224
  868POPE   C3A11893  12.989  10.880   6.805  0.1666 -0.1186 -0.2054
  868POPE   C4A11894  12.943  10.935   7.287  0.0142 -0.1652  0.1775
  868POPE   C1B11895  12.653  11.042   6.302  0.1626  0.3687 -0.3337
  868POPE   C2B11896  12.421  10.829   6.654 -0.1162 -0.2184 -0.2222
  868POPE   C3B11897  12.376  10.869   7.032 -0.1596  0.0750  0.2696
  868POPE   C4B11898  12.469  11.028   7.317  0.1049 -0.3541  0.0690
  869POPE   NH311899  17.904   8.847   5.333  0.0104  0.1832  0.1097
  869POPE   PO411900  17.790   8.820   5.816  0.0439  0.0490 -0.1311
  869POPE   GL111901  17.551   9.072   6.094  0.0577 -0.1483  0.3602
  869POPE   GL211902  17.321   9.372   6.143  0.3046 -0.1337 -0.0341
  869POPE   C1A11903  17.616   9.204   6.551  0.0492  0.1686  0.1423
  869POPE   D2A11904  17.845   9.240   6.987  0.0339 -0.1565 -0.1011
  869POPE   C3A11905  17.578   9.236   7.371 -0.1333  0.0841  0.0109
  869POPE   C4A11906  17.430   9.077   7.796 -0.1927 -0.2655 -0.0975
  869POPE   C1B11907  17.521   9.715   6.361 -0.1023  0.1304 -0.1388
  869POPE   C2B11908  17.745  10.145   6.439  0.0283 -0.0759  0.1264
  869POPE   C3B11909  17.851  10.495   6.595  0.0455 -0.0417 -0.2007
  869POPE   C4B11910  18.045  10.773   6.894  0.1055 -0.2491  0.0518
  870POPE   NH311911  18.200   6.858   5.140 -0.0647 -0.0226  0.4592
  870POPE   PO411912  17.977   6.702   5.433  0.3316  0.2359 -0.3203
  870POPE   GL111913  17.608   6.668   5.891  0.2796 -0.1149 -0.1496
  870POPE   GL211914  17.642   6.338   5.955 -0.0577  0.2272  0.1306
  870POPE   C1A11915  17.397   6.742   6.219  0.0628  0.0601  0.3601
  870POPE   D2A11916  17.425   6.687   6.700 -0.1819  0.2245 -0.3616
  870POPE   C3A11917  17.806   6.699   6.967  0.4055 -0.0223 -0.2690
  870POPE   C4A11918  18.073   6.677   7.350 -0.2642  0.0587  0.2776
  870POPE   C1B11919  17.443   6.255   6.367 -0.0813 -0.2409  0.1276
  870POPE   C2B11920  17.231   6.045   6.697  0.0704 -0.2546 -0.1865
  870POPE   C3B11921  16.937   5.942   7.044  0.1100  0.2010  0.2161
  870POPE   C4B11922  16.889   5.800   7.503  0.5490 -0.1321 -0.0034
  871POPE   NH311923   8.494   3.498   5.984  0.2622 -0.1751  0.1789
  871POPE   PO411924   8.357   3.035   5.969  0.1108 -0.2593  0.0663
  871POPE   GL111925   8.486   3.117   6.383 -0.0298  0.0404 -0.1188
  871POPE   GL211926   8.696   2.944   6.496  0.1887 -0.2423 -0.2964
  871POPE   C1A11927   8.319   3.048   6.871 -0.0291 -0.2741 -0.1804
  871POPE   D2A11928   8.226   2.947   7.267 -0.1547  0.1142  0.2658
  871POPE   C3A11929   7.933   2.913   7.514  0.1848  0.0615 -0.0853
  871POPE   C4A11930   7.793   2.626   7.729  0.3610  0.1747 -0.0148
  871POPE   C1B11931   8.816   2.849   6.947 -0.2813 -0.4518 -0.1949
  871POPE   C2B11932   8.662   2.742   7.382 -0.3006  0.0073  0.0882
  871POPE   C3B11933   8.742   2.683   7.812 -0.0131 -0.2277  0.1939
  871POPE   C4B11934   8.564   2.459   8.078 -0.1437  0.1463 -0.0038
  872YOPE   NH311935   4.048  10.465   5.633 -0.1976  0.1975 -0.1067
  872YOPE   PO411936   4.256  10.092   5.695  0.0872 -0.1722  0.0031
  872YOPE   GL111937   4.076  10.071   6.219 -0.1083 -0.2175  0.0521
  872YOPE   GL211938   4.294   9.997   6.305  0.1527 -0.1322  0.2288
  872YOPE   C1A11939   4.024  10.189   6.693 -0.2445 -0.0494  0.0565
  872YOPE   D2A11940   4.145  10.149   7.181 -0.2525  0.2395  0.3353
  872YOPE   C3A11941   4.303  10.555   7.314 -0.0698  0.0208  0.1942
  872YOPE   C4A11942   4.287  10.970   7.616 -0.0159  0.0618  0.1023
  872YOPE   C1B11943   4.168   9.740   6.545 -0.0622 -0.0935  0.0305
  872YOPE   C2B11944   4.234   9.611   6.999 -0.0416 -0.2353  0.2319
  872YOPE   D3B11945   4.305   9.607   7.475  0.1044 -0.1419  0.1243
  872YOPE   C4B11946   4.367   9.578   7.894 -0.2999  0.0745 -0.1062
  873YOPE   NH311947   7.524   1.089   6.178  0.0606  0.1793  0.0334
  873YOPE   PO411948   7.867   1.071   6.009 -0.1876  0.2965 -0.1663
  873YOPE   GL111949   8.165   1.041   6.362 -0.0347 -0.1113 -0.1652
  873YOPE   GL211950   8.010   1.092   6.617  0.1251  0.1435  0.2522
  873YOPE   C1A11951   8.302   0.718   6.676 -0.0824  0.1504  0.1130
  873YOPE   D2A11952   8.744   0.471   6.700 -0.2768  0.3922  0.0386
  873YOPE   C3A11953   8.673   0.143   6.845 -0.0710  0.2906  0.2646
  873YOPE   C4A11954   8.881  -0.048   7.151 -0.0263  0.2702 -0.1008
  873YOPE   C1B11955   7.877   1.520   6.676 -0.1321  0.0133  0.1118
  873YOPE   C2B11956   7.718   1.782   6.986 -0.1406 -0.0084  0.1822
  873YOPE   D3B11957   7.374   1.946   7.327  0.0512 -0.3372  0.1737
  873YOPE   C4B11958   7.171   2.166   7.536 -0.0104  0.2832  0.3271
  874YOPE   NH311959   1.037  11.811   5.546 -0.0308  0.1532  0.0259
  874YOPE   PO411960   1.388  11.748   5.558 -0.0161  0.0059 -0.5091
  874YOPE   GL111961   1.275  11.759   5.998 -0.0460  0.3099 -0.2276
  874YOPE   GL211962   0.911  11.876   6.033  0.4463 -0.2547  0.3942
  874YOPE   C1A11963   1.107  11.556   6.392  0.2468 -0.0458 -0.2212
  874YOPE   D2A11964   0.811  11.649   6.595 -0.1016  0.3402 -0.2557
  874YOPE   C3A11965   1.066  11.776   7.022  0.2129 -0.0089  0.0765
  874YOPE   C4A11966   1.471  11.905   7.217  0.2731  0.0816 -0.3700
  874YOPE   C1B11967   1.108  12.081   6.400  0.1449 -0.2092 -0.0624
  874YOPE   C2B11968   1.306  12.236   6.734 -0.1969 -0.0553 -0.1482
  874YOPE   D3B11969   1.197  12.261   7.151 -0.3160  0.2587 -0.1853
  874YOPE   C4B11970   1.276  12.473   7.461 -0.1111  0.0486  0.0270
  875YOPE   NH311971  15.204  15.033   5.545  0.1395  0.1537  0.1484
  875YOPE   PO411972  14.964  15.154   5.304  0.2039  0.1000 -0.2152
  875YOPE   GL111973  14.466  15.092   5.563 -0.3084 -0.1335 -0.1160
  875YOPE   GL211974  14.323  14.778   5.578 -0.0432 -0.1535  0.0683
  875YOPE   C1A11975  14.362  14.970   6.053  0.2328 -0.2556 -0.2166
  875YOPE   D2A11976  14.268  14.731   6.452  0.1462 -0.1694 -0.1763
  875YOPE   C3A11977  13.887  14.565   6.595  0.1975 -0.0738 -0.0860
  875YOPE   C4A11978  13.579  14.316   6.778  0.2406  0.1592 -0.1753
  875YOPE   C1B11979  13.921  14.843   5.864  0.3699  0.1553  0.3253
  875YOPE   C2B11980  13.737  14.524   6.075 -0.3981 -0.0353 -0.0217
  875YOPE   D3B11981  13.418  14.479   6.260 -0.2207 -0.1975 -0.4229
  875YOPE   C4B11982  13.123  14.275   6.563 -0.1215  0.2370 -0.1398
  876YOPE   NH311983  13.020   7.814   5.578 -0.0221 -0.0393 -0.0459
  876YOPE   PO411984  13.552   7.757   5.647 -0.1388 -0.0135 -0.3435
  876YOPE   GL111985  13.320   7.623   5.983 -0.4161 -0.0085  0.0441
  876YOPE   GL211986  13.145   7.334   5.863  0.0964  0.0084 -0.1617
  876YOPE   C1A11987  13.424   7.564   6.440  0.2827 -0.0907  0.1477
  876YOPE   D2A11988  13.457   7.545   6.795  0.2259 -0.2381 -0.2264
  876YOPE   C3A11989  13.476   7.521   7.161  0.0006  0.4519  0.0054
  876YOPE   C4A11990  13.328   7.276   7.563  0.1939  0.0388  0.3520
  876YOPE   C1B11991  13.091   7.177   6.278 -0.0906  0.2098 -0.0292
  876YOPE   C2B11992  13.226   7.035   6.723  0.2225  0.1626 -0.4705
  876YOPE   D3B11993  13.520   7.003   7.035  0.0897 -0.4291  0.1834
  876YOPE   C4B11994  13.727   6.695   7.119 -0.1140  0.2334 -0.1493
  877YOPE   NH311995   1.834  17.465   5.433 -0.2209  0.0644  0.0299
  877YOPE   PO411996   1.705  17.020   5.486 -0.2640  0.0061 -0.0999
  877YOPE   GL111997   1.574  17.161   5.862 -0.0979  0.2212 -0.2980
  877YOPE   GL211998   1.423  16.914   5.897  0.3079 -0.0044  0.3370
  877YOPE   C1A11999   1.746  17.353   6.338  0.0732 -0.1131 -0.0418
  877YOPE   D2A12000   1.811  17.442   6.794  0.0619  0.0011  0.1122
  877YOPE   C3A12001   2.104  17.548   6.981  0.0258  0.6668  0.0414
  877YOPE   C4A12002   2.342  17.723   7.310 -0.4188  0.1894 -0.2448
  877YOPE   C1B12003   1.311  16.829   6.246 -0.2144  0.1051 -0.1880
  877YOPE   C2B12004   1.423  17.037   6.682 -0.2336 -0.2775  0.2752
  877YOPE   D3B12005   1.328  17.125   7.137 -0.0349 -0.0629 -0.2243
  877YOPE   C4B12006   1.144  17.410   7.429  0.0232 -0.1751  0.0557
  878YOPE   NH312007   2.110   8.120   5.478 -0.2022  0.0510  0.1833
  878YOPE   PO412008   1.850   8.274   5.250 -0.0624  0.4027  0.2737
  878YOPE   GL112009   1.793   8.391   5.713 -0.0298  0.0222 -0.0842
  878YOPE   GL212010   1.955   8.455   5.895 -0.0600 -0.1158 -0.2591
  878YOPE   C1A12011   1.616   8.270   6.239 -0.2466 -0.1537  0.0209
  878YOPE   D2A12012   1.701   8.501   6.626  0.0181 -0.3738 -0.0750
  878YOPE   C3A12013   1.374   8.523   6.982  0.0134  0.5802  0.1551
  878YOPE   C4A12014   1.199   8.441   7.409 -0.1280  0.0873 -0.2338
  878YOPE   C1B12015   2.143   8.304   6.365  0.1108 -0.3946 -0.2445
  878YOPE   C2B12016   2.157   8.310   6.757 -0.0318 -0.0457 -0.4234
  878YOPE   D3B12017   2.245   8.126   7.208 -0.2050  0.0378  0.0985
  878YOPE   C4B12018   1.977   8.128   7.583  0.1559  0.3823  0.2105
  879YOPE   NH312019  16.333  11.456   5.670 -0.0174 -0.0928 -0.2757
  879YOPE   PO412020  16.092  11.124   5.694  0.2434  0.3727  0.0856
  879YOPE   GL112021  15.831  10.999   5.973  0.4559  0.1694  0.1609
  879YOPE   GL212022  15.731  11.267   6.171 -0.1631  0.0988 -0.4068
  879YOPE   C1A12023  15.867  10.741   6.320 -0.1581  0.2274  0.2378
  879YOPE   D2A12024  15.878  10.870   6.687 -0.1496  0.5990 -0.0736
  879YOPE   C3A12025  15.948  10.559   7.078  0.0612  0.0664  0.2622
  879YOPE   C4A12026  15.903  10.133   7.271 -0.1139 -0.0657  0.0812
  879YOPE   C1B12027  15.421  11.364   6.070  0.4552  0.1142  0.3210
  879YOPE   C2B12028  15.075  11.181   5.827  0.0941  0.3858  0.2575
  879YOPE   D3B12029  14.727  10.905   5.992  0.2254 -0.1931  0.3438
  879YOPE   C4B12030  14.467  11.001   6.244 -0.4303 -0.1337 -0.3522
  880YOPE   NH312031  10.676   1.289   5.472  0.2669 -0.5204  0.1752
  880YOPE   PO412032  10.897   1.164   5.861  0.0084 -0.1519  0.1312
  880YOPE   GL112033  10.748   1.079   6.223 -0.1146  0.1377 -0.2927
  880YOPE   GL212034  10.678   1.310   6.332  0.2129 -0.1846  0.2121
  880YOPE   C1A12035  10.829   0.732   6.491 -0.3370 -0.0077 -0.0278
  880YOPE   D2A12036  10.676   0.450   6.777  0.1609 -0.1092 -0.0608
  880YOPE   C3A12037  10.575  -0.000   6.770 -0.0033  0.1040  0.2984
  880YOPE   C4A12038  10.331  -0.159   7.090  0.0970 -0.1199 -0.1236
  880YOPE   C1B12039  10.708   1.340   6.703  0.0897  0.1159 -0.2114
  880YOPE   C2B12040  10.662   1.297   7.140  0.1138 -0.0401 -0.1635
  880YOPE   D3B12041  10.478   1.196   7.582 -0.0355 -0.1073 -0.0524
  880YOPE   C4B12042  10.676   1.352   8.037  0.0398  0.0050 -0.2670
  881YOPE   NH312043   8.639   4.424   5.880 -0.1745  0.1756  0.2054
  881YOPE   PO412044   8.552   3.958   5.995 -0.0808  0.0251  0.0165
  881YOPE   GL112045   8.616   4.220   6.391  0.0438  0.1931  0.2590
  881YOPE   GL212046   8.976   4.388   6.350 -0.1357 -0.1314 -0.1387
  881YOPE   C1A12047   8.663   4.638   6.648  0.0272  0.0535 -0.1277
  881YOPE   D2A12048   8.413   4.944   6.672 -0.2251  0.4440 -0.1855
  881YOPE   C3A12049   8.179   5.118   7.079 -0.0936 -0.0970 -0.2444
  881YOPE   C4A12050   8.140   5.284   7.435 -0.3371  0.1092 -0.0304
  881YOPE   C1B12051   9.176   4.671   6.587 -0.3256 -0.1647 -0.3973
  881YOPE   C2B12052   9.060   4.730   7.055  0.0615  0.2198 -0.0385
  881YOPE   D3B12053   8.928   4.778   7.458  0.1047  0.2513 -0.1218
  881YOPE   C4B12054   8.933   5.090   7.775 -0.0151 -0.0706 -0.0152
  882YOPE   NH312055   4.391   8.649   5.182  0.0155 -0.1317 -0.2632
  882YOPE   PO412056   4.359   8.221   5.422  0.1739  0.0968 -0.1508
  882YOPE   GL112057   4.384   8.111   5.845 -0.2627  0.4716 -0.2138
  882YOPE   GL212058   4.194   8.337   5.990 -0.2390  0.3613 -0.1670
  882YOPE   C1A12059   4.645   7.887   6.181  0.1063  0.2684 -0.3374
  882YOPE   D2A12060   4.890   7.581   6.477  0.2845 -0.0796 -0.1623
  882YOPE   C3A12061   4.925   7.627   6.969 -0.0170  0.2612  0.0430
  882YOPE   C4A12062   4.839   7.784   7.376  0.3336  0.0384  0.3237
  882YOPE   C1B12063   4.236   8.238   6.356 -0.1641  0.1016 -0.0801
  882YOPE   C2B12064   4.233   8.246   6.772  0.1997  0.2336 -0.0153
  882YOPE   D3B12065   4.291   8.048   7.227 -0.2365 -0.2985  0.1894
  882YOPE   C4B12066   4.432   7.775   7.624  0.2736 -0.0770  0.1569
  883YOPE   NH312067   3.223   1.751   5.699 -0.0495 -0.1404 -0.0935
  883YOPE   PO412068   3.401   2.067   5.631  0.0437  0.1509  0.2140
  883YOPE   GL112069   3.642   1.991   6.006  0.2104 -0.3580  0.1562
  883YOPE   GL212070   3.349   1.907   6.224  0.1860 -0.1784  0.1109
  883YOPE   C1A12071   3.834   1.730   6.392  0.1373 -0.1673 -0.1544
  883YOPE   D2A12072   3.907   1.502   6.710  0.0242  0.0725 -0.2080
  883YOPE   C3A12073   3.980   1.495   7.073  0.1294 -0.4230  0.2602
  883YOPE   C4A12074   4.113   1.063   7.184 -0.2788  0.2968 -0.0080
  883YOPE   C1B12075   3.433   2.026   6.570 -0.0027 -0.0309 -0.1753
  883YOPE   C2B12076   3.314   1.892   6.983 -0.1275 -0.1884  0.2801
  883YOPE   D3B12077   3.274   2.185   7.413 -0.3004  0.1506  0.0928
  883YOPE   C4B12078   3.346   2.303   7.816  0.0417  0.0716  0.1914
  884YOPE   NH312079  12.881  17.023   5.365  0.0655  0.0631 -0.1503
  884YOPE   PO412080  12.540  16.879   5.600 -0.0749  0.0073  0.2766
  884YOPE   GL112081  12.481  16.792   6.054 -0.2328 -0.2023  0.3189
  884YOPE   GL212082  12.349  16.945   6.215  0.1417 -0.2807  0.0537
  884YOPE   C1A12083  12.783  16.506   6.357 -0.1666 -0.1195  0.1325
  884YOPE   D2A12084  13.086  16.224   6.650 -0.0874 -0.0241  0.2440
  884YOPE   C3A12085  13.053  15.798   6.825  0.1507 -0.2503 -0.0102
  884YOPE   C4A12086  13.117  15.656   7.224 -0.1626 -0.3584 -0.0703
  884YOPE   C1B12087  12.289  16.631   6.568  0.0483  0.0417 -0.0640
  884YOPE   C2B12088  12.077  16.488   6.995  0.3261  0.1791  0.3455
  884YOPE   D3B12089  11.924  16.455   7.322 -0.0122  0.0255  0.1409
  884YOPE   C4B12090  11.582  16.301   7.594  0.2223 -0.1641 -0.2984
  885YOPE   NH312091  17.852   8.368   5.665  0.3500  0.0755 -0.2695
  885YOPE   PO412092  18.245   8.533   5.624 -0.1411  0.0113  0.1838
  885YOPE   GL112093  18.260   8.648   6.005  0.3191 -0.2231 -0.1576
  885YOPE   GL212094  18.649   8.464   6.008 -0.1570 -0.1298  0.0460
  885YOPE   C1A12095  18.531   8.866   6.245  0.2610 -0.1625 -0.5824
  885YOPE   D2A12096  18.656   9.094   6.680  0.1530  0.0451 -0.1355
  885YOPE   C3A12097  18.957   9.189   6.901 -0.2813  0.4996 -0.0649
  885YOPE   C4A12098  19.255   9.312   7.268 -0.4816  0.1839 -0.1199
  885YOPE   C1B12099  18.587   8.476   6.477 -0.1168 -0.1550 -0.0007
  885YOPE   C2B12100  18.445   8.270   6.803 -0.5044  0.0914  0.1295
  885YOPE   D3B12101  18.383   8.202   7.155 -0.1165  0.1644 -0.1747
  885YOPE   C4B12102  18.258   8.400   7.431  0.0677 -0.1751  0.1638
  886YOPE   NH312103  16.698  15.177   5.626 -0.0531  0.0090  0.0355
  886YOPE   PO412104  16.386  14.830   5.708 -0.1706 -0.2991  0.1018
  886YOPE   GL112105  16.716  14.698   6.070 -0.1231  0.0537 -0.3256
  886YOPE   GL212106  16.842  15.076   6.094 -0.0960 -0.1804 -0.1805
  886YOPE   C1A12107  16.743  14.543   6.417 -0.2348  0.3539 -0.0518
  886YOPE   D2A12108  16.727  14.128   6.817 -0.2254  0.3473 -0.2082
  886YOPE   C3A12109  16.991  13.948   6.988 -0.2281 -0.1407 -0.2794
  886YOPE   C4A12110  17.201  13.715   7.344 -0.1146  0.1212 -0.0498
  886YOPE   C1B12111  17.042  15.335   6.273  0.0597  0.1909  0.1361
  886YOPE   C2B12112  17.066  15.438   6.729  0.1802 -0.0123 -0.1518
  886YOPE   D3B12113  17.266  15.418   6.978 -0.0071 -0.1950  0.0208
  886YOPE   C4B12114  17.321  15.392   7.463 -0.1202  0.0436  0.3722
  887YOPE   NH312115   5.122  11.618   5.270 -0.0269  0.1866 -0.0802
  887YOPE   PO412116   4.779  11.415   5.459 -0.5778  0.3248 -0.0303
  887YOPE   GL112117   4.545  11.473   5.805 -0.0917  0.1999 -0.0516
  887YOPE   GL212118   4.327  11.766   5.804  0.2299  0.1383  0.0871
  887YOPE   C1A12119   4.297  11.610   6.246  0.2397 -0.1188  0.0215
  887YOPE   D2A12120   4.142  11.802   6.584  0.3352  0.1145  0.0250
  887YOPE   C3A12121   4.076  11.590   6.950  0.0625 -0.1631 -0.0579
  887YOPE   C4A12122   3.801  11.608   7.289  0.2805  0.1683  0.1727
  887YOPE   C1B12123   4.579  12.083   6.090 -0.1672 -0.0962  0.0492
  887YOPE   C2B12124   4.908  12.232   6.423  0.0785 -0.1283 -0.1092
  887YOPE   D3B12125   4.987  12.259   6.910  0.2472 -0.1545  0.0976
  887YOPE   C4B12126   5.196  12.352   7.321  0.0818  0.0523  0.0406
  888YOPE   NH312127  15.502  13.220   5.723  0.0460  0.0155  0.1811
  888YOPE   PO412128  15.682  13.628   5.450  0.1018 -0.0851 -0.4852
  888YOPE   GL112129  15.482  13.688   5.952 -0.1462 -0.2373 -0.2633
  888YOPE   GL212130  15.812  13.649   6.067 -0.3206 -0.3087  0.0348
  888YOPE   C1A12131  15.480  13.374   6.333 -0.0163 -0.1632 -0.0950
  888YOPE   D2A12132  15.617  13.303   6.732  0.2231  0.2934 -0.0235
  888YOPE   C3A12133  15.878  13.563   6.914 -0.1188 -0.2346  0.0801
  888YOPE   C4A12134  16.257  13.387   7.183  0.1988  0.2056  0.0737
  888YOPE   C1B12135  16.069  13.698   6.452 -0.0011 -0.3158 -0.3492
  888YOPE   C2B12136  16.230  13.938   6.918  0.0317  0.3473  0.3056
  888YOPE   D3B12137  16.483  13.961   7.275 -0.1418  0.0892 -0.1319
  888YOPE   C4B12138  16.823  13.957   7.627  0.0836  0.0689  0.2561
  889YOPE   NH312139   1.876   2.484   5.581  0.1029  0.0252  0.0067
  889YOPE   PO412140   1.887   2.025   5.531 -0.2191 -0.2167 -0.1000
  889YOPE   GL112141   1.951   1.994   5.971  0.0525 -0.0770 -0.1309
  889YOPE   GL212142   1.780   2.189   6.104  0.0049 -0.2521 -0.0226
  889YOPE   C1A12143   2.042   1.759   6.325  0.0493 -0.2838 -0.0659
  889YOPE   D2A12144   1.729   1.578   6.704 -0.2636 -0.0603  0.0603
  889YOPE   C3A12145   1.569   1.621   7.096  0.1636  0.1290 -0.0785
  889YOPE   C4A12146   1.737   1.584   7.404  0.0004  0.0401 -0.0509
  889YOPE   C1B12147   1.476   2.128   6.435  0.1230  0.1062  0.3959
  889YOPE   C2B12148   1.449   1.995   6.837  0.1059  0.0569 -0.3510
  889YOPE   D3B12149   1.084   1.746   7.128 -0.1106 -0.0197 -0.0682
  889YOPE   C4B12150   0.803   1.492   7.357 -0.0809  0.1458 -0.1886
  890YOPE   NH312151  18.181   5.903   5.899  0.3189 -0.1761  0.3371
  890YOPE   PO412152  18.285   5.621   6.025 -0.0536  0.1492  0.1326
  890YOPE   GL112153  18.336   5.458   6.395 -0.1097 -0.0124  0.0242
  890YOPE   GL212154  18.025   5.403   6.398 -0.2290 -0.1782  0.2961
  890YOPE   C1A12155  18.337   5.084   6.558 -0.0520  0.2586 -0.0501
  890YOPE   D2A12156  18.511   4.776   6.814  0.1916  0.0121 -0.0909
  890YOPE   C3A12157  18.590   4.503   7.008 -0.2674 -0.0558 -0.1070
  890YOPE   C4A12158  18.637   4.490   7.458  0.0977  0.1333  0.2986
  890YOPE   C1B12159  17.888   5.199   6.775 -0.0062  0.1191 -0.3253
  890YOPE   C2B12160  17.979   5.466   7.215 -0.1132  0.1509  0.1268
  890YOPE   D3B12161  18.310   5.778   7.431  0.0062 -0.2411  0.0082
  890YOPE   C4B12162  18.560   5.762   7.785 -0.2102 -0.0540  0.3327
  891YOPE   NH312163   7.720   5.789   5.795  0.2447  0.0033  0.5068
  891YOPE   PO412164   7.972   6.119   5.830 -0.1002  0.4749  0.0404
  891YOPE   GL112165   8.242   6.268   6.006  0.4372 -0.1447 -0.0387
  891YOPE   GL212166   8.346   6.511   5.798 -0.5000  0.0924  0.0773
  891YOPE   C1A12167   8.202   6.095   6.432  0.2116 -0.1782  0.0897
  891YOPE   D2A12168   8.086   5.790   6.752 -0.1567  0.1257  0.1802
  891YOPE   C3A12169   7.881   5.344   6.705 -0.0500  0.2831 -0.3967
  891YOPE   C4A12170   8.039   5.222   6.311  0.1711 -0.4651 -0.3230
  891YOPE   C1B12171   8.383   6.715   6.198  0.1311  0.1254 -0.3129
  891YOPE   C2B12172   8.575   6.904   6.569 -0.0537 -0.0566  0.0608
  891YOPE   D3B12173   8.576   7.192   6.949 -0.1170 -0.1513  0.0590
  891YOPE   C4B12174   8.256   7.174   7.401 -0.1052 -0.0205  0.0563
  892YOPE   NH312175  12.315  14.401   5.217 -0.0113  0.0685 -0.0046
  892YOPE   PO412176  11.891  14.454   4.999 -0.1220  0.0590 -0.2670
  892YOPE   GL112177  11.849  14.322   5.402  0.2655 -0.1292 -0.0657
  892YOPE   GL212178  11.884  14.603   5.707  0.0648 -0.0804 -0.0472
  892YOPE   C1A12179  11.935  14.070   5.834 -0.1212  0.0783  0.2784
  892YOPE   D2A12180  12.276  14.113   6.133 -0.0570 -0.2572 -0.0085
  892YOPE   C3A12181  12.649  13.957   6.078  0.1081 -0.0220  0.0925
  892YOPE   C4A12182  13.045  13.983   6.159  0.0632 -0.0034 -0.0096
  892YOPE   C1B12183  11.757  14.468   6.125 -0.0822 -0.4059 -0.2341
  892YOPE   C2B12184  11.656  14.562   6.544 -0.0907  0.0375 -0.0650
  892YOPE   D3B12185  11.734  14.463   6.925 -0.2939  0.0005 -0.0684
  892YOPE   C4B12186  11.996  14.186   7.103 -0.3958 -0.1142  0.1019
  893YOPE   NH312187   4.207  15.166   5.942  0.0330 -0.3009  0.0511
  893YOPE   PO412188   3.970  15.454   5.919  0.1113  0.3517  0.0684
  893YOPE   GL112189   3.727  15.198   6.213 -0.2331  0.0179 -0.2338
  893YOPE   GL212190   3.657  14.890   6.056  0.0359 -0.1608 -0.0100
  893YOPE   C1A12191   3.524  15.192   6.574  0.2734 -0.0370  0.1350
  893YOPE   D2A12192   3.331  15.169   6.843 -0.1538  0.1048  0.1628
  893YOPE   C3A12193   3.400  15.100   7.273  0.0136  0.0319  0.0931
  893YOPE   C4A12194   3.785  14.928   7.352  0.1273  0.0480 -0.0605
  893YOPE   C1B12195   3.623  14.731   6.484  0.1617  0.0054 -0.0085
  893YOPE   C2B12196   3.709  14.830   6.897  0.1496  0.3148  0.0949
  893YOPE   D3B12197   3.988  15.225   6.990 -0.4267 -0.0299  0.0193
  893YOPE   C4B12198   4.008  15.446   7.425  0.3434 -0.0252 -0.0925
  894YOPE   NH312199   1.748  14.634   5.429 -0.0399 -0.0319  0.2435
  894YOPE   PO412200   1.333  14.864   5.473  0.0620  0.1554 -0.0470
  894YOPE   GL112201   1.123  14.765   5.825  0.2658  0.0156 -0.0225
  894YOPE   GL212202   0.859  14.927   5.850  0.0001 -0.2558 -0.1424
  894YOPE   C1A12203   1.153  14.454   6.062  0.0609 -0.0993 -0.0973
  894YOPE   D2A12204   1.200  13.994   6.112  0.1148 -0.4190  0.0397
  894YOPE   C3A12205   1.041  13.910   6.425  0.0766  0.2887  0.1362
  894YOPE   C4A12206   1.013  13.705   6.806  0.1476  0.2312 -0.0500
  894YOPE   C1B12207   0.749  14.725   6.161  0.3084 -0.0854  0.0553
  894YOPE   C2B12208   0.401  14.709   6.386  0.5062  0.1856  0.2374
  894YOPE   D3B12209   0.090  14.579   6.711  0.4120  0.0483 -0.0393
  894YOPE   C4B12210   0.284  14.506   7.147  0.2154  0.4050 -0.3135
  895YOPE   NH312211   0.378   3.808   5.520 -0.0809 -0.1727  0.1661
  895YOPE   PO412212   0.742   3.515   5.618 -0.3569  0.0735 -0.0743
  895YOPE   GL112213   0.840   3.562   5.931  0.5041  0.0810  0.0955
  895YOPE   GL212214   0.922   3.294   6.092  0.0569 -0.0410  0.4267
  895YOPE   C1A12215   0.762   3.659   6.381  0.0229 -0.0292 -0.2684
  895YOPE   D2A12216   0.567   3.587   6.814  0.5991 -0.1391  0.1055
  895YOPE   C3A12217   0.543   3.608   7.267  0.1154 -0.2939 -0.0112
  895YOPE   C4A12218   0.779   3.365   7.565 -0.2302 -0.0786 -0.1019
  895YOPE   C1B12219   0.955   3.215   6.492 -0.0138  0.3940  0.3672
  895YOPE   C2B12220   0.935   2.997   6.887  0.0125 -0.2329  0.3610
  895YOPE   D3B12221   0.711   2.985   7.232 -0.1643  0.3408 -0.1312
  895YOPE   C4B12222   0.604   2.721   7.579 -0.0514 -0.1289  0.1895
  896YOPE   NH312223  11.875   7.167   5.429 -0.1511  0.1063  0.1340
  896YOPE   PO412224  11.587   6.846   5.347  0.0517  0.3621  0.2632
  896YOPE   GL112225  11.692   6.863   5.748  0.3143  0.2954 -0.1041
  896YOPE   GL212226  11.659   7.094   5.875 -0.2874  0.2120 -0.1066
  896YOPE   C1A12227  11.874   6.706   6.041  0.2492 -0.2150 -0.3124
  896YOPE   D2A12228  12.040   6.930   6.398 -0.1569 -0.1927 -0.1350
  896YOPE   C3A12229  11.893   7.138   6.817  0.1154 -0.0692 -0.0846
  896YOPE   C4A12230  12.028   7.035   7.359 -0.3485  0.0319  0.2941
  896YOPE   C1B12231  11.516   7.165   6.231  0.4159  0.2901 -0.1948
  896YOPE   C2B12232  11.367   7.212   6.575 -0.0151  0.0718 -0.0227
  896YOPE   D3B12233  11.301   6.976   6.942 -0.2064 -0.2747 -0.2497
  896YOPE   C4B12234  11.583   7.079   7.289  0.2234 -0.1794 -0.3573
  897YOPE   NH312235   7.847   8.236   5.321  0.0399 -0.0407  0.1198
  897YOPE   PO412236   7.615   8.141   5.578  0.0523 -0.1321  0.0890
  897YOPE   GL112237   7.720   7.921   5.932 -0.1837  0.0980  0.0051
  897YOPE   GL212238   7.876   7.675   5.978  0.0388 -0.1164  0.0893
  897YOPE   C1A12239   7.730   7.983   6.404  0.1003  0.2230 -0.2286
  897YOPE   D2A12240   7.970   7.946   6.790 -0.1165  0.0574  0.1111
  897YOPE   C3A12241   7.827   8.191   7.158  0.0181 -0.1117  0.0307
  897YOPE   C4A12242   7.393   8.344   7.242  0.0878 -0.0216  0.3893
  897YOPE   C1B12243   8.060   7.564   6.365  0.0411  0.1135  0.0804
  897YOPE   C2B12244   8.198   7.498   6.852  0.3572 -0.0302 -0.1250
  897YOPE   D3B12245   7.939   7.660   7.218  0.1594  0.0063  0.2940
  897YOPE   C4B12246   8.039   7.803   7.568  0.0870  0.1947  0.4297
  898YOPE   NH312247  15.938  14.999   5.748 -0.0042 -0.1560 -0.0275
  898YOPE   PO412248  15.691  14.910   5.432  0.0371 -0.1128  0.1786
  898YOPE   GL112249  15.474  14.857   5.931  0.3671 -0.1567 -0.1940
  898YOPE   GL212250  15.688  14.682   6.080 -0.1279 -0.1381  0.2767
  898YOPE   C1A12251  15.190  14.758   6.226  0.0598 -0.2194  0.1660
  898YOPE   D2A12252  15.032  14.402   6.511  0.1590  0.1656 -0.0551
  898YOPE   C3A12253  14.728  14.319   6.888  0.1132 -0.2695  0.3847
  898YOPE   C4A12254  14.611  14.157   7.256  0.0877 -0.3244  0.1457
  898YOPE   C1B12255  15.485  14.959   6.513 -0.1092  0.0854 -0.0257
  898YOPE   C2B12256  15.693  14.853   6.891 -0.0902  0.0206 -0.0770
  898YOPE   D3B12257  15.836  15.076   7.104 -0.0034 -0.0964 -0.1636
  898YOPE   C4B12258  16.010  15.231   7.347 -0.2580  0.0314  0.1265
  899YOPE   NH312259  14.621  14.777   5.076  0.1598 -0.0402 -0.4323
  899YOPE   PO412260  14.786  14.691   5.470 -0.1137 -0.1106 -0.0243
  899YOPE   GL112261  14.775  14.712   5.875 -0.2346 -0.2461  0.0358
  899YOPE   GL212262  14.886  15.089   6.003  0.1122  0.0737  0.1976
  899YOPE   C1A12263  14.674  14.573   6.292 -0.2204  0.1975  0.1117
  899YOPE   D2A12264  14.634  14.133   6.396 -0.4451  0.0189 -0.1921
  899YOPE   C3A12265  14.842  13.876   6.776 -0.0244  0.2057  0.0512
  899YOPE   C4A12266  15.123  14.113   7.066 -0.2365  0.2515 -0.2741
  899YOPE   C1B12267  14.906  15.056   6.485 -0.1182  0.0628 -0.1753
  899YOPE   C2B12268  14.777  14.830   6.853 -0.1818 -0.0664 -0.2852
  899YOPE   D3B12269  14.864  14.625   7.293  0.1487  0.0845  0.0815
  899YOPE   C4B12270  14.876  14.232   7.687 -0.1652 -0.0933 -0.2132
  900YOPE   NH312271  10.817   2.816   5.779 -0.2948  0.2110  0.0794
  900YOPE   PO412272  11.070   3.093   5.930 -0.0582 -0.1150 -0.0201
  900YOPE   GL112273  11.065   3.196   6.260 -0.2257 -0.2050 -0.2006
  900YOPE   GL212274  11.414   3.330   6.367 -0.4728 -0.0934 -0.1507
  900YOPE   C1A12275  11.131   3.193   6.750 -0.0836 -0.2665  0.1620
  900YOPE   D2A12276  10.985   3.157   7.175  0.1205 -0.1198  0.0566
  900YOPE   C3A12277  10.855   2.987   7.490 -0.0642 -0.0639  0.1310
  900YOPE   C4A12278  10.712   3.106   7.930  0.0805  0.0215 -0.1962
  900YOPE   C1B12279  11.622   3.245   6.755  0.1052 -0.1140  0.0021
  900YOPE   C2B12280  11.443   3.241   7.184 -0.2490 -0.2206  0.1443
  900YOPE   D3B12281  11.353   3.379   7.539 -0.2775 -0.1936  0.4661
  900YOPE   C4B12282  11.093   3.459   7.908  0.0297 -0.2070 -0.2119
  901YOPE   NH312283   4.486  16.480   6.284 -0.1989 -0.0107  0.2534
  901YOPE   PO412284   4.954  16.690   6.145  0.0108 -0.0887 -0.2221
  901YOPE   GL112285   4.611  16.993   6.386 -0.2441  0.0850 -0.0577
  901YOPE   GL212286   4.345  16.840   6.552  0.0211 -0.1183 -0.1494
  901YOPE   C1A12287   4.704  17.164   6.764 -0.0027  0.0875  0.3325
  901YOPE   D2A12288   4.718  17.061   7.267 -0.1265 -0.2427  0.0058
  901YOPE   C3A12289   4.733  16.846   7.671 -0.0504 -0.1686  0.1763
  901YOPE   C4A12290   4.706  16.558   8.077 -0.2143  0.1638  0.1733
  901YOPE   C1B12291   4.391  16.795   7.024  0.2758 -0.0053  0.0321
  901YOPE   C2B12292   4.292  16.695   7.426  0.3233  0.4612  0.0465
  901YOPE   D3B12293   3.895  16.471   7.635 -0.1797 -0.2695 -0.1671
  901YOPE   C4B12294   3.741  16.286   8.084 -0.0936 -0.0997  0.0703
  902YOPE   NH312295  11.539  10.652   5.599  0.4482  0.0425 -0.3692
  902YOPE   PO412296  11.209  10.896   5.417  0.2385  0.1561 -0.0130
  902YOPE   GL112297  10.936  11.148   5.683  0.0421  0.2334  0.1281
  902YOPE   GL212298  10.659  11.019   5.716 -0.3307 -0.1820  0.1846
  902YOPE   C1A12299  11.024  11.145   6.113 -0.1094  0.1112 -0.1064
  902YOPE   D2A12300  10.864  11.162   6.549 -0.0572 -0.0351  0.1344
  902YOPE   C3A12301  11.031  11.034   6.923 -0.1563  0.0221  0.2409
  902YOPE   C4A12302  11.224  11.103   7.264 -0.1701  0.0616  0.2131
  902YOPE   C1B12303  10.460  11.378   5.993  0.0936  0.1482  0.4100
  902YOPE   C2B12304  10.379  11.482   6.358 -0.2695  0.1902 -0.1618
  902YOPE   D3B12305  10.078  11.310   6.709  0.0942 -0.2850  0.2007
  902YOPE   C4B12306  10.020  11.115   7.022 -0.0654  0.1107 -0.0151
  903YOPE   NH312307  12.068  15.618   5.581  0.1093 -0.1001  0.2396
  903YOPE   PO412308  12.233  16.033   5.481  0.1701 -0.0285  0.2914
  903YOPE   GL112309  12.351  15.833   5.928 -0.2364 -0.0502 -0.1935
  903YOPE   GL212310  12.565  16.150   6.166 -0.0453  0.6336  0.1743
  903YOPE   C1A12311  12.251  15.749   6.424  0.0593 -0.0773  0.1177
  903YOPE   D2A12312  12.473  15.681   6.822  0.1387  0.0857  0.1030
  903YOPE   C3A12313  12.541  15.960   7.139 -0.2569  0.2250  0.3474
  903YOPE   C4A12314  12.784  16.037   7.443 -0.3190  0.0362 -0.3236
  903YOPE   C1B12315  12.542  16.200   6.623  0.1432 -0.2988  0.2633
  903YOPE   C2B12316  12.592  16.456   6.887 -0.1073 -0.1575  0.0706
  903YOPE   D3B12317  12.886  16.544   7.381 -0.0932  0.0648  0.2464
  903YOPE   C4B12318  12.856  16.438   7.778 -0.3022 -0.0061  0.0962
  904YOPE   NH312319  15.537  14.415   5.203  0.0889  0.1860 -0.1157
  904YOPE   PO412320  15.216  14.539   5.639 -0.0985  0.2154 -0.1165
  904YOPE   GL112321  15.379  14.297   6.071 -0.0882  0.0418 -0.1405
  904YOPE   GL212322  15.651  14.094   6.226  0.3492 -0.0105 -0.1386
  904YOPE   C1A12323  15.541  14.432   6.521  0.2334 -0.2466  0.0321
  904YOPE   D2A12324  15.632  14.348   6.817  0.0222  0.0049 -0.1275
  904YOPE   C3A12325  15.455  14.534   7.192 -0.2475  0.1054  0.0511
  904YOPE   C4A12326  15.534  14.810   7.483  0.0088 -0.2002 -0.2136
  904YOPE   C1B12327  16.033  14.216   6.476  0.1536 -0.2019  0.1155
  904YOPE   C2B12328  16.421  14.073   6.483 -0.1860 -0.3674 -0.0524
  904YOPE   D3B12329  16.845  13.828   6.496 -0.0514  0.1711  0.0214
  904YOPE   C4B12330  16.961  13.407   6.506  0.1049  0.2271  0.3544
  905YOPE   NH312331   1.083  13.691   5.628 -0.1311  0.0676 -0.1529
  905YOPE   PO412332   0.810  13.846   5.778  0.1362 -0.2739 -0.2958
  905YOPE   GL112333   0.876  13.541   6.083  0.1602 -0.0861  0.2674
  905YOPE   GL212334   1.147  13.410   6.211  0.0393 -0.2817  0.3320
  905YOPE   C1A12335   0.657  13.447   6.490  0.1582 -0.0067 -0.0146
  905YOPE   D2A12336   0.725  13.264   6.893  0.0771  0.1473 -0.0590
  905YOPE   C3A12337   0.273  13.143   7.166  0.0466 -0.0012  0.2815
  905YOPE   C4A12338  -0.031  13.215   7.503  0.2468 -0.0489 -0.2185
  905YOPE   C1B12339   1.466  13.666   6.549 -0.0487  0.1652  0.0060
  905YOPE   C2B12340   1.441  13.889   6.823 -0.2374 -0.2374 -0.0022
  905YOPE   D3B12341   1.435  13.918   7.341 -0.0584  0.0438  0.2567
  905YOPE   C4B12342   1.694  13.771   7.712 -0.3224  0.1585 -0.0902
  906YOPE   NH312343  17.593   6.267   5.492 -0.5126 -0.2135  0.1102
  906YOPE   PO412344  17.735   5.874   5.740 -0.2722 -0.0354  0.4115
  906YOPE   GL112345  17.669   5.803   6.189 -0.0105  0.3684  0.0270
  906YOPE   GL212346  17.538   5.443   6.350 -0.0309  0.2347  0.1268
  906YOPE   C1A12347  17.698   5.833   6.672  0.0775 -0.1062  0.3108
  906YOPE   D2A12348  17.584   5.762   7.088 -0.1685 -0.0320 -0.0628
  906YOPE   C3A12349  17.410   5.924   7.514 -0.0424 -0.0412  0.0529
  906YOPE   C4A12350  17.228   6.235   7.818 -0.0284 -0.1330 -0.1882
  906YOPE   C1B12351  17.233   5.478   6.686  0.1870 -0.1263 -0.0149
  906YOPE   C2B12352  17.033   5.450   7.122 -0.3306  0.1937  0.5602
  906YOPE   D3B12353  16.815   5.220   7.424  0.1234  0.0529 -0.0665
  906YOPE   C4B12354  16.713   4.855   7.655  0.5528  0.0364 -0.1867
  907YOPE   NH312355   6.416   5.807   5.550 -0.2536 -0.2073  0.0235
  907YOPE   PO412356   6.310   5.410   5.346 -0.0419 -0.0292 -0.0712
  907YOPE   GL112357   6.096   5.354   5.691 -0.1061  0.0170 -0.0501
  907YOPE   GL212358   6.240   5.476   5.998  0.0785  0.3245 -0.0800
  907YOPE   C1A12359   5.807   4.968   5.859 -0.0487 -0.3860 -0.0548
  907YOPE   D2A12360   5.493   4.765   5.962  0.4637 -0.2853  0.2041
  907YOPE   C3A12361   5.113   4.810   5.936  0.0039  0.0523 -0.0514
  907YOPE   C4A12362   4.811   4.997   6.067 -0.1425  0.5239 -0.2124
  907YOPE   C1B12363   6.458   5.743   6.186  0.0761  0.0989  0.1013
  907YOPE   C2B12364   6.695   6.003   6.418 -0.2162  0.1570 -0.1702
  907YOPE   D3B12365   6.647   6.185   6.839 -0.2142  0.1628  0.1585
  907YOPE   C4B12366   6.367   6.417   7.067  0.1455 -0.1263 -0.0055
  908YOPE   NH312367   1.840   3.874   5.606 -0.2334 -0.0003 -0.1902
  908YOPE   PO412368   1.431   3.745   5.358  0.1713  0.1863  0.2773
  908YOPE   GL112369   1.363   3.807   5.772 -0.0155 -0.2252  0.0869
  908YOPE   GL212370   1.586   3.582   5.945 -0.1449  0.1602 -0.1433
  908YOPE   C1A12371   1.197   3.780   6.168 -0.0797 -0.0694  0.0322
  908YOPE   D2A12372   1.212   3.745   6.586  0.0364 -0.1126 -0.1829
  908YOPE   C3A12373   1.109   3.918   7.023  0.1087 -0.1672 -0.1676
  908YOPE   C4A12374   1.033   3.980   7.516 -0.0927 -0.1784 -0.1073
  908YOPE   C1B12375   1.727   3.798   6.361  0.2975  0.3654 -0.1126
  908YOPE   C2B12376   1.726   3.844   6.758 -0.5122  0.1240  0.0038
  908YOPE   D3B12377   1.733   3.943   7.219 -0.1082 -0.0577  0.1542
  908YOPE   C4B12378   1.453   4.183   7.521  0.0064  0.1845 -0.0620
  909YOPE   NH312379   9.821   1.311   5.722  0.2579  0.1153  0.0070
  909YOPE   PO412380   9.920   0.893   5.916 -0.1717 -0.1938 -0.0909
  909YOPE   GL112381   9.920   1.075   6.261  0.0650  0.1220  0.1935
  909YOPE   GL212382   9.542   0.965   6.290 -0.2635  0.0723  0.2872
  909YOPE   C1A12383   9.698   1.091   6.762  0.0575  0.1805 -0.1577
  909YOPE   D2A12384   9.582   1.078   7.197  0.1007 -0.2637  0.0766
  909YOPE   C3A12385   9.777   1.481   7.429  0.4924 -0.0839  0.0927
  909YOPE   C4A12386   9.699   1.832   7.745  0.0410 -0.0818 -0.0275
  909YOPE   C1B12387   9.253   1.246   6.572 -0.1931  0.0528  0.0572
  909YOPE   C2B12388   9.390   1.469   6.941 -0.1295 -0.0002 -0.0989
  909YOPE   D3B12389   9.255   1.475   7.409 -0.0431  0.0214  0.2319
  909YOPE   C4B12390   9.375   1.221   7.646 -0.2067 -0.0165  0.0508
  910YOPE   NH312391  10.013  10.660   5.256  0.2249  0.2644 -0.2881
  910YOPE   PO412392  10.397  10.635   5.366 -0.1474  0.3379 -0.1164
  910YOPE   GL112393  10.395  10.483   5.810 -0.3263 -0.1031  0.1259
  910YOPE   GL212394  10.104  10.635   5.954 -0.2136  0.0225  0.0153
  910YOPE   C1A12395  10.549  10.599   6.143 -0.0472 -0.1200 -0.2073
  910YOPE   D2A12396  10.894  10.669   6.423  0.0764  0.0901  0.2672
  910YOPE   C3A12397  10.906  10.434   6.846  0.0106 -0.0736 -0.2145
  910YOPE   C4A12398  10.758  10.657   7.265  0.0243  0.2259  0.4301
  910YOPE   C1B12399   9.985  10.527   6.350  0.0489  0.0520 -0.2614
  910YOPE   C2B12400   9.832  10.655   6.774 -0.1200  0.3723  0.1768
  910YOPE   D3B12401   9.763  10.720   7.202  0.1898 -0.3406  0.1501
  910YOPE   C4B12402   9.572  10.500   7.559  0.2815  0.0533 -0.5003
  911YOPE   NH312403  10.197   9.993   5.588 -0.3362 -0.0841 -0.1979
  911YOPE   PO412404   9.860  10.317   5.598  0.2312  0.1300 -0.2327
  911YOPE   GL112405   9.920  10.120   6.040 -0.0804 -0.1048  0.1149
  911YOPE   GL212406   9.797   9.772   6.015  0.0693  0.0975 -0.0605
  911YOPE   C1A12407   9.876  10.046   6.532 -0.2816 -0.0368 -0.1399
  911YOPE   D2A12408   9.997   9.966   7.005 -0.1363 -0.0713  0.0656
  911YOPE   C3A12409   9.985  10.264   7.189  0.3087 -0.2104  0.1675
  911YOPE   C4A12410  10.024  10.405   7.540  0.0020 -0.2176  0.1254
  911YOPE   C1B12411  10.146   9.646   6.296  0.0375  0.0389 -0.0911
  911YOPE   C2B12412  10.220   9.538   6.670 -0.3396 -0.1323 -0.0388
  911YOPE   D3B12413  10.366   9.451   7.130 -0.0793  0.1811  0.1324
  911YOPE   C4B12414  10.661   9.635   7.450  0.3304  0.1086  0.0522
  912YOPE   NH312415  15.036  10.527   5.214  0.3108 -0.2404  0.0241
  912YOPE   PO412416  14.927  10.088   5.200 -0.0996  0.0413 -0.1453
  912YOPE   GL112417  15.047  10.156   5.620 -0.1470  0.0852  0.1545
  912YOPE   GL212418  15.242  10.153   5.705  0.2593  0.1397  0.0023
  912YOPE   C1A12419  14.914  10.194   6.056 -0.0163 -0.3176 -0.1689
  912YOPE   D2A12420  15.016  10.387   6.377  0.1544  0.0111  0.2234
  912YOPE   C3A12421  14.735  10.719   6.594 -0.1018  0.0815  0.1159
  912YOPE   C4A12422  14.504  10.902   6.923  0.2534  0.0265  0.2380
  912YOPE   C1B12423  15.443   9.857   6.040 -0.1891 -0.0431 -0.3110
  912YOPE   C2B12424  15.392   9.901   6.449  0.1959  0.1010  0.3163
  912YOPE   D3B12425  15.212  10.047   6.826 -0.2068  0.0490  0.1607
  912YOPE   C4B12426  15.370  10.298   7.247 -0.2852  0.1403 -0.1631
  913YOPE   NH312427   1.554   9.985   5.610  0.2154  0.2928 -0.2928
  913YOPE   PO412428   1.529  10.422   5.655  0.1050 -0.2377 -0.0659
  913YOPE   GL112429   1.403  10.260   6.077 -0.0914  0.3199 -0.2033
  913YOPE   GL212430   1.063  10.421   6.183  0.1423 -0.2613  0.0197
  913YOPE   C1A12431   1.380  10.082   6.444  0.1394  0.1120  0.3400
  913YOPE   D2A12432   1.540   9.876   6.807 -0.2660  0.0872  0.1602
  913YOPE   C3A12433   1.403   9.608   7.120 -0.1484 -0.2104 -0.1897
  913YOPE   C4A12434   1.304   9.192   7.361  0.0199  0.0980  0.3144
  913YOPE   C1B12435   1.094  10.426   6.581  0.0233 -0.0382  0.1402
  913YOPE   C2B12436   1.201  10.729   6.973 -0.1520 -0.1528  0.1211
  913YOPE   D3B12437   0.787  10.887   7.242  0.0615 -0.2996 -0.3142
  913YOPE   C4B12438   0.930  11.079   7.609  0.3183 -0.1530  0.0211
  914YOPE   NH312439  10.876   2.231   5.656 -0.0378  0.1590  0.1417
  914YOPE   PO412440  10.456   2.446   5.748  0.1031  0.0652 -0.0981
  914YOPE   GL112441  10.347   2.452   6.142  0.2384  0.2514 -0.1977
  914YOPE   GL212442  10.072   2.647   6.266  0.1573  0.0188  0.0245
  914YOPE   C1A12443  10.438   2.253   6.512 -0.0735  0.0415  0.0266
  914YOPE   D2A12444  10.780   1.865   6.506 -0.1557 -0.3094 -0.0916
  914YOPE   C3A12445  11.087   1.964   6.883  0.1432  0.2851 -0.1468
  914YOPE   C4A12446  11.017   2.110   7.260  0.1195  0.0246 -0.2295
  914YOPE   C1B12447  10.227   2.754   6.716  0.0579  0.0008 -0.2096
  914YOPE   C2B12448  10.006   2.678   7.082  0.1371 -0.0697 -0.2389
  914YOPE   D3B12449  10.010   2.743   7.536  0.0250 -0.1303 -0.0131
  914YOPE   C4B12450  10.307   2.800   7.901 -0.0099  0.2425  0.0127
  915YOPE   NH312451   2.973   5.050   5.507  0.3221 -0.0136  0.1732
  915YOPE   PO412452   3.002   4.615   5.696  0.3938 -0.2803  0.2127
  915YOPE   GL112453   3.155   4.508   6.096  0.0376  0.0436  0.0875
  915YOPE   GL212454   3.382   4.311   6.186 -0.1505 -0.1532 -0.0059
  915YOPE   C1A12455   3.044   4.486   6.562 -0.2587 -0.1218 -0.0253
  915YOPE   D2A12456   3.134   4.307   7.019 -0.2746 -0.1735 -0.1171
  915YOPE   C3A12457   3.038   4.436   7.351 -0.0237 -0.0216  0.4139
  915YOPE   C4A12458   2.955   4.530   7.732 -0.0845  0.1381 -0.6078
  915YOPE   C1B12459   3.576   4.275   6.490 -0.1129 -0.0968  0.2798
  915YOPE   C2B12460   3.685   4.363   6.946  0.2907  0.2005 -0.1973
  915YOPE   D3B12461   4.062   4.647   7.038 -0.0235 -0.0289  0.0273
  915YOPE   C4B12462   4.445   4.540   6.842 -0.2375 -0.0670  0.1882
  916YOPE   NH312463   7.235   7.972   5.828  0.0557 -0.0937  0.0544
  916YOPE   PO412464   7.073   8.392   5.804  0.0336  0.2659 -0.0855
  916YOPE   GL112465   7.016   8.227   6.225  0.0245  0.0829  0.1158
  916YOPE   GL212466   7.099   7.853   6.258  0.3011  0.1233  0.3393
  916YOPE   C1A12467   6.820   8.518   6.467  0.3808 -0.0645 -0.1552
  916YOPE   D2A12468   6.781   8.749   6.799 -0.1865 -0.0447  0.2015
  916YOPE   C3A12469   6.932   8.565   7.238  0.2720 -0.1906  0.1527
  916YOPE   C4A12470   7.056   8.449   7.635  0.1960 -0.3391  0.1119
  916YOPE   C1B12471   7.293   7.894   6.613 -0.2182 -0.2294 -0.1452
  916YOPE   C2B12472   7.493   7.809   6.985  0.2128 -0.1094  0.1530
  916YOPE   D3B12473   7.530   7.813   7.480 -0.0677 -0.2981  0.4440
  916YOPE   C4B12474   7.625   8.131   7.753  0.1980 -0.2013 -0.2316
  917YOPE   NH312475  10.378   5.916   5.556  0.0595 -0.1081 -0.2515
  917YOPE   PO412476  10.854   6.126   5.524  0.0916 -0.0965  0.2551
  917YOPE   GL112477  11.086   6.353   5.891 -0.0784 -0.1671  0.4057
  917YOPE   GL212478  11.070   6.712   5.814 -0.1055 -0.1559 -0.0433
  917YOPE   C1A12479  11.038   6.378   6.294  0.1579  0.2452  0.2399
  917YOPE   D2A12480  10.951   6.355   6.714 -0.2081 -0.1750 -0.0989
  917YOPE   C3A12481  11.270   6.462   6.943  0.2330 -0.1143 -0.3014
  917YOPE   C4A12482  11.285   6.600   7.379  0.2161 -0.0386 -0.2169
  917YOPE   C1B12483  11.363   6.723   6.051 -0.0107 -0.0930 -0.1441
  917YOPE   C2B12484  11.416   6.726   6.514  0.1275 -0.2547  0.0076
  917YOPE   D3B12485  11.835   6.663   6.738 -0.0658  0.0612  0.2709
  917YOPE   C4B12486  12.275   6.771   6.896  0.2822  0.0357 -0.1239
  918YOPE   NH312487  18.233  15.139   5.611  0.4396 -0.3893  0.2627
  918YOPE   PO412488  18.136  14.822   5.275 -0.0728  0.0908  0.2746
  918YOPE   GL112489  18.208  14.668   5.751  0.0066 -0.4151  0.1352
  918YOPE   GL212490  18.029  14.883   6.052 -0.1104  0.1795  0.1274
  918YOPE   C1A12491  18.371  14.600   6.264  0.0678  0.1360 -0.0220
  918YOPE   D2A12492  18.349  14.712   6.687  0.0568 -0.0307 -0.4506
  918YOPE   C3A12493  18.672  14.459   6.965  0.2154  0.1744  0.0330
  918YOPE   C4A12494  18.858  14.633   7.348 -0.5847 -0.0549 -0.1731
  918YOPE   C1B12495  17.801  14.558   6.384  0.4227  0.1553 -0.1410
  918YOPE   C2B12496  17.588  14.484   6.754  0.0910 -0.1633  0.0087
  918YOPE   D3B12497  17.104  14.486   6.868 -0.0395 -0.1847 -0.0373
  918YOPE   C4B12498  16.829  14.536   7.184  0.4993 -0.0441  0.3761
  919YOPE   NH312499   0.955   9.817   5.381 -0.1375  0.0756 -0.2227
  919YOPE   PO412500   1.055  10.123   5.787  0.2341  0.1127  0.1311
  919YOPE   GL112501   0.659  10.142   5.957 -0.1388  0.0151 -0.0437
  919YOPE   GL212502   0.583  10.459   5.914 -0.2413 -0.2485  0.1407
  919YOPE   C1A12503   0.632  10.189   6.439 -0.1342  0.3679 -0.1177
  919YOPE   D2A12504   0.887   9.867   6.735 -0.0171 -0.1365  0.1918
  919YOPE   C3A12505   0.847   9.733   7.220  0.6016  0.0952  0.0758
  919YOPE   C4A12506   0.723   9.263   7.275  0.0241  0.0937 -0.0178
  919YOPE   C1B12507   0.509  10.631   6.314 -0.0264  0.0359 -0.2493
  919YOPE   C2B12508   0.276  10.728   6.782  0.1457  0.1566 -0.2042
  919YOPE   D3B12509   0.292  10.656   7.293 -0.2162  0.2518  0.0112
  919YOPE   C4B12510   0.545  10.668   7.707 -0.0960  0.3488  0.0079
  920YOPE   NH312511  13.943   5.341   5.395 -0.1144  0.0966  0.1009
  920YOPE   PO412512  14.098   4.984   5.459 -0.2011  0.1883 -0.2325
  920YOPE   GL112513  14.146   4.962   5.818 -0.1689 -0.1035 -0.0008
  920YOPE   GL212514  14.538   4.759   5.779 -0.0436 -0.2063  0.2242
  920YOPE   C1A12515  14.450   4.971   6.259  0.1049  0.4112  0.0430
  920YOPE   D2A12516  14.650   4.906   6.545  0.0534 -0.2987 -0.1187
  920YOPE   C3A12517  14.632   5.023   6.934  0.0548 -0.1262 -0.1545
  920YOPE   C4A12518  14.999   4.976   7.153 -0.1937 -0.1106  0.0161
  920YOPE   C1B12519  14.788   4.586   6.108  0.2133 -0.2840 -0.0981
  920YOPE   C2B12520  15.092   4.665   6.384  0.2192  0.0394  0.1460
  920YOPE   D3B12521  15.442   4.588   6.721  0.2652  0.0144 -0.1653
  920YOPE   C4B12522  15.397   4.721   7.147  0.0166 -0.1755  0.0771
  921YOPE   NH312523   0.722  18.598   5.351 -0.2233  0.2016 -0.0071
  921YOPE   PO412524   0.419  18.295   5.110 -0.0275 -0.3677  0.0573
  921YOPE   GL112525   0.141  18.367   5.414  0.1516  0.1306 -0.3443
  921YOPE   GL212526   0.248  18.362   5.711  0.1762  0.2796  0.0445
  921YOPE   C1A12527  -0.262  18.366   5.668  0.2591 -0.0061 -0.0550
  921YOPE   D2A12528  -0.696  18.131   5.860  0.1593  0.0100 -0.0525
  921YOPE   C3A12529  -0.882  18.073   6.246 -0.1426  0.3739 -0.2421
  921YOPE   C4A12530  -1.128  18.314   6.615  0.1762 -0.0047 -0.3506
  921YOPE   C1B12531   0.254  18.655   5.910 -0.3441 -0.1523  0.1032
  921YOPE   C2B12532   0.150  18.618   6.386  0.5088 -0.4203 -0.2739
  921YOPE   D3B12533  -0.043  18.728   6.746 -0.1485 -0.1714  0.1949
  921YOPE   C4B12534  -0.030  18.831   7.087 -0.1329  0.2766 -0.5160
  922YOPE   NH312535  16.606   8.614   5.739  0.0515 -0.1818 -0.2246
  922YOPE   PO412536  16.475   8.288   5.306  0.0043 -0.4476  0.2689
  922YOPE   GL112537  16.793   8.193   5.599  0.0284  0.2875 -0.2476
  922YOPE   GL212538  16.951   7.867   5.490 -0.0747  0.0786  0.2553
  922YOPE   C1A12539  16.579   7.985   5.973 -0.1877  0.0983 -0.1305
  922YOPE   D2A12540  16.426   7.625   6.114  0.2700  0.3083 -0.2085
  922YOPE   C3A12541  16.772   7.460   6.331 -0.3649  0.1272 -0.2791
  922YOPE   C4A12542  17.193   7.292   6.295 -0.4356 -0.0567 -0.1441
  922YOPE   C1B12543  16.992   7.735   5.964  0.1329 -0.3186 -0.0518
  922YOPE   C2B12544  17.402   7.735   6.274  0.0849  0.0414 -0.0007
  922YOPE   D3B12545  17.730   8.090   6.282 -0.1287 -0.0659 -0.2005
  922YOPE   C4B12546  17.510   8.489   6.349 -0.0360 -0.3642  0.0102
  923YOPE   NH312547   6.408  10.779   5.413  0.0329  0.0913 -0.1505
  923YOPE   PO412548   6.665  11.157   5.349 -0.2473  0.1652  0.1211
  923YOPE   GL112549   6.772  11.128   5.701  0.2317 -0.3183 -0.0817
  923YOPE   GL212550   6.744  11.352   5.829 -0.0616 -0.0367  0.0025
  923YOPE   C1A12551   6.925  11.159   6.242  0.0025  0.2363 -0.0661
  923YOPE   D2A12552   6.833  11.367   6.666  0.1633  0.3227 -0.0666
  923YOPE   C3A12553   6.488  11.343   6.987  0.2937 -0.3487  0.2270
  923YOPE   C4A12554   6.295  11.439   7.259 -0.1530  0.0288  0.2436
  923YOPE   C1B12555   6.695  11.647   6.269  0.1352  0.3655  0.1512
  923YOPE   C2B12556   6.604  11.825   6.617  0.0687  0.1818 -0.0854
  923YOPE   D3B12557   6.475  11.840   7.047  0.0712 -0.0039  0.0911
  923YOPE   C4B12558   6.215  11.915   7.413  0.2495  0.2943  0.1791
  924YOPE   NH312559   5.558   3.147   5.761 -0.2435 -0.1198 -0.2565
  924YOPE   PO412560   5.696   2.784   6.042  0.1475  0.3729  0.2447
  924YOPE   GL112561   6.023   2.771   6.333  0.0612 -0.0704 -0.0116
  924YOPE   GL212562   5.911   3.003   6.447 -0.2246  0.3918 -0.1155
  924YOPE   C1A12563   6.211   2.579   6.643  0.1038 -0.0619  0.0064
  924YOPE   D2A12564   6.487   2.356   6.762 -0.1557 -0.3237  0.0469
  924YOPE   C3A12565   6.714   2.557   7.066 -0.2865  0.2694  0.0044
  924YOPE   C4A12566   6.831   2.489   7.465 -0.1528 -0.0005  0.1108
  924YOPE   C1B12567   5.988   3.062   6.865  0.0625  0.1261 -0.1382
  924YOPE   C2B12568   6.363   2.935   6.986 -0.1493  0.0517  0.0143
  924YOPE   D3B12569   6.685   3.003   7.322  0.2445  0.0563 -0.1670
  924YOPE   C4B12570   7.039   2.911   7.560  0.0069 -0.2409 -0.0032
  925YOPE   NH312571  13.268   9.588   5.580 -0.0908 -0.0192 -0.2640
  925YOPE   PO412572  13.672   9.495   5.662 -0.0249  0.0131 -0.1326
  925YOPE   GL112573  13.576   9.531   6.087  0.0568 -0.1009  0.2739
  925YOPE   GL212574  13.775   9.753   6.193  0.0313  0.1627  0.2539
  925YOPE   C1A12575  13.572   9.474   6.584  0.1598 -0.0945  0.2752
  925YOPE   D2A12576  13.628   9.494   6.974 -0.0811  0.1444  0.1901
  925YOPE   C3A12577  13.970   9.446   7.211 -0.3260 -0.4390  0.1697
  925YOPE   C4A12578  14.453   9.619   7.220  0.1215  0.2984 -0.2300
  925YOPE   C1B12579  13.637   9.981   6.389  0.2755  0.1758 -0.0289
  925YOPE   C2B12580  13.351   9.887   6.737  0.1438  0.0295  0.0520
  925YOPE   D3B12581  13.392   9.889   7.135 -0.0284  0.2752 -0.0566
  925YOPE   C4B12582  13.394   9.658   7.486 -0.2041  0.2346  0.1317
  926YOPE   NH312583  10.475  15.642   5.828 -0.2166 -0.4775  0.2868
  926YOPE   PO412584  10.274  15.998   5.611  0.2572  0.2305  0.0107
  926YOPE   GL112585  10.207  16.287   6.029 -0.2485  0.2082 -0.0845
  926YOPE   GL212586   9.948  16.416   6.108 -0.1014 -0.0265  0.0510
  926YOPE   C1A12587  10.351  16.511   6.359  0.0917  0.1662  0.2600
  926YOPE   D2A12588  10.295  16.283   6.741  0.0372 -0.1987  0.3796
  926YOPE   C3A12589  10.435  16.436   7.149 -0.3448 -0.1410 -0.3919
  926YOPE   C4A12590  10.711  16.747   7.363 -0.1782  0.0510  0.2237
  926YOPE   C1B12591   9.711  16.632   6.517  0.1587 -0.1175  0.2497
  926YOPE   C2B12592   9.810  16.532   6.805 -0.1268  0.1892 -0.3106
  926YOPE   D3B12593  10.163  16.736   6.953  0.2329 -0.0825  0.2756
  926YOPE   C4B12594  10.295  16.993   7.353 -0.0358  0.1540 -0.1264
  927YOPE   NH312595   4.810   8.907   5.573  0.0284  0.1320 -0.0025
  927YOPE   PO412596   4.931   8.511   5.310  0.1411 -0.2199 -0.0491
  927YOPE   GL112597   4.838   8.411   5.784  0.3990  0.2709  0.1402
  927YOPE   GL212598   5.013   8.129   5.821  0.0512 -0.1587 -0.1607
  927YOPE   C1A12599   4.698   8.385   6.196 -0.1215  0.0028 -0.1114
  927YOPE   D2A12600   4.624   8.518   6.568  0.2233  0.2140 -0.0106
  927YOPE   C3A12601   4.647   8.873   6.525  0.0577  0.0886 -0.1476
  927YOPE   C4A12602   4.940   9.194   6.431 -0.2109 -0.2276 -0.2577
  927YOPE   C1B12603   5.055   8.062   6.306 -0.1732  0.0769 -0.1011
  927YOPE   C2B12604   4.897   8.036   6.715 -0.2714 -0.4379 -0.1421
  927YOPE   D3B12605   4.674   8.251   6.999 -0.1546 -0.4110 -0.3295
  927YOPE   C4B12606   4.408   8.563   7.207  0.1875 -0.2625 -0.1219
  928YOPE   NH312607   1.601  11.196   5.036  0.0137 -0.2430  0.0324
  928YOPE   PO412608   1.856  11.370   5.249 -0.2089  0.0335 -0.2848
  928YOPE   GL112609   1.805  11.432   5.782 -0.3997 -0.1765  0.0309
  928YOPE   GL212610   2.161  11.506   5.807  0.0796  0.0253 -0.3118
  928YOPE   C1A12611   1.783  11.627   6.170  0.2460  0.2558 -0.3231
  928YOPE   D2A12612   1.636  11.742   6.602  0.0555  0.0124 -0.0012
  928YOPE   C3A12613   1.731  11.560   6.975  0.0356  0.1176  0.0815
  928YOPE   C4A12614   1.956  11.456   7.377  0.1367  0.1147 -0.2390
  928YOPE   C1B12615   2.236  11.653   6.262 -0.0396  0.2944 -0.0687
  928YOPE   C2B12616   2.194  11.647   6.568  0.1286  0.0361 -0.0072
  928YOPE   D3B12617   2.263  11.616   6.987 -0.1595 -0.0763 -0.1555
  928YOPE   C4B12618   2.472  11.460   7.316  0.0413  0.2138 -0.0209
  929YOPE   NH312619   3.522   0.098   5.835 -0.0093  0.2262  0.2131
  929YOPE   PO412620   3.121   0.302   5.902  0.2720  0.1328  0.1029
  929YOPE   GL112621   3.177   0.083   6.295 -0.0756  0.1795  0.0513
  929YOPE   GL212622   3.039  -0.225   6.466  0.2746 -0.3952  0.2663
  929YOPE   C1A12623   3.393   0.139   6.812  0.0661 -0.4140  0.1490
  929YOPE   D2A12624   3.677   0.137   7.037  0.0908 -0.3089 -0.1982
  929YOPE   C3A12625   3.891  -0.079   7.286  0.1151  0.0306  0.1262
  929YOPE   C4A12626   4.002  -0.152   7.660 -0.1861  0.3753  0.0510
  929YOPE   C1B12627   2.690  -0.046   6.630 -0.0494 -0.3404  0.1080
  929YOPE   C2B12628   2.550   0.372   6.552 -0.1992 -0.0782  0.2677
  929YOPE   D3B12629   2.449   0.745   6.428  0.1461 -0.1090 -0.3821
  929YOPE   C4B12630   2.445   1.160   6.527 -0.0325 -0.1233 -0.0195
  930YOPE   NH312631   9.236  16.133   5.596 -0.1366 -0.1513 -0.0037
  930YOPE   PO412632   8.798  16.093   5.646 -0.0901  0.2572  0.1459
  930YOPE   GL112633   8.490  16.052   5.959 -0.2716  0.0323 -0.0576
  930YOPE   GL212634   8.583  15.728   6.039  0.0381 -0.0039 -0.2969
  930YOPE   C1A12635   8.575  16.155   6.337  0.0823  0.2187 -0.1228
  930YOPE   D2A12636   8.551  16.209   6.683  0.5198 -0.3009  0.3355
  930YOPE   C3A12637   8.527  16.531   6.956  0.0139 -0.0371  0.0020
  930YOPE   C4A12638   8.430  16.577   7.341  0.0419 -0.2394 -0.0190
  930YOPE   C1B12639   8.802  15.750   6.443  0.0098 -0.0428 -0.1906
  930YOPE   C2B12640   9.016  15.932   6.773 -0.1926 -0.3424 -0.2229
  930YOPE   D3B12641   8.801  16.047   7.138 -0.3129  0.1077 -0.0123
  930YOPE   C4B12642   8.798  16.218   7.457  0.2922 -0.1131  0.1732
  931YOPE   NH312643   0.086   0.354   5.319  0.0112 -0.1027 -0.1023
  931YOPE   PO412644  -0.206  -0.024   5.361  0.1485  0.0494 -0.0068
  931YOPE   GL112645  -0.064  -0.080   5.798 -0.1014  0.3354  0.2150
  931YOPE   GL212646   0.234   0.241   5.835  0.1881 -0.1790 -0.0387
  931YOPE   C1A12647  -0.218  -0.375   6.066  0.3974 -0.1295 -0.0123
  931YOPE   D2A12648  -0.515  -0.534   6.459  0.1240  0.1836 -0.0299
  931YOPE   C3A12649  -0.452  -0.526   6.845 -0.0153 -0.2917  0.1158
  931YOPE   C4A12650  -0.488  -0.419   7.254  0.2091  0.0188  0.0392
  931YOPE   C1B12651   0.004   0.072   6.263 -0.2432  0.0474  0.1375
  931YOPE   C2B12652  -0.028   0.183   6.794 -0.4815  0.2671 -0.0882
  931YOPE   D3B12653  -0.135   0.248   7.219  0.1397  0.1518 -0.0670
  931YOPE   C4B12654  -0.359   0.599   7.416 -0.0485  0.1776 -0.0189
  932YOPE   NH312655  18.693   4.457   5.425  0.1904  0.1371  0.1867
  932YOPE   PO412656  19.269   4.464   5.552  0.5391  0.0331 -0.3730
  932YOPE   GL112657  19.541   4.366   5.882 -0.0233 -0.3303  0.2687
  932YOPE   GL212658  19.314   4.582   6.048 -0.2620  0.2753 -0.0311
  932YOPE   C1A12659  19.795   4.305   6.256  0.1374 -0.1218  0.0483
  932YOPE   D2A12660  19.923   4.133   6.593 -0.5211  0.0789 -0.1337
  932YOPE   C3A12661  20.387   4.268   6.813 -0.0195 -0.2640 -0.0631
  932YOPE   C4A12662  20.728   4.504   7.153 -0.0493  0.0440  0.3814
  932YOPE   C1B12663  19.245   4.318   6.348  0.2528 -0.2043 -0.2122
  932YOPE   C2B12664  19.467   4.141   6.583  0.3266  0.0171 -0.0280
  932YOPE   D3B12665  19.613   4.205   7.018 -0.0813 -0.1045 -0.1171
  932YOPE   C4B12666  19.644   4.153   7.503  0.0128  0.3772  0.1877
  933YOPE   NH312667   0.077   8.126   5.116 -0.3767  0.1142  0.1539
  933YOPE   PO412668  -0.023   7.915   5.435  0.0129 -0.4665 -0.0486
  933YOPE   GL112669  -0.299   7.949   5.751  0.1648 -0.1676 -0.2774
  933YOPE   GL212670  -0.392   7.655   5.855  0.0490  0.0332 -0.2676
  933YOPE   C1A12671  -0.221   8.028   6.175 -0.1065  0.1407  0.0912
  933YOPE   D2A12672   0.020   8.155   6.601  0.0209 -0.3521  0.3222
  933YOPE   C3A12673  -0.155   8.441   6.895 -0.2360 -0.0014  0.0591
  933YOPE   C4A12674  -0.243   8.566   7.279  0.1975 -0.1361 -0.0061
  933YOPE   C1B12675   0.038   7.570   6.100 -0.0664  0.1529 -0.2346
  933YOPE   C2B12676   0.085   7.655   6.520  0.0448 -0.1589  0.0282
  933YOPE   D3B12677   0.173   7.420   6.933 -0.1456 -0.3101 -0.1506
  933YOPE   C4B12678  -0.109   7.388   7.230  0.3731  0.1416 -0.3950
  934YOPE   NH312679  17.309   0.612   5.368  0.2007  0.0174  0.1609
  934YOPE   PO412680  16.867   0.589   5.410 -0.2000 -0.1405 -0.0414
  934YOPE   GL112681  17.102   0.439   5.826 -0.1698 -0.0380 -0.1746
  934YOPE   GL212682  17.517   0.490   5.826  0.3027  0.4021 -0.2774
  934YOPE   C1A12683  17.120   0.499   6.234  0.0654 -0.1927 -0.3199
  934YOPE   D2A12684  17.386   0.453   6.561 -0.1332 -0.3074 -0.2478
  934YOPE   C3A12685  17.538   0.506   6.986 -0.0140 -0.2934  0.0834
  934YOPE   C4A12686  17.638   0.521   7.425  0.0278  0.0642  0.3418
  934YOPE   C1B12687  17.686   0.526   6.194 -0.2914 -0.1790  0.2199
  934YOPE   C2B12688  17.829   0.165   6.436 -0.1565 -0.0559  0.2688
  934YOPE   D3B12689  18.083  -0.231   6.449  0.2225 -0.2175 -0.0139
  934YOPE   C4B12690  18.365  -0.392   5.983  0.0728  0.1104  0.0129
  935YOPE   NH312691   3.976  15.965   5.780 -0.1201 -0.1006  0.0667
  935YOPE   PO412692   4.257  16.004   6.098 -0.3240  0.0778  0.1648
  935YOPE   GL112693   4.477  16.043   6.459 -0.1168  0.0234 -0.2506
  935YOPE   GL212694   4.708  16.252   6.629  0.1123 -0.1158 -0.3474
  935YOPE   C1A12695   4.308  16.236   6.880 -0.1897 -0.1210  0.3937
  935YOPE   D2A12696   4.416  16.099   7.307  0.1881  0.0273  0.1238
  935YOPE   C3A12697   4.447  15.578   7.293  0.1302 -0.0163 -0.1287
  935YOPE   C4A12698   4.454  15.345   7.634 -0.0983 -0.0987 -0.1881
  935YOPE   C1B12699   4.711  15.929   6.928 -0.3624 -0.2250  0.0026
  935YOPE   C2B12700   4.864  15.433   7.091  0.1009 -0.2421 -0.0722
  935YOPE   D3B12701   5.134  15.437   7.484 -0.2901  0.0190 -0.0174
  935YOPE   C4B12702   5.542  15.421   7.678  0.1365 -0.1333  0.0895
  936YOPE   NH312703  11.558   4.049   5.926  0.1862 -0.1114 -0.1428
  936YOPE   PO412704  11.300   4.429   5.920  0.2624 -0.4019  0.0083
  936YOPE   GL112705  11.357   4.641   6.256 -0.1464 -0.0956  0.2565
  936YOPE   GL212706  11.640   4.805   6.224 -0.1479  0.2214 -0.1817
  936YOPE   C1A12707  11.601   4.635   6.681 -0.1497  0.0292  0.1663
  936YOPE   D2A12708  11.607   4.733   7.174 -0.1142 -0.1973  0.0753
  936YOPE   C3A12709  11.334   4.762   7.410  0.2264  0.0487 -0.1355
  936YOPE   C4A12710  10.936   4.679   7.342  0.0137  0.1442 -0.0134
  936YOPE   C1B12711  11.804   5.200   6.523 -0.0406 -0.1994 -0.1449
  936YOPE   C2B12712  11.791   5.160   6.987 -0.0749  0.1630 -0.4636
  936YOPE   D3B12713  11.767   5.181   7.480  0.1620 -0.0203  0.2413
  936YOPE   C4B12714  11.606   4.994   7.877  0.1754  0.2056  0.1474
  937YOPE   NH312715   0.085  15.038   5.472  0.1364  0.1531 -0.3888
  937YOPE   PO412716  -0.396  15.274   5.302 -0.0993 -0.3157 -0.0656
  937YOPE   GL112717  -0.319  15.344   5.797  0.0739  0.0839  0.0019
  937YOPE   GL212718  -0.459  15.069   5.999 -0.0294 -0.0245  0.0497
  937YOPE   C1A12719  -0.255  15.460   6.221 -0.4157 -0.1318 -0.2680
  937YOPE   D2A12720  -0.087  15.554   6.666 -0.0877 -0.0298  0.0559
  937YOPE   C3A12721   0.063  15.436   6.999 -0.0649 -0.2963 -0.2541
  937YOPE   C4A12722   0.105  15.124   7.412  0.1722  0.0675 -0.0331
  937YOPE   C1B12723  -0.687  15.116   6.363  0.0826  0.4856  0.1735
  937YOPE   C2B12724  -1.033  15.053   6.582 -0.2353 -0.4164 -0.0309
  937YOPE   D3B12725  -1.089  14.766   6.962  0.2424  0.1408 -0.1309
  937YOPE   C4B12726  -1.107  14.618   7.389  0.0332 -0.0351  0.4639
  938YOPE   NH312727  14.915  16.478   5.668 -0.3256  0.0126 -0.0188
  938YOPE   PO412728  14.514  16.399   5.431 -0.0378 -0.0955 -0.4897
  938YOPE   GL112729  14.544  16.310   5.930  0.1677  0.5989 -0.0739
  938YOPE   GL212730  14.659  16.706   5.993  0.0305 -0.3543  0.0288
  938YOPE   C1A12731  14.525  16.050   6.281 -0.1408 -0.0721  0.1233
  938YOPE   D2A12732  14.429  15.862   6.663 -0.1199 -0.2942 -0.2099
  938YOPE   C3A12733  14.063  15.581   6.876  0.2641 -0.2807  0.1378
  938YOPE   C4A12734  13.687  15.576   7.127 -0.0554  0.3357 -0.0832
  938YOPE   C1B12735  14.866  16.542   6.352  0.3919 -0.0018 -0.2631
  938YOPE   C2B12736  14.963  16.408   6.668 -0.0519  0.0353  0.2474
  938YOPE   D3B12737  14.859  16.031   6.919  0.0057  0.0857 -0.1893
  938YOPE   C4B12738  14.812  16.033   7.415 -0.1070  0.0756 -0.1721
  939YOPE   NH312739   5.403  15.992   5.923 -0.0599  0.0232 -0.2881
  939YOPE   PO412740   5.279  16.426   5.893  0.4569 -0.2059  0.1969
  939YOPE   GL112741   5.449  16.481   6.378  0.2504 -0.0548 -0.1415
  939YOPE   GL212742   5.171  16.432   6.569  0.1884  0.0177  0.0898
  939YOPE   C1A12743   5.561  16.586   6.801 -0.1439  0.3645 -0.2594
  939YOPE   D2A12744   5.592  16.615   7.241 -0.1451  0.0675  0.0720
  939YOPE   C3A12745   5.367  16.473   7.570  0.1595  0.2800  0.1959
  939YOPE   C4A12746   5.106  16.350   7.897 -0.2628 -0.1823  0.1897
  939YOPE   C1B12747   5.241  16.184   6.897  0.0785  0.3362 -0.0185
  939YOPE   C2B12748   5.167  16.027   7.219  0.1197  0.2393  0.0622
  939YOPE   D3B12749   5.311  15.874   7.655 -0.0864 -0.1182 -0.0642
  939YOPE   C4B12750   5.229  15.765   8.068  0.0874  0.2045  0.1621
  940YOPE   NH312751  10.602   1.554   5.901  0.1099 -0.0176  0.2885
  940YOPE   PO412752  10.163   1.674   5.812  0.0558  0.4737  0.1122
  940YOPE   GL112753  10.085   1.594   6.231  0.0513  0.0434  0.0871
  940YOPE   GL212754  10.310   1.724   6.332  0.1196  0.1591 -0.1403
  940YOPE   C1A12755  10.203   1.266   6.608 -0.2033 -0.1554 -0.0156
  940YOPE   D2A12756  10.116   1.327   7.025  0.2367  0.2596 -0.0549
  940YOPE   C3A12757  10.258   1.636   7.310 -0.1391  0.1587 -0.2844
  940YOPE   C4A12758  10.278   1.656   7.725 -0.1954  0.0301  0.0971
  940YOPE   C1B12759  10.348   1.839   6.811 -0.0683  0.1464 -0.1843
  940YOPE   C2B12760  10.641   1.908   7.116 -0.1688 -0.2472 -0.0168
  940YOPE   D3B12761  10.813   1.714   7.510  0.2732  0.0295  0.0758
  940YOPE   C4B12762  11.008   1.230   7.670  0.2194 -0.0578  0.1613
  941YOPE   NH312763  18.107   3.258   5.614 -0.0421 -0.1416 -0.1311
  941YOPE   PO412764  18.365   3.594   5.768 -0.0959  0.3572 -0.2221
  941YOPE   GL112765  18.391   3.355   6.104 -0.2078  0.3983 -0.2938
  941YOPE   GL212766  18.292   3.016   6.063  0.1170 -0.1111 -0.0690
  941YOPE   C1A12767  18.751   3.601   6.340 -0.1366 -0.0751  0.2016
  941YOPE   D2A12768  18.784   3.605   6.703  0.1512 -0.4681  0.1436
  941YOPE   C3A12769  18.567   3.992   6.957 -0.2358 -0.1422  0.0899
  941YOPE   C4A12770  18.659   3.974   7.358 -0.4737  0.1019 -0.0532
  941YOPE   C1B12771  17.938   2.942   6.417  0.0101  0.0704 -0.1871
  941YOPE   C2B12772  17.795   3.174   6.724 -0.0182  0.0238  0.0133
  941YOPE   D3B12773  17.641   3.095   7.100  0.1156  0.1739  0.3152
  941YOPE   C4B12774  17.775   2.923   7.557  0.1672  0.0186 -0.1063
  942POPC   NC312775   6.812  18.415   6.031 -0.0018 -0.1293  0.0791
  942POPC   PO412776   7.177  18.319   6.195  0.1234  0.0382 -0.3626
  942POPC   GL112777   7.124  18.610   6.469  0.2874 -0.0241 -0.0706
  942POPC   GL212778   7.418  18.736   6.523  0.1409  0.0429  0.1145
  942POPC   C1A12779   7.031  18.479   6.944 -0.1185  0.1336  0.0535
  942POPC   D2A12780   6.890  18.100   7.179 -0.0802  0.3720 -0.1719
  942POPC   C3A12781   6.862  18.196   7.544 -0.0598 -0.0890 -0.0259
  942POPC   C4A12782   6.604  18.452   7.818  0.2570  0.2511  0.4308
  942POPC   C1B12783   7.782  18.909   6.796  0.2665  0.1268  0.0234
  942POPC   C2B12784   7.948  18.802   7.138  0.1555 -0.0176 -0.0706
  942POPC   C3B12785   7.663  18.989   7.501  0.0516 -0.0219 -0.0342
  942POPC   C4B12786   7.265  19.120   7.792  0.0666 -0.2355  0.1012
  943POPC   NC312787  10.058   0.712   5.201  0.2140  0.0761 -0.1742
  943POPC   PO412788  10.309   0.518   5.587 -0.0053  0.0208 -0.0693
  943POPC   GL112789  10.193   0.397   6.021  0.2043 -0.0377  0.1304
  943POPC   GL212790   9.951   0.430   6.153  0.1609  0.5374 -0.1552
  943POPC   C1A12791  10.106  -0.016   6.213 -0.1351  0.0751 -0.0324
  943POPC   D2A12792  10.111  -0.132   6.545 -0.2011 -0.2124 -0.2769
  943POPC   C3A12793   9.875  -0.361   6.677  0.0992  0.0724  0.0533
  943POPC   C4A12794   9.877  -0.564   7.092 -0.0085 -0.1751  0.0253
  943POPC   C1B12795   9.785   0.629   6.582 -0.0468  0.4544  0.4265
  943POPC   C2B12796   9.723   0.633   6.942 -0.4418  0.0059 -0.0502
  943POPC   C3B12797   9.642   0.643   7.475  0.0102  0.1719  0.2149
  943POPC   C4B12798   9.560   0.790   7.927  0.0133  0.2067 -0.4171
  944POPC   NC312799   1.270   5.449   5.357 -0.2603 -0.2973  0.1895
  944POPC   PO412800   0.955   5.658   5.569 -0.0178 -0.0076 -0.1591
  944POPC   GL112801   0.790   5.686   5.939  0.0147  0.1693  0.1988
  944POPC   GL212802   0.819   5.988   5.988 -0.2423 -0.1638 -0.1134
  944POPC   C1A12803   0.985   5.580   6.364 -0.1452  0.0296 -0.0441
  944POPC   D2A12804   1.079   5.456   6.768  0.1051 -0.1661 -0.2145
  944POPC   C3A12805   0.963   5.356   7.155  0.1056 -0.0418  0.0192
  944POPC   C4A12806   0.628   5.413   7.516 -0.3708  0.3138 -0.1897
  944POPC   C1B12807   1.122   6.049   6.250 -0.4084  0.2473  0.0086
  944POPC   C2B12808   1.434   6.221   6.587 -0.0319  0.0437  0.0677
  944POPC   C3B12809   1.579   6.325   6.981  0.3105  0.1310 -0.0721
  944POPC   C4B12810   1.902   6.363   7.265 -0.1013 -0.2132 -0.1183
  945POPC   NC312811  15.730   1.987   5.472 -0.2648 -0.1328 -0.2788
  945POPC   PO412812  16.016   1.684   5.380 -0.3499 -0.2991 -0.0580
  945POPC   GL112813  16.159   1.800   5.819  0.3019  0.0374 -0.1821
  945POPC   GL212814  15.924   1.984   5.952 -0.2217 -0.2821 -0.1167
  945POPC   C1A12815  16.376   1.815   6.203  0.1952  0.2494 -0.2598
  945POPC   D2A12816  16.705   1.581   6.304  0.2022 -0.1802 -0.2076
  945POPC   C3A12817  16.905   1.532   6.759  0.1178 -0.1452 -0.1241
  945POPC   C4A12818  17.284   1.414   6.904 -0.1114  0.0049  0.0527
  945POPC   C1B12819  16.023   2.038   6.395  0.0847 -0.1391  0.1171
  945POPC   C2B12820  16.144   2.306   6.670 -0.2704  0.0362  0.0745
  945POPC   C3B12821  16.200   2.369   7.093  0.1458 -0.1537 -0.2417
  945POPC   C4B12822  16.406   2.262   7.498 -0.1427 -0.2601 -0.0516
  946POPC   NC312823  14.841   1.733   5.334 -0.1494 -0.1254  0.0966
  946POPC   PO412824  15.034   2.046   5.673  0.0149 -0.1135  0.2942
  946POPC   GL112825  15.023   1.968   6.051 -0.0514  0.3390 -0.0028
  946POPC   GL212826  14.725   1.918   6.190 -0.0068  0.0918  0.0953
  946POPC   C1A12827  14.996   2.227   6.433  0.0281 -0.0700  0.1705
  946POPC   D2A12828  15.163   2.466   6.859  0.3511  0.0795 -0.3218
  946POPC   C3A12829  15.303   2.234   7.255  0.3549  0.2189 -0.1067
  946POPC   C4A12830  15.665   2.100   7.244 -0.2109 -0.0744  0.0853
  946POPC   C1B12831  14.664   1.847   6.616  0.3600 -0.2643 -0.0033
  946POPC   C2B12832  14.480   1.586   6.924  0.0845 -0.2052 -0.1082
  946POPC   C3B12833  14.258   1.354   7.174 -0.1202 -0.5056 -0.0832
  946POPC   C4B12834  13.947   1.354   7.515 -0.3680  0.1631  0.3517
  947POPC   NC312835   3.126   8.561   5.451 -0.1305  0.2984  0.2731
  947POPC   PO412836   2.586   8.410   5.452  0.1297  0.0294  0.2983
  947POPC   GL112837   2.369   8.213   5.896  0.3904 -0.1548 -0.1135
  947POPC   GL212838   2.251   7.937   5.935  0.0713 -0.0099  0.2133
  947POPC   C1A12839   2.672   8.145   6.200  0.4359 -0.3598 -0.0819
  947POPC   D2A12840   3.035   8.372   6.348 -0.1091 -0.1972  0.1009
  947POPC   C3A12841   3.050   8.344   6.834  0.1921  0.2043  0.1359
  947POPC   C4A12842   2.705   8.095   7.031  0.2488  0.2986  0.1381
  947POPC   C1B12843   1.980   7.879   6.239 -0.1427 -0.2132  0.2209
  947POPC   C2B12844   1.774   7.940   6.663  0.1460 -0.0872  0.1807
  947POPC   C3B12845   1.767   8.181   7.053 -0.1598  0.1158  0.1793
  947POPC   C4B12846   1.820   8.491   7.260 -0.3241  0.0183 -0.3258
  948POPC   NC312847  17.347  14.247   5.528 -0.0968 -0.0487 -0.2146
  948POPC   PO412848  17.778  14.201   5.745 -0.1692  0.2745  0.3674
  948POPC   GL112849  17.556  13.893   5.875  0.3125  0.0723  0.1434
  948POPC   GL212850  17.204  14.050   5.981 -0.0390  0.3330 -0.0573
  948POPC   C1A12851  17.429  13.706   6.229 -0.1185  0.2352  0.0039
  948POPC   D2A12852  17.405  13.634   6.694  0.0196 -0.1212 -0.2532
  948POPC   C3A12853  17.535  13.976   7.076  0.0236 -0.0878  0.4322
  948POPC   C4A12854  17.624  14.096   7.463 -0.2240  0.1216  0.1387
  948POPC   C1B12855  16.971  13.598   6.048 -0.0668 -0.2050 -0.1750
  948POPC   C2B12856  17.063  13.157   6.080  0.3700 -0.1799  0.0496
  948POPC   C3B12857  16.928  12.855   6.374 -0.0233 -0.1571  0.0235
  948POPC   C4B12858  17.106  12.643   6.694 -0.2047  0.1054  0.1382
  949POPC   NC312859   0.958   6.132   5.524 -0.0515  0.0979  0.1265
  949POPC   PO412860   0.493   6.218   5.622 -0.0213  0.3984 -0.1276
  949POPC   GL112861   0.246   6.423   5.983 -0.1333 -0.1950  0.0771
  949POPC   GL212862   0.058   6.187   6.094  0.1936  0.2561 -0.1870
  949POPC   C1A12863   0.360   6.619   6.274  0.3561 -0.3003 -0.1130
  949POPC   D2A12864   0.651   6.758   6.588  0.1089  0.1774 -0.1009
  949POPC   C3A12865   0.677   6.577   6.979  0.2973  0.0679 -0.2255
  949POPC   C4A12866   0.647   6.274   7.290 -0.1815  0.0113 -0.0737
  949POPC   C1B12867  -0.034   6.367   6.436  0.0830 -0.2282  0.1435
  949POPC   C2B12868   0.147   6.716   6.753  0.1362 -0.1142 -0.1163
  949POPC   C3B12869   0.446   7.008   6.952 -0.0356  0.0267  0.2731
  949POPC   C4B12870   0.618   7.345   7.193 -0.0253 -0.1644  0.1166
  950POPC   NC312871  17.477   6.916   5.462  0.3039 -0.0152 -0.0191
  950POPC   PO412872  17.603   7.168   5.754  0.2054  0.1994  0.1865
  950POPC   GL112873  17.843   6.985   6.164  0.3575  0.1049 -0.1416
  950POPC   GL212874  18.134   7.155   6.398  0.0022  0.1034 -0.3055
  950POPC   C1A12875  17.827   6.585   6.417 -0.3931  0.0775  0.0551
  950POPC   D2A12876  17.900   6.286   6.688  0.2095  0.1801 -0.1610
  950POPC   C3A12877  17.563   6.306   7.003 -0.0827 -0.0375  0.3119
  950POPC   C4A12878  17.577   6.439   7.417 -0.0091 -0.0887 -0.0909
  950POPC   C1B12879  17.763   7.205   6.696  0.0274 -0.0079 -0.3558
  950POPC   C2B12880  17.430   7.133   6.945 -0.1706  0.1362  0.0208
  950POPC   C3B12881  17.013   7.155   7.383 -0.0389 -0.2053 -0.1048
  950POPC   C4B12882  16.592   7.267   7.552  0.3551 -0.0144  0.0117
  951POPC   NC312883   5.423   6.013   5.295 -0.0022 -0.2897  0.0119
  951POPC   PO412884   5.148   5.796   5.504  0.0210 -0.2490  0.0250
  951POPC   GL112885   5.479   5.644   5.726  0.0326 -0.2918 -0.0591
  951POPC   GL212886   5.817   5.897   5.864 -0.0013 -0.0719  0.0495
  951POPC   C1A12887   5.713   5.460   6.021 -0.0024 -0.1467 -0.0869
  951POPC   D2A12888   5.741   5.294   6.474 -0.0543 -0.0665  0.0406
  951POPC   C3A12889   5.459   5.275   6.881  0.0371  0.1023 -0.0886
  951POPC   C4A12890   5.321   4.975   7.176 -0.2955 -0.0114  0.0921
  951POPC   C1B12891   5.462   5.991   6.219 -0.1527 -0.1745 -0.0052
  951POPC   C2B12892   5.132   6.113   6.502 -0.2629  0.2716  0.3554
  951POPC   C3B12893   5.025   6.089   6.959 -0.5613 -0.0154 -0.2201
  951POPC   C4B12894   5.146   5.990   7.367 -0.0043  0.0951 -0.0664
  952POPC   NC312895   3.415   3.013   5.884 -0.0353  0.0844 -0.3056
  952POPC   PO412896   3.762   3.052   6.055  0.4227  0.0638  0.0068
  952POPC   GL112897   3.897   2.974   6.558 -0.0988  0.0477 -0.3470
  952POPC   GL212898   3.829   3.248   6.746  0.0408  0.0691 -0.0946
  952POPC   C1A12899   3.924   2.886   7.092  0.0237 -0.1276  0.1343
  952POPC   D2A12900   3.897   3.095   7.485 -0.0246 -0.2435  0.1883
  952POPC   C3A12901   4.077   3.289   7.924  0.3221  0.0512  0.2185
  952POPC   C4A12902   3.887   3.336   8.209  0.0649 -0.0222 -0.0869
  952POPC   C1B12903   3.555   3.342   7.187  0.2211 -0.1372  0.2254
  952POPC   C2B12904   3.332   3.586   7.577 -0.2663  0.1295 -0.0766
  952POPC   C3B12905   3.516   3.668   7.961 -0.1224  0.0565  0.2562
  952POPC   C4B12906   3.449   3.565   8.441  0.0393 -0.0031  0.0940
  953POPC   NC312907  12.123  12.140   5.365  0.0332 -0.2353  0.0734
  953POPC   PO412908  12.492  12.316   5.632 -0.1644  0.0190 -0.0932
  953POPC   GL112909  12.742  12.529   5.958 -0.0428  0.2767 -0.1375
  953POPC   GL212910  13.066  12.554   5.980 -0.0407 -0.0082  0.1330
  953POPC   C1A12911  12.872  12.491   6.400  0.1481 -0.1548 -0.0636
  953POPC   D2A12912  12.808  12.488   6.909 -0.1960  0.1472 -0.0954
  953POPC   C3A12913  13.310  12.453   7.163 -0.0236  0.0424  0.3864
  953POPC   C4A12914  13.584  12.356   7.392  0.0375  0.4879 -0.0780
  953POPC   C1B12915  13.376  12.704   6.375 -0.0199 -0.2013  0.2931
  953POPC   C2B12916  13.293  12.783   6.786  0.0778  0.0248  0.2967
  953POPC   C3B12917  13.043  13.060   7.072  0.0896 -0.0661 -0.1168
  953POPC   C4B12918  13.123  13.521   7.135 -0.0801 -0.1626  0.2007
  954POPC   NC312919   3.897   9.204   5.662 -0.1484  0.3355  0.1397
  954POPC   PO412920   4.356   9.242   5.799 -0.0517  0.0002  0.0494
  954POPC   GL112921   4.262   9.291   6.269  0.1989 -0.0930 -0.0521
  954POPC   GL212922   4.063   9.224   6.194 -0.2112  0.1106 -0.7328
  954POPC   C1A12923   4.277   9.198   6.686 -0.3352  0.1532 -0.0068
  954POPC   D2A12924   4.297   9.137   7.158 -0.1109  0.0555 -0.0865
  954POPC   C3A12925   4.588   9.142   7.580 -0.0880 -0.0627 -0.3317
  954POPC   C4A12926   5.035   9.077   7.563 -0.1267 -0.3161 -0.0099
  954POPC   C1B12927   3.782   9.337   6.560  0.0597  0.0126  0.0395
  954POPC   C2B12928   3.888   9.249   6.901 -0.1415  0.0702  0.1421
  954POPC   C3B12929   3.840   9.284   7.300 -0.1945  0.0382 -0.0023
  954POPC   C4B12930   3.911   9.215   7.791 -0.3133 -0.2372  0.2253
  955POPC   NC312931  10.001  11.593   5.335  0.1633 -0.2059  0.1542
  955POPC   PO412932  10.201  11.102   5.446  0.0783  0.1353  0.0640
  955POPC   GL112933  10.095  11.144   5.786  0.2178 -0.0618 -0.0872
  955POPC   GL212934   9.972  11.417   5.896  0.0562 -0.2014 -0.0828
  955POPC   C1A12935  10.105  11.045   6.287 -0.2420 -0.2594 -0.3656
  955POPC   D2A12936  10.491  10.899   6.580  0.1913 -0.1321  0.2065
  955POPC   C3A12937  10.536  11.114   6.951 -0.2606  0.2069  0.0045
  955POPC   C4A12938  10.400  11.568   7.125 -0.1743 -0.1390  0.1588
  955POPC   C1B12939   9.668  11.417   6.118 -0.0006  0.2420 -0.0275
  955POPC   C2B12940   9.213  11.339   6.143  0.0848 -0.1907  0.0202
  955POPC   C3B12941   8.882  11.504   6.345 -0.0351 -0.0299 -0.0838
  955POPC   C4B12942   8.637  11.483   6.730 -0.0070 -0.0739  0.0778
  956POPC   NC312943   4.004   3.520   6.159 -0.0418 -0.1185  0.2912
  956POPC   PO412944   4.461   3.485   5.932 -0.1083 -0.1052 -0.0304
  956POPC   GL112945   4.619   3.492   6.390  0.1195  0.3308  0.2213
  956POPC   GL212946   4.341   3.760   6.480 -0.0183  0.1021  0.3226
  956POPC   C1A12947   4.691   3.655   6.778 -0.1831  0.0883 -0.0096
  956POPC   D2A12948   4.564   3.556   7.102  0.1807  0.4188 -0.3175
  956POPC   C3A12949   4.776   3.842   7.383 -0.1194  0.1161 -0.2674
  956POPC   C4A12950   4.999   4.185   7.624 -0.0912 -0.0447  0.0711
  956POPC   C1B12951   4.164   3.616   6.784  0.1458 -0.1562 -0.1454
  956POPC   C2B12952   4.098   3.361   7.091  0.2118  0.2023  0.3260
  956POPC   C3B12953   4.321   3.344   7.481 -0.4995 -0.1695 -0.0846
  956POPC   C4B12954   4.700   3.381   7.516 -0.1897 -0.0045 -0.2423
  957POPC   NC312955   3.011  16.670   5.250 -0.0822  0.1565  0.0244
  957POPC   PO412956   2.839  16.591   5.461 -0.0460  0.2831  0.1754
  957POPC   GL112957   2.781  16.421   5.866 -0.0071  0.2126 -0.1608
  957POPC   GL212958   3.013  16.431   6.086 -0.2839  0.0216 -0.1482
  957POPC   C1A12959   2.541  16.237   6.213 -0.3833 -0.2815 -0.1114
  957POPC   D2A12960   2.531  16.063   6.615  0.4028 -0.1969  0.2457
  957POPC   C3A12961   2.626  16.307   6.995  0.0413  0.2515 -0.0984
  957POPC   C4A12962   2.335  16.544   7.315  0.0697  0.1777 -0.0075
  957POPC   C1B12963   2.834  16.480   6.545  0.2285 -0.0070  0.3316
  957POPC   C2B12964   2.414  16.548   6.639 -0.1124 -0.2012  0.1982
  957POPC   C3B12965   2.155  16.287   6.930 -0.0679 -0.4144 -0.3339
  957POPC   C4B12966   1.911  15.867   6.903 -0.0371  0.3491 -0.0057
  958POPC   NC312967  11.874  18.585   5.400  0.1350 -0.1991 -0.0772
  958POPC   PO412968  11.916  18.946   5.790 -0.3225  0.1686  0.3351
  958POPC   GL112969  11.921  18.968   6.254  0.3547 -0.2999  0.2440
  958POPC   GL212970  11.893  18.747   6.418 -0.2961  0.0049  0.1721
  958POPC   C1A12971  12.037  19.269   6.568  0.3354 -0.0225  0.1163
  958POPC   D2A12972  12.345  19.350   6.851 -0.1917 -0.0750 -0.0138
  958POPC   C3A12973  12.377  18.965   7.164 -0.3086  0.1645  0.1431
  958POPC   C4A12974  12.302  18.598   7.081  0.6522  0.1873 -0.2953
  958POPC   C1B12975  11.995  18.781   6.777  0.2929 -0.4010 -0.1164
  958POPC   C2B12976  11.962  19.151   7.022 -0.1446  0.2559  0.5122
  958POPC   C3B12977  12.096  19.545   7.224 -0.1643 -0.1952 -0.0073
  958POPC   C4B12978  12.158  19.870   7.518 -0.1189  0.0940 -0.0203
  959POPC   NC312979  13.113  15.449   4.444 -0.0829  0.0673 -0.2399
  959POPC   PO412980  13.232  15.626   4.900  0.1123  0.1324  0.1674
  959POPC   GL112981  13.137  15.683   5.359  0.1860  0.2820  0.0036
  959POPC   GL212982  13.093  15.373   5.597 -0.0076 -0.1369 -0.0729
  959POPC   C1A12983  13.270  15.831   5.761  0.1819  0.0720 -0.2356
  959POPC   D2A12984  13.500  15.650   6.136  0.2974  0.2834  0.0570
  959POPC   C3A12985  13.489  15.846   6.635 -0.1237 -0.2271 -0.0133
  959POPC   C4A12986  13.459  16.115   6.902  0.2143  0.3090 -0.4997
  959POPC   C1B12987  13.091  15.346   6.061 -0.0867  0.3595 -0.2558
  959POPC   C2B12988  13.165  15.443   6.441  0.2361 -0.2967 -0.0250
  959POPC   C3B12989  13.330  15.279   6.657  0.2409  0.1234 -0.0471
  959POPC   C4B12990  13.288  15.044   7.105  0.1184  0.0152 -0.1525
  960POPC   NC312991  14.602   0.000   5.092  0.1908 -0.0281 -0.3175
  960POPC   PO412992  15.002  -0.032   5.274  0.1538 -0.1148  0.6332
  960POPC   GL112993  15.026  -0.381   5.652 -0.2162 -0.2259  0.2125
  960POPC   GL212994  15.136  -0.186   5.723 -0.1498 -0.0881 -0.5306
  960POPC   C1A12995  14.999  -0.448   6.172 -0.1879 -0.2501 -0.0761
  960POPC   D2A12996  15.034  -0.566   6.545 -0.1287  0.2997 -0.0383
  960POPC   C3A12997  14.628  -0.588   6.779 -0.1070 -0.1977 -0.0331
  960POPC   C4A12998  14.130  -0.693   6.741 -0.1622 -0.0535 -0.1436
  960POPC   C1B12999  14.919   0.069   6.176 -0.1198 -0.0230 -0.0890
  960POPC   C2B13000  14.757  -0.142   6.581  0.2112  0.3586 -0.1246
  960POPC   C3B13001  14.893  -0.120   7.011 -0.0501  0.1138  0.1213
  960POPC   C4B13002  14.744  -0.472   7.223 -0.3205  0.1042 -0.0909
  961POPC   NC313003   5.158  15.157   5.763  0.1502 -0.1830 -0.2466
  961POPC   PO413004   5.241  15.550   5.864  0.0426  0.1884 -0.0614
  961POPC   GL113005   4.977  15.417   6.276  0.2505 -0.0067 -0.1178
  961POPC   GL213006   5.312  15.350   6.302  0.0485  0.0281 -0.1914
  961POPC   C1A13007   4.690  15.512   6.625  0.3832 -0.1851  0.1580
  961POPC   D2A13008   4.357  15.623   6.695  0.0005 -0.1581 -0.0624
  961POPC   C3A13009   4.017  15.519   6.553  0.4333  0.4520  0.1233
  961POPC   C4A13010   4.017  14.979   6.542  0.1334  0.5103  0.1250
  961POPC   C1B13011   5.084  15.218   6.705  0.1425 -0.0471  0.0143
  961POPC   C2B13012   5.274  15.180   7.064  0.0375  0.2837 -0.0951
  961POPC   C3B13013   5.447  15.026   7.416 -0.3795 -0.0457  0.0897
  961POPC   C4B13014   5.780  14.943   7.610  0.0597  0.0790 -0.0651
  962POPC   NC313015   4.318  18.258   6.115 -0.1336 -0.1090  0.0999
  962POPC   PO413016   4.304  17.844   5.996  0.1372  0.1062  0.3590
  962POPC   GL113017   4.223  17.789   6.444  0.2251  0.5437  0.2051
  962POPC   GL213018   4.034  18.034   6.427 -0.0497  0.0409 -0.2031
  962POPC   C1A13019   4.280  17.576   6.680 -0.0600 -0.0724 -0.0188
  962POPC   D2A13020   4.222  17.336   6.940  0.0925 -0.0601  0.1815
  962POPC   C3A13021   4.184  17.239   7.400 -0.2266 -0.1235  0.0280
  962POPC   C4A13022   4.391  17.168   7.635 -0.0098  0.1739 -0.2027
  962POPC   C1B13023   4.128  17.942   6.936 -0.0961 -0.0276  0.3367
  962POPC   C2B13024   3.880  17.647   7.205 -0.0562  0.3100  0.0575
  962POPC   C3B13025   3.607  17.362   7.487  0.1102 -0.0193  0.0934
  962POPC   C4B13026   3.471  16.871   7.710 -0.1392  0.0963 -0.1581
  963POPC   NC313027  12.893   5.438   5.442 -0.1087 -0.0071  0.2710
  963POPC   PO413028  13.250   5.527   5.599  0.1501 -0.4006  0.0209
  963POPC   GL113029  13.132   5.256   5.937 -0.0471  0.2048 -0.2618
  963POPC   GL213030  13.277   5.088   6.098  0.3251  0.0376 -0.1476
  963POPC   C1A13031  12.901   5.311   6.240  0.3233  0.1086 -0.0200
  963POPC   D2A13032  12.855   5.314   6.601 -0.3971  0.2086  0.1718
  963POPC   C3A13033  13.001   5.536   6.869  0.1402  0.0744  0.2328
  963POPC   C4A13034  13.325   5.825   6.970 -0.0928 -0.0726  0.2610
  963POPC   C1B13035  13.569   4.970   6.401 -0.0861 -0.0445  0.1196
  963POPC   C2B13036  13.620   4.738   6.755  0.1538  0.2399  0.0962
  963POPC   C3B13037  13.724   4.764   7.176 -0.4917  0.1798  0.1380
  963POPC   C4B13038  13.666   5.143   7.296 -0.0257  0.3668 -0.0328
  964POPC   NC313039  15.164   0.827   5.409 -0.1157 -0.0860  0.1497
  964POPC   PO413040  14.955   1.212   5.462 -0.0826 -0.0381  0.2851
  964POPC   GL113041  15.033   1.527   5.875  0.0246  0.0253  0.1231
  964POPC   GL213042  14.821   1.310   6.035  0.1283  0.1295  0.0359
  964POPC   C1A13043  14.999   1.569   6.397 -0.1415 -0.4150 -0.4000
  964POPC   D2A13044  15.200   1.842   6.775 -0.0466 -0.2091 -0.0551
  964POPC   C3A13045  15.451   1.608   7.130 -0.0262  0.3231  0.0867
  964POPC   C4A13046  15.877   1.506   7.218  0.0184  0.1531 -0.1444
  964POPC   C1B13047  15.100   0.948   6.302  0.2345  0.2728 -0.0988
  964POPC   C2B13048  15.103   0.872   6.695  0.0627 -0.2950 -0.1323
  964POPC   C3B13049  15.157   0.809   7.123  0.3681 -0.2851  0.0857
  964POPC   C4B13050  14.899   0.620   7.495  0.0696 -0.0422  0.1343
  965POPC   NC313051  12.997   1.604   5.905  0.0800 -0.0739 -0.2019
  965POPC   PO413052  12.829   1.278   5.893  0.0633  0.1828  0.2532
  965POPC   GL113053  13.058   1.146   6.210 -0.0901  0.0121  0.0147
  965POPC   GL213054  12.837   1.285   6.377  0.3780 -0.2934  0.0258
  965POPC   C1A13055  13.116   0.812   6.525  0.2817  0.0917 -0.2971
  965POPC   D2A13056  13.346   0.554   6.798 -0.0220 -0.1078  0.0649
  965POPC   C3A13057  13.351   0.534   7.340  0.2317 -0.0620 -0.0007
  965POPC   C4A13058  13.373   0.335   7.791 -0.2797  0.3588 -0.0417
  965POPC   C1B13059  12.729   1.147   6.700  0.1042  0.3484  0.0281
  965POPC   C2B13060  12.723   1.290   7.153 -0.1587  0.0420 -0.2827
  965POPC   C3B13061  12.474   1.265   7.465  0.1983  0.1780  0.1887
  965POPC   C4B13062  12.100   1.270   7.721  0.2910 -0.1765 -0.0502
  966POPC   NC313063  17.657   1.360   5.156 -0.2447 -0.2280 -0.0631
  966POPC   PO413064  17.523   0.937   5.086  0.0212  0.1164  0.0259
  966POPC   GL113065  17.480   1.072   5.540 -0.1540 -0.2636 -0.0539
  966POPC   GL213066  17.802   0.990   5.774 -0.0688  0.2016 -0.0634
  966POPC   C1A13067  17.260   0.915   5.985  0.0487  0.2238  0.2178
  966POPC   D2A13068  17.387   0.940   6.487 -0.0675  0.1206  0.1850
  966POPC   C3A13069  17.164   0.935   6.790 -0.0431 -0.0002 -0.0267
  966POPC   C4A13070  17.169   0.828   7.265 -0.0055  0.1781 -0.2112
  966POPC   C1B13071  17.653   1.226   6.092 -0.2402  0.0370 -0.0669
  966POPC   C2B13072  17.668   1.372   6.570 -0.0137  0.1999  0.0229
  966POPC   C3B13073  17.830   1.647   6.981  0.1645  0.3615 -0.1982
  966POPC   C4B13074  17.825   2.004   7.357 -0.1212  0.1299  0.1160
  967POPC   NC313075  17.263   9.533   5.532 -0.0912  0.0287  0.1359
  967POPC   PO413076  17.215   9.970   5.763 -0.3251  0.1786 -0.1756
  967POPC   GL113077  17.249  10.206   6.011 -0.3309  0.1450 -0.1783
  967POPC   GL213078  17.227  10.110   6.347  0.2007 -0.2133  0.3504
  967POPC   C1A13079  17.461  10.600   6.299  0.0642  0.0456 -0.0535
  967POPC   D2A13080  17.680  11.018   6.258  0.2909 -0.2781  0.1126
  967POPC   C3A13081  18.000  11.179   6.544  0.1236 -0.0272 -0.3298
  967POPC   C4A13082  18.277  11.269   6.883  0.2478 -0.1078  0.1493
  967POPC   C1B13083  17.365  10.334   6.685 -0.3084 -0.1321 -0.0744
  967POPC   C2B13084  17.699  10.192   6.954 -0.2351  0.0543  0.1394
  967POPC   C3B13085  17.982  10.061   7.242 -0.1067 -0.0333 -0.0309
  967POPC   C4B13086  17.973  10.464   7.439  0.2188  0.1138  0.1173
  968POPC   NC313087  17.891  15.836   5.297 -0.0623 -0.0717 -0.2341
  968POPC   PO413088  17.672  15.437   5.375  0.2746  0.0621  0.0566
  968POPC   GL113089  17.682  15.556   5.765 -0.0998 -0.1782  0.0447
  968POPC   GL213090  17.559  15.939   5.819 -0.1147 -0.1782 -0.2530
  968POPC   C1A13091  17.704  15.358   6.159  0.0206 -0.1227  0.2814
  968POPC   D2A13092  17.561  15.292   6.555 -0.1205 -0.2214  0.1086
  968POPC   C3A13093  17.802  15.382   6.969 -0.3420 -0.3058 -0.2728
  968POPC   C4A13094  17.901  15.809   6.960  0.0369 -0.0355 -0.1047
  968POPC   C1B13095  17.390  15.766   6.106  0.0389 -0.4895 -0.0484
  968POPC   C2B13096  17.669  15.825   6.520 -0.1018  0.0025 -0.0197
  968POPC   C3B13097  18.090  16.026   6.560  0.0941  0.1465 -0.2112
  968POPC   C4B13098  18.322  16.236   6.826  0.4445 -0.1940 -0.0771
  969POPC   NC313099   0.947   1.460   5.546 -0.1524 -0.0682 -0.1114
  969POPC   PO413100   0.676   1.247   5.291 -0.1632 -0.0402 -0.1397
  969POPC   GL113101   0.299   1.218   5.701  0.0241 -0.0410 -0.0298
  969POPC   GL213102   0.526   1.319   5.913  0.3523 -0.2049  0.1067
  969POPC   C1A13103  -0.185   1.049   5.922  0.1178  0.0257 -0.1850
  969POPC   D2A13104  -0.514   0.836   6.214 -0.0155  0.0173 -0.1836
  969POPC   C3A13105  -0.668   0.866   6.648  0.2063 -0.2011  0.1919
  969POPC   C4A13106  -0.531   0.586   6.931 -0.1440  0.1751 -0.1772
  969POPC   C1B13107   0.760   0.945   6.042 -0.2630  0.0975  0.0636
  969POPC   C2B13108   1.096   0.823   6.302 -0.0523  0.0053 -0.2908
  969POPC   C3B13109   1.250   0.827   6.684 -0.1072 -0.0857 -0.0960
  969POPC   C4B13110   1.243   0.565   7.051  0.0289 -0.0315 -0.0795
  970POPC   NC313111  10.476   7.493   5.040 -0.0122  0.0440  0.0504
  970POPC   PO413112  10.625   7.792   5.269 -0.1186  0.2328 -0.0524
  970POPC   GL113113  10.562   7.669   5.620 -0.0815 -0.3040  0.0963
  970POPC   GL213114  10.367   7.878   5.808 -0.0905  0.3472  0.0195
  970POPC   C1A13115  10.733   7.608   6.102 -0.0755  0.0156  0.1125
  970POPC   D2A13116  10.924   7.368   6.423  0.1318  0.0976  0.1598
  970POPC   C3A13117  11.042   7.556   6.755  0.0580 -0.0233  0.0139
  970POPC   C4A13118  11.194   7.650   7.293  0.1346 -0.0127 -0.0333
  970POPC   C1B13119  10.291   7.848   6.247 -0.1804  0.1376 -0.0196
  970POPC   C2B13120  10.223   8.001   6.652  0.0744  0.0536 -0.0203
  970POPC   C3B13121  10.444   8.084   6.998 -0.0198  0.1133  0.3112
  970POPC   C4B13122  10.820   7.958   7.027 -0.1946  0.1446  0.4145
  971POPC   NC313123   6.773   1.151   6.059 -0.0010 -0.0264  0.0199
  971POPC   PO413124   7.165   1.390   6.005  0.2940 -0.3000  0.0935
  971POPC   GL113125   7.110   1.436   6.425  0.1340  0.1068  0.0643
  971POPC   GL213126   6.790   1.408   6.539  0.0825 -0.3299 -0.0116
  971POPC   C1A13127   7.383   1.378   6.815 -0.1766 -0.1587 -0.1103
  971POPC   D2A13128   7.700   1.306   7.149  0.3656 -0.0041  0.2163
  971POPC   C3A13129   7.517   1.479   7.478  0.0293  0.2326  0.1986
  971POPC   C4A13130   7.683   1.554   7.888  0.2158  0.0598  0.1213
  971POPC   C1B13131   6.882   1.485   6.955 -0.0712 -0.0420 -0.0551
  971POPC   C2B13132   7.096   1.529   7.281  0.0578 -0.1298  0.1358
  971POPC   C3B13133   7.078   1.167   7.669 -0.2122  0.0672  0.0251
  971POPC   C4B13134   7.377   1.070   7.994  0.3022 -0.0784 -0.2399
  972POPC   NC313135   1.302  17.348   5.358 -0.0575 -0.2018 -0.0710
  972POPC   PO413136   1.185  17.787   5.296  0.4258  0.1190  0.0612
  972POPC   GL113137   1.195  17.778   5.656 -0.1271  0.1823  0.1371
  972POPC   GL213138   1.435  17.609   5.755  0.0942 -0.0218  0.3622
  972POPC   C1A13139   1.004  17.821   6.088 -0.0570  0.2573  0.0076
  972POPC   D2A13140   0.698  17.841   6.401 -0.2862  0.0047 -0.0443
  972POPC   C3A13141   0.347  17.971   6.354  0.1135 -0.0989 -0.1184
  972POPC   C4A13142   0.139  18.189   6.173 -0.1033  0.1691  0.3352
  972POPC   C1B13143   1.464  17.643   6.135  0.1456  0.2153 -0.2970
  972POPC   C2B13144   1.375  17.678   6.641 -0.0191 -0.1031 -0.1684
  972POPC   C3B13145   1.361  17.566   6.995  0.3053  0.1855  0.1695
  972POPC   C4B13146   1.709  17.551   7.414  0.0548 -0.2538  0.3575
  973POPC   NC313147  18.073  17.148   4.948 -0.2236 -0.2244  0.0548
  973POPC   PO413148  18.173  17.543   4.822  0.1863  0.0316  0.0142
  973POPC   GL113149  18.461  17.364   5.176 -0.2880 -0.0358  0.2845
  973POPC   GL213150  18.249  17.260   5.430  0.4357 -0.0463  0.1088
  973POPC   C1A13151  18.810  17.447   5.317  0.0080 -0.2689 -0.1013
  973POPC   D2A13152  19.178  17.370   5.516 -0.3110 -0.0784 -0.1482
  973POPC   C3A13153  19.164  16.939   5.593  0.0811 -0.1404 -0.1332
  973POPC   C4A13154  18.853  16.665   5.649 -0.0861  0.0176  0.5285
  973POPC   C1B13155  18.101  17.265   5.901 -0.2402  0.4238 -0.0744
  973POPC   C2B13156  18.192  17.518   6.248  0.2144  0.0225 -0.4434
  973POPC   C3B13157  18.091  17.529   6.761 -0.0568  0.1650  0.1845
  973POPC   C4B13158  18.181  17.233   7.090 -0.1077 -0.0139 -0.0596
  974POPC   NC313159  11.984   5.383   5.327  0.0993  0.0988 -0.2968
  974POPC   PO413160  12.383   5.459   5.538  0.0966 -0.0814 -0.1004
  974POPC   GL113161  12.411   5.488   6.001  0.2744  0.1015  0.2382
  974POPC   GL213162  12.261   5.291   6.284  0.3937 -0.1383 -0.0392
  974POPC   C1A13163  12.612   5.863   6.109 -0.0921  0.0699  0.4362
  974POPC   D2A13164  13.005   5.820   5.951 -0.3617 -0.4545  0.3759
  974POPC   C3A13165  13.264   6.124   6.056  0.2113  0.1445 -0.3332
  974POPC   C4A13166  13.716   6.252   6.036 -0.3929 -0.3514 -0.0906
  974POPC   C1B13167  12.447   5.553   6.561 -0.1932  0.1458 -0.1149
  974POPC   C2B13168  12.369   5.772   6.974 -0.2531 -0.0843  0.0444
  974POPC   C3B13169  12.337   5.926   7.404 -0.2125  0.0544 -0.1164
  974POPC   C4B13170  12.345   6.208   7.754  0.3040  0.1053 -0.0827
  975POPC   NC313171   8.316  15.880   5.509 -0.2651  0.1700  0.1898
  975POPC   PO413172   7.922  16.223   5.470  0.1875  0.0725 -0.0468
  975POPC   GL113173   7.974  16.306   5.917 -0.0321  0.2263 -0.1356
  975POPC   GL213174   8.271  16.487   5.984 -0.1716  0.1541 -0.1191
  975POPC   C1A13175   8.072  16.282   6.355 -0.1462  0.0480  0.0317
  975POPC   D2A13176   8.035  16.282   6.821 -0.0499  0.0170 -0.0017
  975POPC   C3A13177   8.054  16.570   7.102  0.0245  0.1121  0.1288
  975POPC   C4A13178   7.801  16.863   6.957  0.2648  0.0480  0.1563
  975POPC   C1B13179   8.545  16.649   6.275 -0.0078  0.2481 -0.3219
  975POPC   C2B13180   8.844  16.924   6.228 -0.0954  0.0538  0.0189
  975POPC   C3B13181   9.143  17.305   6.228 -0.2605 -0.1120 -0.0824
  975POPC   C4B13182   9.632  17.340   6.168  0.1383 -0.0285  0.0355
  976POPC   NC313183  10.586  18.807   5.855  0.2522  0.2427  0.0710
  976POPC   PO413184  11.049  18.874   5.887  0.1233 -0.0671  0.0777
  976POPC   GL113185  10.901  18.558   6.133 -0.0512  0.1011  0.1346
  976POPC   GL213186  10.836  18.748   6.364  0.1643 -0.2113 -0.1838
  976POPC   C1A13187  10.818  18.223   6.213 -0.1760  0.1517 -0.1422
  976POPC   D2A13188  10.584  17.916   6.033  0.1366 -0.0523 -0.1055
  976POPC   C3A13189  10.136  18.000   6.061 -0.0647 -0.2139 -0.1105
  976POPC   C4A13190  10.008  18.215   6.561 -0.0993 -0.0469  0.1789
  976POPC   C1B13191  10.443  18.537   6.451 -0.2047  0.1195 -0.0575
  976POPC   C2B13192  10.376  18.401   6.918  0.1046  0.1365  0.1189
  976POPC   C3B13193  10.524  18.074   7.252 -0.2035  0.1631  0.0729
  976POPC   C4B13194  10.392  17.785   7.407 -0.0630  0.0111  0.0105
  977POPC   NC313195   1.307   7.297   4.755 -0.0919  0.5728  0.1249
  977POPC   PO413196   1.425   7.204   5.145  0.1086  0.0451  0.0455
  977POPC   GL113197   1.324   7.112   5.505 -0.2155  0.3118 -0.0403
  977POPC   GL213198   1.400   6.893   5.760 -0.0921  0.0344 -0.0682
  977POPC   C1A13199   1.232   7.435   5.819 -0.0206  0.0947 -0.3771
  977POPC   D2A13200   1.036   7.538   6.244 -0.0883 -0.0359 -0.0967
  977POPC   C3A13201   0.876   7.864   6.301  0.0950 -0.1387  0.0789
  977POPC   C4A13202   0.505   8.183   6.400 -0.3026  0.2584  0.0310
  977POPC   C1B13203   1.009   7.026   6.046 -0.1383 -0.1717 -0.2428
  977POPC   C2B13204   0.950   7.126   6.527 -0.2556  0.0188  0.4837
  977POPC   C3B13205   1.006   7.155   6.978 -0.3960 -0.0442  0.1395
  977POPC   C4B13206   1.018   6.763   7.295  0.0887 -0.2448  0.3089
  978POPC   NC313207   2.758  10.059   4.943  0.0384  0.0884  0.0484
  978POPC   PO413208   2.974   9.784   5.236 -0.3002 -0.0097 -0.0130
  978POPC   GL113209   2.934   9.871   5.736  0.2089 -0.1352  0.3989
  978POPC   GL213210   3.090   9.715   5.890 -0.0957 -0.3407  0.2009
  978POPC   C1A13211   2.744  10.162   6.099  0.0094  0.1790 -0.1777
  978POPC   D2A13212   2.423  10.151   6.404  0.0004  0.1152 -0.0118
  978POPC   C3A13213   2.411  10.310   6.847  0.1388  0.1817 -0.3104
  978POPC   C4A13214   2.233  10.511   7.207  0.3272  0.0877 -0.3478
  978POPC   C1B13215   3.174   9.384   6.212  0.1295  0.1216  0.2823
  978POPC   C2B13216   3.303   9.423   6.619  0.2997  0.1168 -0.0780
  978POPC   C3B13217   3.436   9.330   7.006  0.1934  0.0573  0.0985
  978POPC   C4B13218   3.421   9.502   7.345 -0.1640  0.0666 -0.0706
  979POPC   NC313219   6.860  17.104   5.741  0.0901 -0.3330  0.2221
  979POPC   PO413220   6.861  16.792   6.024 -0.1397  0.2022 -0.2004
  979POPC   GL113221   6.780  17.117   6.245 -0.1498  0.0351 -0.2159
  979POPC   GL213222   7.127  17.308   6.382 -0.1011  0.0177  0.0895
  979POPC   C1A13223   6.720  17.277   6.676 -0.0842  0.2960 -0.1089
  979POPC   D2A13224   6.820  17.270   7.144  0.0678 -0.0882  0.1735
  979POPC   C3A13225   7.082  17.046   7.392  0.0868  0.0252 -0.1226
  979POPC   C4A13226   7.351  16.887   7.583  0.1074  0.1081  0.1729
  979POPC   C1B13227   7.239  17.174   6.881  0.2520 -0.5916  0.0892
  979POPC   C2B13228   7.461  17.285   7.258  0.1505 -0.1797  0.0726
  979POPC   C3B13229   7.780  16.965   7.422 -0.1952 -0.0791  0.0858
  979POPC   C4B13230   7.994  16.551   7.652  0.2411 -0.1371  0.0754
  980POPC   NC313231  10.317  16.944   5.062 -0.2890 -0.1411 -0.0712
  980POPC   PO413232  10.155  16.917   5.384 -0.2207  0.1480  0.1364
  980POPC   GL113233  10.194  17.164   5.820 -0.1002 -0.1634 -0.1359
  980POPC   GL213234  10.174  16.848   5.897  0.1918 -0.3556  0.2655
  980POPC   C1A13235  10.237  17.372   6.182  0.2461  0.2620  0.1384
  980POPC   D2A13236  10.616  17.510   6.301 -0.2026  0.0964  0.0545
  980POPC   C3A13237  10.703  17.812   6.520  0.0174  0.1379  0.0341
  980POPC   C4A13238  10.567  18.096   6.627  0.0937  0.1465 -0.0113
  980POPC   C1B13239   9.995  16.946   6.272  0.0003 -0.0385 -0.0259
  980POPC   C2B13240   9.911  17.208   6.625 -0.0541  0.0863  0.0354
  980POPC   C3B13241   9.950  17.415   6.935  0.1582 -0.2140 -0.1980
  980POPC   C4B13242   9.935  17.621   7.399  0.1622 -0.0247 -0.0311
  981POPC   NC313243   6.851  16.207   5.863 -0.3766  0.3287  0.0943
  981POPC   PO413244   7.038  15.858   5.736  0.0538  0.3117  0.2050
  981POPC   GL113245   7.159  15.640   6.110 -0.2629 -0.3092 -0.0983
  981POPC   GL213246   7.170  15.225   6.218  0.2095 -0.2041 -0.0750
  981POPC   C1A13247   7.336  15.649   6.475 -0.0064  0.1730 -0.0957
  981POPC   D2A13248   7.318  15.740   6.929  0.0081  0.2740  0.3429
  981POPC   C3A13249   7.493  16.151   6.894 -0.0235 -0.0418 -0.0123
  981POPC   C4A13250   7.659  16.480   6.584  0.2216 -0.0147 -0.2793
  981POPC   C1B13251   7.111  15.135   6.621 -0.0736  0.1294  0.1399
  981POPC   C2B13252   7.221  14.875   7.028  0.1087  0.1197  0.2140
  981POPC   C3B13253   7.355  14.881   7.461 -0.1112  0.1746 -0.0895
  981POPC   C4B13254   7.189  14.975   7.835 -0.0158 -0.0675 -0.0473
  982YOPC   NC313255  18.137   7.031   5.755 -0.0964  0.4022 -0.1162
  982YOPC   PO413256  18.607   7.004   5.624  0.1485 -0.1599  0.1521
  982YOPC   GL113257  18.559   7.074   6.091  0.0032 -0.0594 -0.3269
  982YOPC   GL213258  18.451   6.754   6.170  0.2563  0.1639 -0.0163
  982YOPC   C1A13259  18.461   7.466   6.332 -0.2197 -0.0374  0.0107
  982YOPC   D2A13260  18.548   7.853   6.541  0.0142  0.0731 -0.1300
  982YOPC   C3A13261  18.806   7.781   6.925 -0.4359 -0.1434 -0.2841
  982YOPC   C4A13262  18.905   8.064   7.189  0.2243  0.0279  0.0440
  982YOPC   C1B13263  18.701   6.772   6.435 -0.0571  0.1308  0.0167
  982YOPC   C2B13264  18.951   7.155   6.392  0.1076  0.1851 -0.0891
  982YOPC   D3B13265  18.661   7.325   6.757 -0.0753 -0.0772 -0.0968
  982YOPC   C4B13266  18.186   7.453   6.785  0.0112  0.0490 -0.1016
  983YOPC   NC313267   3.879  14.054   5.201  0.1719 -0.0543  0.0257
  983YOPC   PO413268   3.439  13.949   5.367 -0.3012  0.2715 -0.0162
  983YOPC   GL113269   3.580  14.071   5.851 -0.0187  0.0867  0.1606
  983YOPC   GL213270   3.751  13.771   6.098  0.0760 -0.1244  0.2298
  983YOPC   C1A13271   3.635  14.325   6.230  0.0615 -0.1876 -0.1839
  983YOPC   D2A13272   3.591  14.251   6.710 -0.0261 -0.2139 -0.1163
  983YOPC   C3A13273   3.794  14.234   6.978  0.1134  0.0311 -0.0463
  983YOPC   C4A13274   3.646  13.888   7.317  0.1076  0.0169 -0.0535
  983YOPC   C1B13275   3.588  13.515   6.444 -0.2774 -0.0954  0.0675
  983YOPC   C2B13276   3.444  13.106   6.639  0.0941  0.0108 -0.2332
  983YOPC   D3B13277   3.062  13.015   6.743 -0.0099 -0.3369 -0.0908
  983YOPC   C4B13278   2.902  12.919   6.341  0.2609  0.1538 -0.2355
  984YOPC   NC313279   2.338  11.038   5.080 -0.0170  0.0091 -0.1742
  984YOPC   PO413280   2.655  10.711   5.099 -0.0035 -0.1798 -0.1083
  984YOPC   GL113281   2.638  10.745   5.503  0.2289  0.0359  0.1221
  984YOPC   GL213282   2.736  11.049   5.716 -0.1690 -0.2206 -0.2078
  984YOPC   C1A13283   2.458  10.734   5.957  0.3462  0.0523 -0.0706
  984YOPC   D2A13284   2.786  10.674   6.274 -0.2719 -0.0861 -0.2758
  984YOPC   C3A13285   2.706  10.716   6.709 -0.0270 -0.1420  0.2138
  984YOPC   C4A13286   2.736  10.552   7.086 -0.0122  0.1399 -0.1037
  984YOPC   C1B13287   3.048  11.140   6.032  0.0466 -0.0995 -0.1245
  984YOPC   C2B13288   3.243  11.344   6.382  0.1349 -0.1300 -0.1950
  984YOPC   D3B13289   3.076  11.276   6.740  0.2811  0.1942  0.1366
  984YOPC   C4B13290   3.107  10.826   6.930 -0.1387 -0.3950  0.0869
  985YOPC   NC313291   3.315  10.095   5.405  0.0947  0.0903  0.1656
  985YOPC   PO413292   3.519  10.481   5.406 -0.4280 -0.3868  0.4686
  985YOPC   GL113293   3.369  10.630   5.791  0.1708 -0.0664 -0.0482
  985YOPC   GL213294   3.110  10.453   5.824  0.0369 -0.3502 -0.0963
  985YOPC   C1A13295   3.265  10.658   6.205 -0.2238  0.2754  0.0539
  985YOPC   D2A13296   3.431  10.942   6.551 -0.0129  0.0944  0.1756
  985YOPC   C3A13297   3.618  10.718   6.839 -0.2160 -0.1115  0.2682
  985YOPC   C4A13298   3.729  10.423   7.055  0.1643  0.1720  0.0975
  985YOPC   C1B13299   3.232  10.093   6.115  0.0607  0.0615  0.2231
  985YOPC   C2B13300   3.085   9.821   6.477  0.2045 -0.4992 -0.0016
  985YOPC   D3B13301   2.753   9.671   6.368  0.5014  0.1433  0.1151
  985YOPC   C4B13302   2.663   9.323   6.094 -0.1942 -0.1804 -0.2055
  986YOPC   NC313303  13.340   2.590   5.367 -0.1679  0.2772  0.1341
  986YOPC   PO413304  13.151   2.425   5.714 -0.0285 -0.0249 -0.0704
  986YOPC   GL113305  13.328   2.506   6.104 -0.1364  0.2625  0.1213
  986YOPC   GL213306  13.131   2.276   6.171 -0.0639 -0.2502  0.2023
  986YOPC   C1A13307  13.415   2.593   6.559  0.0658 -0.1350  0.0392
  986YOPC   D2A13308  13.406   2.682   6.976  0.2737 -0.1282 -0.2448
  986YOPC   C3A13309  13.529   2.505   7.325 -0.2581 -0.0384 -0.2022
  986YOPC   C4A13310  13.823   2.290   7.644  0.0976  0.1267  0.1351
  986YOPC   C1B13311  13.123   2.185   6.595  0.0925  0.1582  0.1378
  986YOPC   C2B13312  13.055   2.148   7.009  0.3835 -0.4509 -0.1889
  986YOPC   D3B13313  13.208   1.764   7.272  0.0771  0.0544  0.1587
  986YOPC   C4B13314  13.008   1.516   7.519 -0.0776  0.0576  0.2176
  987YOPC   NC313315   8.390  14.538   5.330 -0.0554  0.2422 -0.1466
  987YOPC   PO413316   8.847  14.519   5.413 -0.0793 -0.3703  0.1155
  987YOPC   GL113317   9.081  14.504   5.778  0.0056 -0.0405 -0.0812
  987YOPC   GL213318   9.388  14.548   5.779  0.2707  0.0303 -0.0960
  987YOPC   C1A13319   9.153  14.322   6.218 -0.0962 -0.1984  0.0829
  987YOPC   D2A13320   9.192  14.403   6.610 -0.2800 -0.1975 -0.1148
  987YOPC   C3A13321   9.261  14.319   7.023  0.1607  0.0145  0.0533
  987YOPC   C4A13322   9.515  14.121   7.244 -0.0952  0.0636 -0.3614
  987YOPC   C1B13323   9.705  14.592   6.055 -0.1113  0.1565 -0.0368
  987YOPC   C2B13324   9.920  14.411   6.390 -0.1937 -0.1258 -0.2985
  987YOPC   D3B13325  10.294  14.376   6.344 -0.3350 -0.1574 -0.0851
  987YOPC   C4B13326  10.551  14.725   6.441 -0.0031 -0.1167 -0.2287
  988YOPC   NC313327   8.783   5.000   5.015 -0.1339 -0.1141 -0.4121
  988YOPC   PO413328   8.510   5.219   5.403 -0.2059 -0.3063  0.3353
  988YOPC   GL113329   8.726   5.195   5.736 -0.2607 -0.1523  0.2250
  988YOPC   GL213330   8.565   5.487   6.008 -0.1303 -0.0115  0.0641
  988YOPC   C1A13331   8.867   5.052   6.275  0.0207 -0.1169  0.1091
  988YOPC   D2A13332   9.040   5.246   6.723 -0.2544  0.3168 -0.3503
  988YOPC   C3A13333   8.715   5.146   6.990  0.1280 -0.4724 -0.0987
  988YOPC   C4A13334   8.650   5.191   7.392 -0.2567  0.2369 -0.1844
  988YOPC   C1B13335   8.453   5.438   6.551 -0.2003 -0.1894  0.1590
  988YOPC   C2B13336   8.438   5.522   7.015  0.2133 -0.2919 -0.0034
  988YOPC   D3B13337   8.899   5.659   7.045  0.0791 -0.1045 -0.1340
  988YOPC   C4B13338   9.369   5.654   6.996 -0.1472 -0.0560 -0.3789
  989YOPC   NC313339  12.915  12.661   5.513  0.0021  0.0724 -0.1086
  989YOPC   PO413340  13.356  12.738   5.545  0.0476 -0.0067 -0.0793
  989YOPC   GL113341  13.373  12.974   5.843  0.0536  0.0815 -0.1353
  989YOPC   GL213342  13.681  13.054   5.958  0.0692  0.2219 -0.0012
  989YOPC   C1A13343  13.054  13.074   6.209 -0.0236 -0.0956  0.0368
  989YOPC   D2A13344  13.006  13.280   6.595  0.2152 -0.0112 -0.0698
  989YOPC   C3A13345  12.575  13.388   6.882 -0.1275 -0.2005 -0.3678
  989YOPC   C4A13346  12.323  13.751   6.831  0.4060 -0.0266 -0.1797
  989YOPC   C1B13347  13.481  13.170   6.363 -0.0032  0.1052 -0.1268
  989YOPC   C2B13348  13.485  13.339   6.811  0.1411  0.3209 -0.2172
  989YOPC   D3B13349  13.813  13.509   6.877 -0.0491 -0.1160 -0.0385
  989YOPC   C4B13350  13.818  13.874   6.779  0.2121 -0.0540  0.2375
  990YOPC   NC313351   1.110   2.731   5.336  0.2106 -0.0896  0.1762
  990YOPC   PO413352   1.494   2.693   5.295  0.1009 -0.0267 -0.2612
  990YOPC   GL113353   1.423   2.631   5.777  0.0787  0.1469 -0.0478
  990YOPC   GL213354   1.157   2.719   5.813  0.0355  0.0761 -0.1675
  990YOPC   C1A13355   1.247   2.268   5.945 -0.1480  0.0871 -0.0174
  990YOPC   D2A13356   0.979   1.841   6.078 -0.1292  0.0032 -0.1916
  990YOPC   C3A13357   0.640   1.744   6.269  0.2296 -0.3635  0.2530
  990YOPC   C4A13358   0.388   1.743   6.443  0.2502 -0.0621 -0.0399
  990YOPC   C1B13359   1.052   2.688   6.147  0.0983 -0.1209 -0.2472
  990YOPC   C2B13360   0.986   2.711   6.489  0.0049  0.0884 -0.1108
  990YOPC   D3B13361   0.954   2.559   6.837 -0.3029  0.0828 -0.1232
  990YOPC   C4B13362   0.961   2.236   6.972 -0.1882 -0.0413  0.1550
  991YOPC   NC313363   2.722  12.573   5.134 -0.1357  0.2931 -0.1143
  991YOPC   PO413364   2.438  12.978   5.078 -0.0445 -0.0683  0.1104
  991YOPC   GL113365   2.414  12.811   5.473  0.1653 -0.0125  0.0101
  991YOPC   GL213366   2.421  12.436   5.500 -0.2044  0.0641 -0.1611
  991YOPC   C1A13367   2.186  12.846   5.902  0.0557 -0.0423  0.0055
  991YOPC   D2A13368   2.304  13.051   6.307  0.5235  0.0600 -0.1320
  991YOPC   C3A13369   2.548  13.076   6.688 -0.2357 -0.1070  0.0432
  991YOPC   C4A13370   2.349  13.247   7.087 -0.1882  0.1683  0.0807
  991YOPC   C1B13371   2.469  12.451   5.911 -0.1744 -0.0586 -0.1289
  991YOPC   C2B13372   2.499  12.640   6.377 -0.4022  0.0274 -0.2705
  991YOPC   D3B13373   2.651  12.589   6.812  0.2978  0.2099  0.1665
  991YOPC   C4B13374   2.805  12.976   7.217  0.3656 -0.1314  0.3018
  992YOPC   NC313375   3.706   8.001   5.797 -0.0435 -0.2570  0.2940
  992YOPC   PO413376   3.402   7.674   5.804  0.0758 -0.2713  0.0823
  992YOPC   GL113377   3.498   7.720   6.213 -0.2356 -0.2811  0.0366
  992YOPC   GL213378   3.698   7.531   6.428  0.1689  0.1245  0.1325
  992YOPC   C1A13379   3.245   7.991   6.539  0.0246 -0.0615  0.2618
  992YOPC   D2A13380   2.844   7.863   6.627  0.1015 -0.3572  0.0450
  992YOPC   C3A13381   2.942   7.608   6.987 -0.0906  0.1090 -0.3915
  992YOPC   C4A13382   3.032   7.640   7.488  0.0685  0.1898  0.2220
  992YOPC   C1B13383   3.417   7.542   6.711 -0.2005 -0.0244 -0.1724
  992YOPC   C2B13384   3.329   7.891   7.001  0.3186 -0.0661 -0.5225
  992YOPC   D3B13385   3.123   8.150   7.315  0.1149  0.1158 -0.1307
  992YOPC   C4B13386   2.765   8.443   7.393  0.1002  0.3812  0.1274
  993YOPC   NC313387  14.817  15.957   5.659 -0.0405  0.4132 -0.4716
  993YOPC   PO413388  14.732  15.531   5.511  0.2446 -0.3061  0.3618
  993YOPC   GL113389  14.416  15.506   5.869  0.1318  0.0349 -0.2884
  993YOPC   GL213390  14.558  15.536   6.130  0.0227 -0.2131 -0.2058
  993YOPC   C1A13391  13.985  15.353   6.069  0.1101 -0.1959 -0.1500
  993YOPC   D2A13392  13.828  15.370   6.481  0.2115 -0.0970 -0.0616
  993YOPC   C3A13393  14.051  15.035   6.782 -0.2178  0.1188 -0.0706
  993YOPC   C4A13394  14.288  14.775   7.042  0.1421 -0.2394 -0.1116
  993YOPC   C1B13395  14.378  15.360   6.529  0.0609  0.3517  0.0742
  993YOPC   C2B13396  14.461  15.238   6.929 -0.3307 -0.1486  0.1205
  993YOPC   D3B13397  14.514  15.026   7.394  0.2144 -0.1415  0.0911
  993YOPC   C4B13398  14.392  14.679   7.511  0.2603 -0.0253 -0.0931
  994YOPC   NC313399   8.094  18.271   5.885  0.1429  0.2630 -0.1723
  994YOPC   PO413400   7.727  18.198   6.113 -0.0057  0.1352  0.0277
  994YOPC   GL113401   7.906  17.934   6.363 -0.0164 -0.0942  0.1655
  994YOPC   GL213402   7.851  17.760   6.539 -0.2881 -0.0995 -0.0321
  994YOPC   C1A13403   8.383  17.835   6.467  0.1410  0.0550  0.1592
  994YOPC   D2A13404   8.833  17.819   6.610  0.1653  0.0576 -0.0443
  994YOPC   C3A13405   9.062  17.566   6.673  0.0624 -0.1294  0.1174
  994YOPC   C4A13406   9.427  17.461   6.667  0.0122  0.0450 -0.1667
  994YOPC   C1B13407   7.971  17.825   6.927 -0.1884  0.1034 -0.2072
  994YOPC   C2B13408   7.700  17.751   7.129 -0.2089 -0.0368 -0.0702
  994YOPC   D3B13409   7.751  17.637   7.547  0.1230  0.2820  0.2100
  994YOPC   C4B13410   7.497  17.755   7.802 -0.0485  0.1394 -0.3662
  995YOPC   NC313411   5.453   9.567   5.306 -0.0463 -0.0883  0.0680
  995YOPC   PO413412   5.201   9.707   5.466  0.2886 -0.1154  0.0371
  995YOPC   GL113413   5.021   9.778   5.767  0.1300 -0.0360 -0.0581
  995YOPC   GL213414   5.320   9.980   5.920  0.0484 -0.1556 -0.1380
  995YOPC   C1A13415   5.122   9.609   6.230 -0.1814  0.1711 -0.2650
  995YOPC   D2A13416   5.337   9.615   6.662  0.3158  0.3386  0.2350
  995YOPC   C3A13417   5.281   9.657   7.090 -0.3254 -0.2245 -0.1502
  995YOPC   C4A13418   5.409   9.462   7.537  0.3598 -0.1282 -0.1211
  995YOPC   C1B13419   5.466  10.033   6.319 -0.3588 -0.3816  0.0839
  995YOPC   C2B13420   5.507  10.122   6.715  0.1236  0.2241 -0.1219
  995YOPC   D3B13421   5.655   9.945   6.980  0.0294  0.1686 -0.2498
  995YOPC   C4B13422   5.938   9.809   7.361  0.1796 -0.4643 -0.2399
  996YOPC   NC313423  17.704   4.505   5.624  0.1339 -0.1399 -0.3241
  996YOPC   PO413424  17.288   4.489   5.540 -0.1179  0.0605  0.0834
  996YOPC   GL113425  17.117   4.626   5.902 -0.2079 -0.0698 -0.1825
  996YOPC   GL213426  17.178   5.011   5.955  0.1244 -0.0387 -0.0697
  996YOPC   C1A13427  16.846   4.695   6.324 -0.0753 -0.0804 -0.1465
  996YOPC   D2A13428  16.601   4.466   6.534 -0.1535  0.3026 -0.1914
  996YOPC   C3A13429  16.346   4.703   6.783 -0.0597  0.2108 -0.0783
  996YOPC   C4A13430  16.463   5.079   7.096 -0.0952 -0.1533 -0.2581
  996YOPC   C1B13431  17.249   4.987   6.452  0.1220  0.1953  0.0248
  996YOPC   C2B13432  17.302   5.026   6.957 -0.2125  0.1518  0.1269
  996YOPC   D3B13433  17.622   4.942   7.231 -0.2439  0.2440 -0.0706
  996YOPC   C4B13434  17.979   4.808   7.009  0.1645  0.2279  0.1390
  997YOPC   NC313435   1.675  13.419   5.439  0.1147  0.1453  0.0043
  997YOPC   PO413436   2.013  13.743   5.564  0.0384 -0.2218  0.0074
  997YOPC   GL113437   1.914  13.856   5.937  0.7988 -0.0959 -0.2314
  997YOPC   GL213438   2.178  14.165   5.948 -0.1357  0.0473  0.0223
  997YOPC   C1A13439   1.820  14.011   6.507  0.0199 -0.1275  0.0925
  997YOPC   D2A13440   1.717  14.289   6.827 -0.2815  0.3462  0.1628
  997YOPC   C3A13441   1.575  14.797   6.801  0.0433 -0.0372 -0.0088
  997YOPC   C4A13442   1.526  15.083   6.449  0.4309  0.0729 -0.0680
  997YOPC   C1B13443   2.231  14.237   6.395 -0.3859 -0.2098 -0.2641
  997YOPC   C2B13444   2.123  14.617   6.735 -0.3937 -0.0421  0.2001
  997YOPC   D3B13445   2.223  14.395   7.083 -0.1844  0.2309 -0.3327
  997YOPC   C4B13446   2.326  14.223   7.427  0.0870  0.1659  0.3659
  998YOPC   NC313447  18.890  11.601   5.293  0.2360 -0.2877 -0.1075
  998YOPC   PO413448  18.522  11.727   5.473  0.1292 -0.2453  0.2406
  998YOPC   GL113449  18.581  11.739   5.917  0.5597  0.1381  0.4022
  998YOPC   GL213450  18.388  12.063   5.997  0.0315 -0.0320  0.1756
  998YOPC   C1A13451  18.712  11.792   6.302  0.1570 -0.1419  0.0078
  998YOPC   D2A13452  18.598  11.667   6.770 -0.0539 -0.0712 -0.2738
  998YOPC   C3A13453  18.202  11.753   6.808  0.0646  0.2221 -0.3425
  998YOPC   C4A13454  18.082  11.748   7.286  0.1217 -0.0507 -0.2756
  998YOPC   C1B13455  18.294  12.124   6.396 -0.1520  0.0376 -0.0521
  998YOPC   C2B13456  18.561  12.144   6.682 -0.0685 -0.1943 -0.0723
  998YOPC   D3B13457  18.310  12.248   7.076 -0.0192  0.2009  0.1065
  998YOPC   C4B13458  18.285  12.560   7.317  0.1408  0.1200  0.0655
  999YOPC   NC313459   1.492  13.296   5.004 -0.0001  0.4810 -0.1206
  999YOPC   PO413460   1.199  13.229   5.326 -0.2119  0.2522  0.1044
  999YOPC   GL113461   1.391  13.126   5.776 -0.2696 -0.0036  0.2308
  999YOPC   GL213462   1.613  13.419   5.956 -0.1510  0.0483 -0.0871
  999YOPC   C1A13463   1.335  12.985   6.220  0.1123  0.0807  0.5060
  999YOPC   D2A13464   1.388  12.692   6.547 -0.1601 -0.0208  0.1452
  999YOPC   C3A13465   1.591  12.560   6.993  0.1311 -0.2046 -0.2109
  999YOPC   C4A13466   1.765  12.455   7.375  0.0306  0.4038 -0.1300
  999YOPC   C1B13467   1.718  13.401   6.264  0.1278  0.0566 -0.1734
  999YOPC   C2B13468   2.031  13.375   6.690  0.0046 -0.1403 -0.1685
  999YOPC   D3B13469   1.933  13.741   6.904 -0.3923 -0.2543  0.4073
  999YOPC   C4B13470   1.982  13.960   7.318  0.0154  0.1223  0.0425
 1000YOPC   NC313471  11.781   9.700   5.395 -0.0090  0.0693 -0.0596
 1000YOPC   PO413472  11.392   9.423   5.527  0.2496 -0.0790  0.2280
 1000YOPC   GL113473  11.338   9.380   5.950 -0.1897 -0.0404  0.0925
 1000YOPC   GL213474  11.075   9.212   6.034 -0.1445 -0.1496  0.1182
 1000YOPC   C1A13475  11.576   9.274   6.342 -0.1642 -0.1875  0.0897
 1000YOPC   D2A13476  11.604   9.048   6.769  0.2653  0.0366 -0.2431
 1000YOPC   C3A13477  12.007   9.179   6.832 -0.2774 -0.3378  0.1884
 1000YOPC   C4A13478  12.419   9.417   7.026 -0.3306  0.0473  0.0609
 1000YOPC   C1B13479  11.072   9.235   6.489 -0.0227 -0.1954 -0.0232
 1000YOPC   C2B13480  11.315   9.539   6.655  0.0721 -0.3471 -0.1073
 1000YOPC   D3B13481  11.620   9.470   7.028  0.2544 -0.0449 -0.2451
 1000YOPC   C4B13482  11.962   9.474   7.340 -0.0776 -0.2696  0.1312
 1001YOPC   NC313483   4.814   3.780   6.040 -0.1835 -0.1916 -0.2344
 1001YOPC   PO413484   5.041   3.936   5.716 -0.0026 -0.0093 -0.0205
 1001YOPC   GL113485   5.075   4.321   5.918 -0.0396 -0.1950  0.1267
 1001YOPC   GL213486   5.426   4.294   5.897 -0.1462  0.0506 -0.2362
 1001YOPC   C1A13487   5.068   4.478   6.312  0.1357 -0.0652  0.0967
 1001YOPC   D2A13488   4.909   4.654   6.491  0.0205 -0.1150 -0.0711
 1001YOPC   C3A13489   5.003   4.692   6.909  0.3319 -0.0614  0.1319
 1001YOPC   C4A13490   5.085   4.563   7.293  0.2684 -0.0179 -0.2799
 1001YOPC   C1B13491   5.553   4.410   6.293  0.0613 -0.1829 -0.2477
 1001YOPC   C2B13492   5.581   4.220   6.670  0.0416  0.0298  0.0550
 1001YOPC   D3B13493   5.503   3.793   6.595  0.1793 -0.1309 -0.1110
 1001YOPC   C4B13494   5.139   3.547   6.771  0.0166 -0.0885 -0.0258
 1002YOPC   NC313495  15.774   5.827   5.290 -0.1156  0.0139 -0.0546
 1002YOPC   PO413496  15.858   5.466   5.213  0.0894  0.2221 -0.0579
 1002YOPC   GL113497  15.681   5.459   5.585 -0.1765  0.2129  0.0762
 1002YOPC   GL213498  15.956   5.566   5.697 -0.0364  0.2751 -0.3143
 1002YOPC   C1A13499  15.544   5.244   5.964 -0.2902 -0.3094 -0.3051
 1002YOPC   D2A13500  15.517   4.974   6.251  0.1008 -0.0689  0.3315
 1002YOPC   C3A13501  15.749   5.032   6.612 -0.1223 -0.1230  0.0899
 1002YOPC   C4A13502  15.868   4.902   6.955 -0.1207 -0.1428  0.1211
 1002YOPC   C1B13503  15.996   5.874   6.054 -0.2617  0.3534  0.2693
 1002YOPC   C2B13504  15.856   6.193   6.344  0.1910  0.0042  0.2026
 1002YOPC   D3B13505  15.432   6.470   6.442 -0.1503  0.0511 -0.3760
 1002YOPC   C4B13506  15.179   6.485   6.791  0.1015  0.1090 -0.4056
 1003YOPC   NC313507  17.476  10.454   5.479 -0.3697  0.2714 -0.3450
 1003YOPC   PO413508  17.815  10.110   5.501  0.0943  0.1089  0.0538
 1003YOPC   GL113509  17.965  10.233   5.743  0.2184  0.1690 -0.2483
 1003YOPC   GL213510  17.764  10.487   5.912  0.0236 -0.1634 -0.1458
 1003YOPC   C1A13511  18.168   9.955   6.102 -0.3863 -0.1502  0.4867
 1003YOPC   D2A13512  18.026   9.695   6.341 -0.1724  0.0744  0.0896
 1003YOPC   C3A13513  18.034   9.877   6.753 -0.0889 -0.1122 -0.2239
 1003YOPC   C4A13514  18.458   9.879   7.083  0.0370  0.2093  0.2692
 1003YOPC   C1B13515  18.135  10.420   6.191  0.0768 -0.0594  0.1767
 1003YOPC   C2B13516  18.267  10.206   6.517  0.3107 -0.2707  0.0789
 1003YOPC   D3B13517  18.176  10.310   6.864  0.0835 -0.3620  0.1124
 1003YOPC   C4B13518  18.453  10.381   7.240 -0.3230  0.0815  0.0908
 1004YOPC   NC313519  10.512  12.178   4.808  0.0028 -0.2737 -0.0102
 1004YOPC   PO413520  10.396  11.893   5.233 -0.0354 -0.0383  0.1610
 1004YOPC   GL113521  10.190  11.902   5.682  0.3234 -0.3807 -0.2598
 1004YOPC   GL213522   9.904  11.881   5.697 -0.1442 -0.0097  0.0455
 1004YOPC   C1A13523  10.190  12.311   6.043  0.1310  0.1188  0.1159
 1004YOPC   D2A13524  10.422  12.649   6.264 -0.5618  0.3120  0.1366
 1004YOPC   C3A13525  10.316  12.630   6.642  0.0620  0.0093  0.0442
 1004YOPC   C4A13526  10.293  12.649   7.074 -0.1018 -0.0395 -0.1838
 1004YOPC   C1B13527   9.931  11.851   6.142  0.0290  0.2253 -0.2764
 1004YOPC   C2B13528   9.862  11.699   6.515 -0.0369 -0.1439  0.1530
 1004YOPC   D3B13529   9.616  12.031   6.771 -0.0648 -0.0210 -0.1747
 1004YOPC   C4B13530   9.455  12.202   7.140 -0.0568  0.1121  0.1322
 1005YOPC   NC313531  15.287   7.805   4.840 -0.0530  0.1786 -0.0155
 1005YOPC   PO413532  15.231   8.008   5.196 -0.1780  0.0121 -0.1038
 1005YOPC   GL113533  15.177   8.022   5.676 -0.0358  0.0165  0.0058
 1005YOPC   GL213534  14.876   8.111   5.796  0.1742 -0.0172  0.0198
 1005YOPC   C1A13535  15.251   8.106   6.124 -0.0596  0.1287  0.0552
 1005YOPC   D2A13536  15.382   8.448   6.351 -0.0015  0.4329  0.1166
 1005YOPC   C3A13537  15.245   8.873   6.109  0.1383 -0.1790 -0.0255
 1005YOPC   C4A13538  14.906   9.109   6.217 -0.0357 -0.1287  0.1844
 1005YOPC   C1B13539  14.793   8.079   6.329 -0.0649  0.2451 -0.0923
 1005YOPC   C2B13540  14.806   7.838   6.703 -0.0056 -0.3048  0.2848
 1005YOPC   D3B13541  14.851   7.916   7.063 -0.2029 -0.2343  0.1120
 1005YOPC   C4B13542  15.205   7.669   7.409  0.2132  0.3028  0.0213
 1006YOPC   NC313543   0.476  15.194   5.143  0.2163  0.2773 -0.3200
 1006YOPC   PO413544   0.813  15.453   5.222  0.2874  0.0549 -0.2362
 1006YOPC   GL113545   1.104  15.363   5.659 -0.4065  0.0079 -0.0186
 1006YOPC   GL213546   1.449  15.268   5.700 -0.3151  0.0778  0.0795
 1006YOPC   C1A13547   1.176  15.152   6.109 -0.0909  0.2963  0.1551
 1006YOPC   D2A13548   0.837  15.271   6.422 -0.0342  0.0233  0.1589
 1006YOPC   C3A13549   0.657  15.062   6.622 -0.1125  0.0917  0.2249
 1006YOPC   C4A13550   0.657  14.590   6.707  0.0065  0.2572 -0.5145
 1006YOPC   C1B13551   1.674  15.386   6.082 -0.0071  0.0400  0.5305
 1006YOPC   C2B13552   1.991  15.633   6.259  0.1342  0.0149 -0.1827
 1006YOPC   D3B13553   2.279  15.617   6.593  0.1089  0.1872 -0.0945
 1006YOPC   C4B13554   2.422  15.228   6.788  0.2576 -0.0173  0.2785
 1007YOPC   NC313555   4.372  13.239   4.940 -0.3037  0.0342 -0.1436
 1007YOPC   PO413556   3.919  13.106   4.837  0.0413 -0.0997  0.0170
 1007YOPC   GL113557   3.971  13.117   5.293 -0.2780 -0.1468  0.2057
 1007YOPC   GL213558   4.229  13.180   5.467 -0.1883 -0.0588  0.2650
 1007YOPC   C1A13559   3.786  13.133   5.671 -0.0521  0.3533  0.0382
 1007YOPC   D2A13560   3.435  13.164   5.913  0.1237 -0.3006  0.0038
 1007YOPC   C3A13561   3.167  13.436   6.098 -0.3478  0.2746  0.0903
 1007YOPC   C4A13562   2.944  13.387   6.492  0.0472  0.2103 -0.1105
 1007YOPC   C1B13563   4.466  13.113   5.812  0.1670 -0.1451 -0.1348
 1007YOPC   C2B13564   4.441  13.056   6.290  0.0461  0.1004 -0.1329
 1007YOPC   D3B13565   4.163  12.751   6.511  0.1487 -0.2413  0.0080
 1007YOPC   C4B13566   3.776  12.633   6.536  0.1029 -0.0311 -0.2193
 1008YOPC   NC313567  15.140   7.143   5.484  0.1741 -0.2529  0.0661
 1008YOPC   PO413568  15.488   6.932   5.291  0.1286 -0.2580 -0.1963
 1008YOPC   GL113569  15.583   6.777   5.763  0.0007 -0.0674 -0.0127
 1008YOPC   GL213570  15.775   6.490   5.824  0.2194 -0.1579  0.0808
 1008YOPC   C1A13571  15.357   6.758   6.059  0.0439 -0.0032  0.1719
 1008YOPC   D2A13572  15.006   6.849   6.396 -0.0392  0.1193  0.1702
 1008YOPC   C3A13573  14.934   7.044   6.748  0.1222 -0.0597 -0.0719
 1008YOPC   C4A13574  14.947   7.379   7.110  0.5072 -0.1772 -0.1384
 1008YOPC   C1B13575  16.188   6.389   6.050  0.1854 -0.3417 -0.2775
 1008YOPC   C2B13576  16.348   6.202   6.371  0.0372 -0.1840  0.3311
 1008YOPC   D3B13577  16.058   6.159   6.763 -0.0535  0.1085  0.0385
 1008YOPC   C4B13578  15.697   6.346   6.950  0.0798  0.0623 -0.1331
 1009YOPC   NC313579  15.241  15.539   5.509 -0.0035 -0.0308 -0.1670
 1009YOPC   PO413580  15.628  15.381   5.596  0.0084  0.0635  0.2488
 1009YOPC   GL113581  15.609  15.319   6.002  0.1321  0.0592 -0.0949
 1009YOPC   GL213582  15.881  15.419   6.124  0.0968  0.3309 -0.0502
 1009YOPC   C1A13583  15.260  15.366   6.354 -0.0379  0.0061 -0.2451
 1009YOPC   D2A13584  15.372  15.358   6.789 -0.1694 -0.2756  0.1236
 1009YOPC   C3A13585  15.245  14.973   6.959  0.0613 -0.0180  0.3707
 1009YOPC   C4A13586  15.102  15.012   7.366  0.1098  0.0152 -0.1509
 1009YOPC   C1B13587  15.857  15.326   6.491 -0.0968  0.0511  0.2913
 1009YOPC   C2B13588  16.108  15.221   6.734  0.2000 -0.1483 -0.2201
 1009YOPC   D3B13589  16.276  15.457   7.007  0.3041 -0.4986  0.1455
 1009YOPC   C4B13590  16.313  15.785   7.253 -0.0397  0.0561  0.0173
 1010YOPC   NC313591  15.385   8.981   5.514 -0.2049 -0.2294 -0.0700
 1010YOPC   PO413592  15.014   9.100   5.497  0.5005  0.1444 -0.0896
 1010YOPC   GL113593  15.158   9.299   5.862  0.1138 -0.1283 -0.3285
 1010YOPC   GL213594  15.504   9.466   5.795  0.3361  0.0440 -0.0308
 1010YOPC   C1A13595  15.050   9.570   6.329 -0.1257 -0.0042  0.1272
 1010YOPC   D2A13596  14.801   9.835   6.541  0.2008 -0.0902  0.1158
 1010YOPC   C3A13597  14.551  10.198   6.482  0.4693 -0.1539  0.0774
 1010YOPC   C4A13598  14.435  10.545   6.198  0.0048 -0.0582  0.0562
 1010YOPC   C1B13599  15.565   9.328   6.223 -0.0945  0.2469  0.3201
 1010YOPC   C2B13600  15.548   9.371   6.600 -0.1457  0.1565  0.2842
 1010YOPC   D3B13601  15.189   9.183   6.705  0.2407  0.2092  0.1071
 1010YOPC   C4B13602  15.087   9.054   7.103 -0.1388  0.2162 -0.0827
 1011YOPC   NC313603  15.421  14.062   5.581  0.1345 -0.3431  0.1805
 1011YOPC   PO413604  15.179  13.710   5.527 -0.2919  0.3214 -0.1814
 1011YOPC   GL113605  14.991  13.895   5.790  0.2312 -0.0421  0.1045
 1011YOPC   GL213606  14.978  14.199   5.848  0.3441  0.0633  0.1313
 1011YOPC   C1A13607  15.070  13.958   6.255  0.1791 -0.1882  0.2916
 1011YOPC   D2A13608  15.348  13.901   6.635 -0.2987  0.1639 -0.0639
 1011YOPC   C3A13609  15.319  13.635   6.989 -0.0399 -0.0607  0.1122
 1011YOPC   C4A13610  15.570  13.349   7.236 -0.1500  0.1845 -0.4261
 1011YOPC   C1B13611  14.496  14.255   5.945 -0.0528  0.1959  0.0401
 1011YOPC   C2B13612  14.191  14.417   6.046 -0.1506 -0.0272  0.2321
 1011YOPC   D3B13613  14.170  14.211   6.384  0.0063  0.0594 -0.0666
 1011YOPC   C4B13614  14.193  14.287   6.777 -0.2711 -0.3417 -0.3314
 1012YOPC   NC313615   1.477   9.144   5.528  0.1132  0.0946  0.0006
 1012YOPC   PO413616   1.362   9.539   5.656 -0.1894 -0.0139  0.1522
 1012YOPC   GL113617   1.421   9.733   6.022  0.0093  0.0395 -0.3097
 1012YOPC   GL213618   1.773   9.758   6.145  0.3461  0.4789 -0.2170
 1012YOPC   C1A13619   1.218   9.599   6.440 -0.0046 -0.1516 -0.1924
 1012YOPC   D2A13620   1.064   9.386   6.873  0.1081  0.1846  0.0719
 1012YOPC   C3A13621   1.358   9.058   6.832  0.0213  0.0047 -0.0214
 1012YOPC   C4A13622   1.374   8.841   6.385  0.2056 -0.0215  0.0580
 1012YOPC   C1B13623   2.086   9.729   6.394 -0.2000 -0.1027 -0.0200
 1012YOPC   C2B13624   2.239   9.693   6.743  0.2159 -0.2307 -0.0308
 1012YOPC   D3B13625   2.614   9.825   6.791  0.3318  0.0261  0.2206
 1012YOPC   C4B13626   2.842  10.196   6.740  0.2051 -0.1949 -0.0146
 1013YOPC   NC313627   6.279   3.560   5.490  0.0116 -0.1823 -0.3070
 1013YOPC   PO413628   6.597   3.228   5.717 -0.0683  0.0564 -0.0803
 1013YOPC   GL113629   6.657   3.148   6.154 -0.1531 -0.0545 -0.2899
 1013YOPC   GL213630   6.852   3.202   6.357  0.1842 -0.0968 -0.1117
 1013YOPC   C1A13631   6.397   3.142   6.556 -0.3071 -0.0908  0.3023
 1013YOPC   D2A13632   6.373   3.442   6.863 -0.0448 -0.1087 -0.2098
 1013YOPC   C3A13633   6.386   3.470   7.337  0.0459  0.2386  0.0350
 1013YOPC   C4A13634   6.076   3.348   7.626  0.4407 -0.2356 -0.2207
 1013YOPC   C1B13635   6.797   3.201   6.869 -0.0071 -0.0093 -0.2280
 1013YOPC   C2B13636   7.112   3.403   7.127  0.0803 -0.1874  0.1519
 1013YOPC   D3B13637   7.107   3.517   7.566  0.0040  0.0076 -0.0881
 1013YOPC   C4B13638   7.189   3.654   7.925  0.0277 -0.0378  0.5171
 1014YOPC   NC313639   7.289  13.614   5.395  0.2828 -0.2003 -0.0010
 1014YOPC   PO413640   7.778  13.716   5.453  0.0558 -0.4278 -0.1767
 1014YOPC   GL113641   7.683  13.595   5.913 -0.1035  0.1524  0.0186
 1014YOPC   GL213642   7.729  13.811   6.176 -0.1456  0.0630 -0.3250
 1014YOPC   C1A13643   7.730  13.282   6.177  0.3573  0.0545  0.0814
 1014YOPC   D2A13644   7.472  13.023   6.298  0.1464  0.2503  0.1326
 1014YOPC   C3A13645   7.414  12.946   6.694 -0.3393 -0.0390  0.2299
 1014YOPC   C4A13646   7.647  12.629   6.895  0.2024 -0.3558  0.1610
 1014YOPC   C1B13647   7.974  13.552   6.499 -0.0978 -0.1564 -0.0226
 1014YOPC   C2B13648   8.123  13.445   6.842 -0.3001  0.3334 -0.2478
 1014YOPC   D3B13649   8.054  13.539   7.258  0.0599  0.1746  0.1452
 1014YOPC   C4B13650   7.925  13.326   7.660 -0.1091 -0.0023  0.3292
 1015YOPC   NC313651  13.164   8.345   5.546  0.1593  0.0409 -0.1741
 1015YOPC   PO413652  13.525   8.215   5.509  0.2143  0.4004  0.0510
 1015YOPC   GL113653  13.436   8.188   5.892  0.0266 -0.3167 -0.2285
 1015YOPC   GL213654  13.777   8.180   6.016 -0.2334 -0.2700  0.2311
 1015YOPC   C1A13655  13.415   8.070   6.306  0.0254  0.0025 -0.1551
 1015YOPC   D2A13656  13.483   7.999   6.727 -0.2601 -0.2469  0.2869
 1015YOPC   C3A13657  13.885   8.116   6.909  0.4334  0.2075  0.1601
 1015YOPC   C4A13658  13.999   8.223   7.290 -0.3548  0.2732 -0.2201
 1015YOPC   C1B13659  13.878   7.816   6.334  0.2068  0.1298 -0.2262
 1015YOPC   C2B13660  13.992   7.437   6.484  0.2881 -0.2597 -0.1908
 1015YOPC   D3B13661  13.984   7.355   6.890 -0.1536 -0.0136  0.1240
 1015YOPC   C4B13662  13.973   7.126   7.262 -0.0617  0.2474 -0.0015
 1016YOPC   NC313663   1.056  16.568   4.793 -0.1085  0.3038  0.1968
 1016YOPC   PO413664   0.978  16.410   5.279  0.3213 -0.0945  0.2207
 1016YOPC   GL113665   1.178  16.537   5.684 -0.2341  0.0243  0.1755
 1016YOPC   GL213666   0.984  16.781   5.692 -0.2131 -0.1233 -0.1579
 1016YOPC   C1A13667   1.017  16.473   6.043  0.0728 -0.0590 -0.0998
 1016YOPC   D2A13668   1.099  16.114   6.405  0.1408  0.0928 -0.1342
 1016YOPC   C3A13669   1.020  15.931   6.763  0.1576  0.3198  0.2394
 1016YOPC   C4A13670   0.934  15.868   7.107 -0.0629 -0.1477  0.1682
 1016YOPC   C1B13671   0.742  16.869   6.013 -0.0251  0.0668 -0.2323
 1016YOPC   C2B13672   0.800  16.775   6.432  0.0551  0.0766 -0.2741
 1016YOPC   D3B13673   0.495  16.792   6.881  0.2240  0.1386  0.3198
 1016YOPC   C4B13674   0.062  16.548   6.935  0.1984 -0.1759 -0.0189
 1017YOPC   NC313675   6.853   2.887   5.520  0.1407  0.1258  0.1655
 1017YOPC   PO413676   6.962   2.815   5.857 -0.1847 -0.0643 -0.0870
 1017YOPC   GL113677   6.711   2.611   6.221  0.0282  0.0302  0.0179
 1017YOPC   GL213678   6.608   2.235   6.170 -0.0118 -0.1032  0.2626
 1017YOPC   C1A13679   6.929   2.766   6.648 -0.0998  0.0615 -0.0219
 1017YOPC   D2A13680   7.149   2.881   7.113  0.1075  0.0497 -0.5047
 1017YOPC   C3A13681   7.532   3.192   7.089 -0.0563 -0.0116 -0.0295
 1017YOPC   C4A13682   7.971   3.339   7.025  0.1252  0.2702 -0.2127
 1017YOPC   C1B13683   6.348   1.984   6.456  0.0619 -0.0951  0.2644
 1017YOPC   C2B13684   6.727   1.887   6.651 -0.1208 -0.0890  0.0464
 1017YOPC   D3B13685   6.984   2.272   6.617  0.2475 -0.0691  0.1724
 1017YOPC   C4B13686   7.185   2.420   6.949  0.4495  0.0824  0.2088
 1018YOPC   NC313687   3.155   9.395   5.487  0.1609 -0.1075  0.1602
 1018YOPC   PO413688   3.456   9.095   5.465 -0.0265 -0.1179 -0.0131
 1018YOPC   GL113689   3.475   8.970   5.853 -0.0892 -0.2412 -0.0829
 1018YOPC   GL213690   3.279   8.696   5.918  0.0724 -0.1423 -0.0843
 1018YOPC   C1A13691   3.549   8.940   6.339 -0.0015  0.0714 -0.1273
 1018YOPC   D2A13692   3.518   8.910   6.776 -0.0403 -0.1129 -0.0297
 1018YOPC   C3A13693   3.058   8.846   6.922 -0.1311  0.2264 -0.2810
 1018YOPC   C4A13694   2.918   8.876   7.353  0.1583  0.3383  0.0917
 1018YOPC   C1B13695   3.027   8.879   6.314 -0.0681 -0.1127  0.1288
 1018YOPC   C2B13696   2.867   9.127   6.534  0.2399 -0.1496 -0.2737
 1018YOPC   D3B13697   2.763   9.281   6.913 -0.2547 -0.2602 -0.0125
 1018YOPC   C4B13698   2.932   9.363   7.283  0.1071 -0.1495  0.2264
 1019YOPC   NC313699  16.438   4.029   5.199 -0.0511  0.2105  0.0962
 1019YOPC   PO413700  16.851   3.790   5.322 -0.1122  0.1960 -0.0069
 1019YOPC   GL113701  17.049   3.777   5.768  0.3506 -0.1282 -0.4407
 1019YOPC   GL213702  17.079   3.447   5.822  0.0008 -0.0762  0.0332
 1019YOPC   C1A13703  16.795   3.654   6.241  0.1259 -0.0750  0.1933
 1019YOPC   D2A13704  16.597   3.571   6.572 -0.1382 -0.2595  0.1891
 1019YOPC   C3A13705  16.724   3.317   7.129  0.2119 -0.1734  0.1023
 1019YOPC   C4A13706  16.575   3.287   7.562  0.2109 -0.1229 -0.2835
 1019YOPC   C1B13707  17.048   3.103   6.078  0.0753 -0.1081  0.2169
 1019YOPC   C2B13708  16.946   3.189   6.491  0.0566 -0.1066  0.1668
 1019YOPC   D3B13709  16.826   2.940   6.796  0.1125  0.0567  0.1168
 1019YOPC   C4B13710  16.549   2.819   7.121  0.4867  0.2455  0.0898
 1020YOPC   NC313711   5.901  17.737   6.032 -0.2447  0.0639 -0.2688
 1020YOPC   PO413712   5.839  18.173   5.868  0.1692 -0.1632 -0.1280
 1020YOPC   GL113713   5.910  18.229   6.238 -0.0538  0.0488  0.1896
 1020YOPC   GL213714   5.694  18.208   6.453  0.2738 -0.0127  0.0967
 1020YOPC   C1A13715   6.203  18.059   6.612  0.2887  0.0007 -0.0259
 1020YOPC   D2A13716   6.180  17.974   7.019  0.0431  0.0345 -0.0109
 1020YOPC   C3A13717   5.906  18.054   7.369 -0.2137 -0.4124  0.2247
 1020YOPC   C4A13718   5.871  17.899   7.736 -0.1167  0.0473  0.2084
 1020YOPC   C1B13719   5.652  17.994   6.893  0.1040 -0.1697 -0.0274
 1020YOPC   C2B13720   5.484  17.858   7.333 -0.2941  0.1718  0.1268
 1020YOPC   D3B13721   5.624  17.521   7.594  0.0347  0.0755  0.2546
 1020YOPC   C4B13722   5.438  17.322   7.892 -0.0461  0.1733  0.2412
 1021YOPC   NC313723   3.170   2.516   5.779  0.2692 -0.3218 -0.1819
 1021YOPC   PO413724   3.681   2.519   5.808  0.0694  0.0208 -0.1627
 1021YOPC   GL113725   3.607   2.560   6.235  0.1134 -0.3367 -0.1844
 1021YOPC   GL213726   3.383   2.382   6.197  0.1446 -0.5659 -0.3939
 1021YOPC   C1A13727   3.792   2.383   6.639  0.3727  0.1586 -0.0514
 1021YOPC   D2A13728   3.868   1.992   6.875  0.0578 -0.0734  0.1679
 1021YOPC   C3A13729   3.723   2.000   7.260 -0.1264 -0.0700  0.1175
 1021YOPC   C4A13730   3.623   1.766   7.549  0.0370  0.3094 -0.0186
 1021YOPC   C1B13731   3.069   2.260   6.347  0.0214  0.0428 -0.0854
 1021YOPC   C2B13732   2.976   1.943   6.667  0.2633  0.0053 -0.0493
 1021YOPC   D3B13733   2.785   2.253   7.057 -0.1842 -0.0754  0.0454
 1021YOPC   C4B13734   2.896   2.443   7.579  0.1574  0.4737  0.3634
 1022YOPC   NC313735  18.991   9.257   5.560  0.1131 -0.0112  0.1311
 1022YOPC   PO413736  19.165   9.594   5.557 -0.2896 -0.0363 -0.3582
 1022YOPC   GL113737  19.257   9.430   5.969  0.0386 -0.4571  0.2119
 1022YOPC   GL213738  19.082   9.472   6.149 -0.1255  0.2291  0.0201
 1022YOPC   C1A13739  19.537   9.166   6.219 -0.1900 -0.3698  0.4319
 1022YOPC   D2A13740  19.529   8.718   6.277  0.2427 -0.0113 -0.5267
 1022YOPC   C3A13741  19.447   8.577   6.665  0.1719 -0.0415 -0.1359
 1022YOPC   C4A13742  19.335   8.340   7.055 -0.1583 -0.3518 -0.2126
 1022YOPC   C1B13743  19.127   9.335   6.424 -0.3605  0.2513 -0.2336
 1022YOPC   C2B13744  19.454   9.225   6.759  0.3965  0.0605  0.0609
 1022YOPC   D3B13745  19.711   9.416   6.584 -0.0564  0.0515 -0.1177
 1022YOPC   C4B13746  19.804   9.697   6.293  0.0293  0.0241  0.0661
 1023YOPC   NC313747  10.966  13.915   5.372 -0.1452 -0.3091  0.0151
 1023YOPC   PO413748  10.492  13.921   5.420 -0.3726 -0.1129  0.0673
 1023YOPC   GL113749  10.325  13.805   5.782  0.1352  0.0859 -0.0472
 1023YOPC   GL213750  10.327  14.128   5.830 -0.0897  0.2005  0.4022
 1023YOPC   C1A13751  10.362  13.648   6.247 -0.0197 -0.2149 -0.0126
 1023YOPC   D2A13752  10.369  13.476   6.610 -0.0862  0.0905  0.1480
 1023YOPC   C3A13753  10.107  13.514   6.909  0.1915 -0.0928 -0.3168
 1023YOPC   C4A13754   9.935  13.515   7.277  0.2554 -0.2441 -0.0481
 1023YOPC   C1B13755  10.646  14.111   6.181  0.2217 -0.4746 -0.1079
 1023YOPC   C2B13756  10.671  13.906   6.653  0.0186  0.1476 -0.0069
 1023YOPC   D3B13757  10.389  13.936   6.996  0.0144  0.0392  0.0751
 1023YOPC   C4B13758  10.347  13.767   7.456 -0.2789 -0.1165 -0.2166
 1024YOPC   NC313759   6.779   0.226   5.724  0.2541  0.5046  0.1532
 1024YOPC   PO413760   6.366   0.247   5.912 -0.1733  0.0703 -0.6280
 1024YOPC   GL113761   6.716   0.309   6.240  0.0293 -0.1592  0.2700
 1024YOPC   GL213762   6.604   0.581   6.246  0.0058 -0.1501 -0.2259
 1024YOPC   C1A13763   7.068   0.167   6.619 -0.1736 -0.3076  0.2538
 1024YOPC   D2A13764   7.131  -0.103   6.905 -0.0327  0.3112 -0.1126
 1024YOPC   C3A13765   7.346  -0.017   7.171 -0.1892  0.0189  0.0563
 1024YOPC   C4A13766   7.682   0.241   7.116  0.4265  0.0269 -0.0434
 1024YOPC   C1B13767   6.784   0.576   6.684  0.0304 -0.0652 -0.1811
 1024YOPC   C2B13768   6.601   0.525   7.113 -0.1284  0.3924 -0.2703
 1024YOPC   D3B13769   6.807   0.752   7.403  0.1408  0.0233  0.0632
 1024YOPC   C4B13770   6.535   0.835   7.741  0.3749 -0.0161 -0.1789
 1025YOPC   NC313771  12.375  10.875   5.533 -0.2080 -0.1190 -0.0397
 1025YOPC   PO413772  12.020  10.714   5.599  0.3973 -0.0313 -0.0229
 1025YOPC   GL113773  11.976  10.905   5.966  0.0089 -0.2195  0.0960
 1025YOPC   GL213774  12.267  11.081   5.935 -0.4282 -0.2268  0.0439
 1025YOPC   C1A13775  12.032  10.807   6.331  0.0902  0.4664  0.0568
 1025YOPC   D2A13776  11.977  10.679   6.794  0.3178  0.0533  0.1873
 1025YOPC   C3A13777  11.892  10.235   6.927 -0.1837  0.3052 -0.4155
 1025YOPC   C4A13778  11.746  10.196   7.251  0.1367 -0.1750 -0.0719
 1025YOPC   C1B13779  12.491  11.537   6.042  0.1713  0.0038  0.0498
 1025YOPC   C2B13780  12.456  11.718   6.399 -0.0548 -0.0396  0.3344
 1025YOPC   D3B13781  12.624  11.572   6.752 -0.2550 -0.1805 -0.3162
 1025YOPC   C4B13782  12.687  11.264   6.946  0.2421 -0.1415 -0.3843
 1026YOPC   NC313783   3.430   7.224   5.523  0.0653  0.4506  0.2268
 1026YOPC   PO413784   3.472   6.871   5.768  0.0167 -0.3666 -0.1216
 1026YOPC   GL113785   3.803   6.732   6.079 -0.1048 -0.1598  0.1081
 1026YOPC   GL213786   3.597   6.875   6.311 -0.0435  0.0188  0.0553
 1026YOPC   C1A13787   4.036   6.463   6.305 -0.0987 -0.1043 -0.1343
 1026YOPC   D2A13788   4.216   6.091   6.558 -0.1615  0.1057 -0.0275
 1026YOPC   C3A13789   4.429   5.977   6.865  0.0397  0.3253 -0.1326
 1026YOPC   C4A13790   4.676   5.820   7.221 -0.0925  0.0601  0.0844
 1026YOPC   C1B13791   3.693   6.584   6.635  0.1244  0.3406  0.1056
 1026YOPC   C2B13792   3.995   6.399   6.936  0.0859 -0.2008 -0.2525
 1026YOPC   D3B13793   3.934   6.024   7.131  0.1137 -0.0895 -0.1104
 1026YOPC   C4B13794   4.260   5.983   7.560  0.1012 -0.2584  0.1377
 1027YOPC   NC313795   9.592   5.418   5.179  0.1613  0.2157 -0.0050
 1027YOPC   PO413796   9.942   5.157   5.413  0.3351  0.0120 -0.0662
 1027YOPC   GL113797   9.888   5.341   5.806 -0.1661  0.0232 -0.0273
 1027YOPC   GL213798  10.275   5.460   5.806  0.1916  0.0386 -0.0033
 1027YOPC   C1A13799   9.924   5.378   6.248  0.0986  0.1006  0.2254
 1027YOPC   D2A13800   9.618   5.179   6.500 -0.0322  0.2359  0.0070
 1027YOPC   C3A13801   9.462   5.069   6.972  0.2933 -0.1007 -0.0130
 1027YOPC   C4A13802   9.144   5.210   7.301 -0.2275 -0.1827 -0.2458
 1027YOPC   C1B13803  10.387   5.090   6.139  0.1234 -0.4193 -0.1268
 1027YOPC   C2B13804  10.590   5.173   6.540 -0.0011 -0.5558  0.1855
 1027YOPC   D3B13805  10.388   5.493   6.795  0.2279 -0.0452  0.2411
 1027YOPC   C4B13806  10.467   5.624   7.151  0.1420 -0.1644  0.0477
 1028YOPC   NC313807   2.890  17.422   5.841 -0.2716 -0.1927 -0.0054
 1028YOPC   PO413808   3.070  17.034   6.065 -0.0071  0.2028  0.1919
 1028YOPC   GL113809   3.260  17.030   6.463  0.0421  0.1764  0.0124
 1028YOPC   GL213810   3.587  17.202   6.577 -0.2852 -0.2765  0.4848
 1028YOPC   C1A13811   3.179  17.143   6.969 -0.0625 -0.1062  0.3129
 1028YOPC   D2A13812   3.072  17.000   7.351  0.1568 -0.4341  0.3147
 1028YOPC   C3A13813   3.066  17.369   7.769  0.0847  0.1054 -0.0809
 1028YOPC   C4A13814   3.068  17.818   7.994 -0.1625  0.0612 -0.3517
 1028YOPC   C1B13815   3.797  17.116   7.037  0.3381 -0.0270  0.1382
 1028YOPC   C2B13816   3.838  16.866   7.328  0.2303  0.0440 -0.6195
 1028YOPC   D3B13817   3.426  16.503   7.357 -0.1404 -0.0512  0.1072
 1028YOPC   C4B13818   3.078  16.648   7.036 -0.0881 -0.0949  0.1061
 1029YOPC   NC313819  15.443  17.171   5.541 -0.2047 -0.2121 -0.3560
 1029YOPC   PO413820  15.343  16.706   5.386  0.1230  0.0440  0.0124
 1029YOPC   GL113821  15.617  16.805   5.784  0.1684 -0.2358  0.0002
 1029YOPC   GL213822  15.380  16.716   5.942  0.4939 -0.0833 -0.0768
 1029YOPC   C1A13823  15.656  16.979   6.310  0.0292 -0.1243 -0.1087
 1029YOPC   D2A13824  15.893  17.117   6.797 -0.0762 -0.2056  0.0766
 1029YOPC   C3A13825  15.660  17.008   7.165 -0.0549 -0.1087  0.2127
 1029YOPC   C4A13826  15.829  16.768   7.603 -0.0544  0.0485  0.2256
 1029YOPC   C1B13827  15.178  16.904   6.271  0.2511  0.0680 -0.3517
 1029YOPC   C2B13828  15.057  17.239   6.515 -0.0206  0.3271 -0.0593
 1029YOPC   D3B13829  15.180  17.261   6.980  0.1506 -0.2232  0.1205
 1029YOPC   C4B13830  15.201  17.185   7.449 -0.0517  0.2261  0.0435
 1030YOPC   NC313831  12.357  16.402   5.805  0.0583 -0.0254 -0.0126
 1030YOPC   PO413832  12.026  16.566   5.661  0.1404 -0.0933 -0.3366
 1030YOPC   GL113833  12.017  16.608   6.104  0.3062  0.0267  0.0630
 1030YOPC   GL213834  11.822  16.923   6.132 -0.0255 -0.1193 -0.1610
 1030YOPC   C1A13835  11.790  16.641   6.544 -0.1032 -0.4637  0.1260
 1030YOPC   D2A13836  11.674  16.795   7.022 -0.5328  0.1443 -0.1415
 1030YOPC   C3A13837  12.061  16.957   7.345 -0.0862  0.1705 -0.0697
 1030YOPC   C4A13838  12.357  16.715   7.629  0.1907 -0.2367  0.0416
 1030YOPC   C1B13839  11.987  17.119   6.472 -0.0012 -0.0115  0.1173
 1030YOPC   C2B13840  12.150  17.097   6.848 -0.1583  0.0100  0.2462
 1030YOPC   D3B13841  12.242  17.443   7.041  0.0316 -0.0778 -0.1197
 1030YOPC   C4B13842  12.352  17.774   6.854  0.1313 -0.0248  0.2208
 1031YOPC   NC313843  18.108   2.300   5.275  0.2344  0.1672 -0.1083
 1031YOPC   PO413844  18.005   1.792   5.316  0.0159 -0.1137  0.0310
 1031YOPC   GL113845  18.305   1.718   5.665 -0.2050 -0.0542 -0.0225
 1031YOPC   GL213846  18.347   1.327   5.669 -0.1733  0.1426 -0.2094
 1031YOPC   C1A13847  18.638   1.530   6.048 -0.0645 -0.6508 -0.0266
 1031YOPC   D2A13848  18.921   1.715   6.447  0.0061 -0.0745 -0.0096
 1031YOPC   C3A13849  18.851   1.603   6.856  0.2910  0.1398 -0.0893
 1031YOPC   C4A13850  18.883   1.440   7.327  0.0726  0.0207  0.2586
 1031YOPC   C1B13851  18.212   1.260   6.053  0.2676 -0.1799 -0.1912
 1031YOPC   C2B13852  18.171   1.284   6.552 -0.1878  0.0374 -0.0400
 1031YOPC   D3B13853  18.324   1.268   6.891 -0.1642 -0.0341 -0.0341
 1031YOPC   C4B13854  18.634   1.064   7.081 -0.1741  0.2338 -0.1036
 1032YOPC   NC313855  12.897  11.503   5.083 -0.0509 -0.2985  0.0899
 1032YOPC   PO413856  12.927  11.691   5.526  0.2867  0.0249  0.0491
 1032YOPC   GL113857  12.736  11.985   5.918 -0.3079  0.0889  0.1951
 1032YOPC   GL213858  12.846  11.961   6.210  0.0000 -0.5111 -0.3355
 1032YOPC   C1A13859  12.413  12.176   6.224  0.3674  0.1421  0.0209
 1032YOPC   D2A13860  12.476  12.196   6.574 -0.0247  0.0633 -0.0567
 1032YOPC   C3A13861  12.310  12.398   6.930 -0.0449  0.1581  0.0216
 1032YOPC   C4A13862  12.447  12.320   7.337  0.0856  0.0342  0.4065
 1032YOPC   C1B13863  12.931  12.032   6.706  0.0210 -0.1640 -0.4079
 1032YOPC   C2B13864  12.627  11.988   7.047 -0.0263 -0.1472 -0.2105
 1032YOPC   D3B13865  12.922  12.103   7.359 -0.3152 -0.0070  0.0400
 1032YOPC   C4B13866  13.162  12.337   7.640  0.4419  0.0583 -0.1017
 1033YOPC   NC313867   8.713  10.964   5.565 -0.1367  0.0294  0.1183
 1033YOPC   PO413868   8.803  11.393   5.587 -0.0429 -0.2085 -0.3023
 1033YOPC   GL113869   8.505  11.531   5.858 -0.2044  0.2329  0.0604
 1033YOPC   GL213870   8.359  11.190   5.964 -0.2267 -0.1558 -0.1073
 1033YOPC   C1A13871   8.447  11.670   6.219 -0.0937 -0.0296  0.2129
 1033YOPC   D2A13872   8.232  11.812   6.590 -0.3707  0.1187  0.0842
 1033YOPC   C3A13873   8.360  11.665   7.065 -0.0851  0.1242 -0.1776
 1033YOPC   C4A13874   8.068  11.443   7.352 -0.1869 -0.1577  0.2844
 1033YOPC   C1B13875   8.553  11.104   6.389  0.6241 -0.1536  0.1603
 1033YOPC   C2B13876   8.477  10.891   6.768 -0.0031  0.2585 -0.0735
 1033YOPC   D3B13877   8.527  11.216   7.082 -0.4113  0.0019 -0.1755
 1033YOPC   C4B13878   8.785  11.441   7.325 -0.1536  0.0012 -0.0400
 1034YOPC   NC313879  15.193  11.570   5.122  0.0219 -0.0297 -0.3285
 1034YOPC   PO413880  14.879  11.751   5.417  0.0434  0.4813  0.0315
 1034YOPC   GL113881  14.865  11.869   5.764  0.1163  0.0720 -0.0780
 1034YOPC   GL213882  15.164  11.922   5.829 -0.1144  0.0162  0.0700
 1034YOPC   C1A13883  14.918  11.552   6.094  0.3096 -0.1772 -0.0621
 1034YOPC   D2A13884  14.929  11.236   6.344 -0.0847 -0.0841 -0.1585
 1034YOPC   C3A13885  14.815  11.331   6.762  0.3854 -0.0304 -0.2067
 1034YOPC   C4A13886  14.805  11.529   7.128  0.1343 -0.1078 -0.0309
 1034YOPC   C1B13887  15.059  12.001   6.250 -0.0682 -0.0711 -0.1762
 1034YOPC   C2B13888  15.293  11.988   6.626 -0.1447 -0.0811 -0.0561
 1034YOPC   D3B13889  15.132  12.157   7.063  0.3079 -0.1227 -0.2305
 1034YOPC   C4B13890  15.059  12.453   7.380  0.0607  0.2633 -0.1015
 1035YOPC   NC313891   0.390  11.804   5.242  0.3557  0.2314  0.0249
 1035YOPC   PO413892   0.676  11.462   5.373 -0.1425 -0.4625 -0.0502
 1035YOPC   GL113893   0.867  11.276   5.677 -0.1795  0.3325 -0.3875
 1035YOPC   GL213894   0.665  11.383   5.890  0.0764 -0.0787 -0.2821
 1035YOPC   C1A13895   0.920  10.929   6.091 -0.1799  0.0182  0.1998
 1035YOPC   D2A13896   0.907  10.912   6.580 -0.2957 -0.1339  0.2174
 1035YOPC   C3A13897   0.698  10.528   6.901  0.1123 -0.1330  0.0035
 1035YOPC   C4A13898   0.636  10.160   7.040  0.2550  0.0848 -0.0406
 1035YOPC   C1B13899   0.618  11.284   6.243 -0.2393  0.4922 -0.0710
 1035YOPC   C2B13900   0.455  11.143   6.591  0.0348 -0.2315  0.1123
 1035YOPC   D3B13901   0.380  11.125   7.099 -0.2046  0.2720 -0.2080
 1035YOPC   C4B13902   0.367  11.097   7.563 -0.1959  0.0839  0.1512
 1036YOPC   NC313903   1.851   7.267   5.449  0.1636 -0.4093 -0.2218
 1036YOPC   PO413904   2.142   7.579   5.543  0.0649 -0.2907 -0.0757
 1036YOPC   GL113905   1.791   7.716   5.783  0.4166 -0.1979  0.1358
 1036YOPC   GL213906   1.589   7.952   5.806  0.1566  0.2191 -0.0516
 1036YOPC   C1A13907   1.498   7.693   6.209  0.1723  0.0864 -0.2452
 1036YOPC   D2A13908   1.319   7.939   6.462  0.3868  0.1527 -0.4413
 1036YOPC   C3A13909   1.094   7.690   6.708 -0.0015 -0.3192  0.1896
 1036YOPC   C4A13910   0.986   7.621   7.007  0.0498 -0.0318 -0.2812
 1036YOPC   C1B13911   1.177   8.069   5.930 -0.1905  0.1194  0.0838
 1036YOPC   C2B13912   0.781   8.090   5.882  0.1493  0.0090 -0.0043
 1036YOPC   D3B13913   0.452   8.420   5.895  0.0000  0.1923  0.2040
 1036YOPC   C4B13914   0.052   8.441   6.193  0.2729  0.0775 -0.0030
 1037YOPC   NC313915   0.490  10.973   5.564  0.1790 -0.1659  0.2317
 1037YOPC   PO413916   0.254  11.292   5.574  0.0452 -0.0771  0.0684
 1037YOPC   GL113917   0.157  11.471   6.034 -0.4602 -0.0553 -0.1548
 1037YOPC   GL213918   0.358  11.735   6.105 -0.2232  0.0399 -0.0220
 1037YOPC   C1A13919   0.056  11.501   6.440  0.2570 -0.0628  0.4056
 1037YOPC   D2A13920   0.011  11.684   6.897 -0.0332 -0.2685  0.2293
 1037YOPC   C3A13921   0.119  11.521   7.303  0.2212 -0.0893 -0.0259
 1037YOPC   C4A13922  -0.105  11.738   7.640  0.1201 -0.0228 -0.0043
 1037YOPC   C1B13923   0.495  11.975   6.428  0.1337 -0.2964  0.2163
 1037YOPC   C2B13924   0.777  12.148   6.784  0.0693  0.0415 -0.4628
 1037YOPC   D3B13925   0.763  12.037   7.315  0.0972 -0.3961 -0.2416
 1037YOPC   C4B13926   0.654  11.824   7.759  0.1538 -0.1415 -0.0153
 1038YOPC   NC313927  14.245   8.821   5.636  0.0376 -0.2491  0.0090
 1038YOPC   PO413928  13.822   8.992   5.496  0.1017 -0.1574  0.2127
 1038YOPC   GL113929  13.822   9.099   5.899 -0.3069 -0.2416 -0.0092
 1038YOPC   GL213930  13.962   8.814   6.031  0.1391 -0.1223  0.0217
 1038YOPC   C1A13931  13.934   9.184   6.374  0.2441  0.0904  0.1197
 1038YOPC   D2A13932  13.960   9.146   6.785 -0.0225  0.0334  0.0265
 1038YOPC   C3A13933  14.296   9.301   6.878 -0.0649  0.1659 -0.4084
 1038YOPC   C4A13934  14.713   9.429   6.856  0.1377  0.0300  0.2647
 1038YOPC   C1B13935  14.073   8.727   6.504 -0.2506  0.2409 -0.1222
 1038YOPC   C2B13936  14.145   8.650   7.006 -0.0301  0.0378  0.0336
 1038YOPC   D3B13937  14.387   9.037   7.298 -0.0850  0.0123  0.0347
 1038YOPC   C4B13938  14.719   9.236   7.417 -0.0814 -0.2975  0.0848
 1039YOPC   NC313939  18.062   3.730   5.368  0.0183  0.1204  0.2237
 1039YOPC   PO413940  17.980   4.077   5.614  0.1149 -0.3043 -0.0337
 1039YOPC   GL113941  17.958   4.017   5.937 -0.3814  0.1427  0.1934
 1039YOPC   GL213942  17.915   3.606   5.997 -0.0370 -0.0425 -0.1695
 1039YOPC   C1A13943  17.800   4.052   6.343  0.2293 -0.1314 -0.2786
 1039YOPC   D2A13944  17.602   4.173   6.765 -0.4214  0.1777  0.0927
 1039YOPC   C3A13945  17.276   3.977   6.897 -0.0942  0.0855  0.1600
 1039YOPC   C4A13946  16.990   3.739   7.180  0.1297  0.2902  0.0511
 1039YOPC   C1B13947  17.840   3.495   6.370 -0.3242 -0.3491 -0.1014
 1039YOPC   C2B13948  17.730   3.701   6.732  0.2021 -0.0338  0.1831
 1039YOPC   D3B13949  17.943   3.553   7.025  0.4648 -0.0962 -0.0007
 1039YOPC   C4B13950  18.387   3.398   7.184 -0.0214  0.1829 -0.0339
 1040YOPC   NC313951  18.429   0.191   5.197 -0.1764 -0.0714  0.0126
 1040YOPC   PO413952  18.752   0.579   5.117 -0.0161  0.0819 -0.2695
 1040YOPC   GL113953  18.656   0.556   5.502 -0.0105 -0.1471 -0.1937
 1040YOPC   GL213954  18.778   0.383   5.674 -0.0259  0.1449  0.1762
 1040YOPC   C1A13955  18.411   0.782   5.720 -0.4368 -0.0910 -0.1604
 1040YOPC   D2A13956  18.104   0.621   5.995  0.0429 -0.0384  0.1133
 1040YOPC   C3A13957  18.174   0.518   6.416  0.2699  0.3581 -0.0037
 1040YOPC   C4A13958  18.023   0.396   6.890  0.1904  0.2501  0.1324
 1040YOPC   C1B13959  18.912   0.532   5.984  0.1550  0.0506  0.0745
 1040YOPC   C2B13960  18.870   0.586   6.470  0.1205  0.0046 -0.0004
 1040YOPC   D3B13961  18.864   0.983   6.678 -0.3222 -0.2117  0.0123
 1040YOPC   C4B13962  18.703   1.265   6.480 -0.2131  0.0266 -0.1921
 1041YOPC   NC313963   7.669  17.438   5.135 -0.2000  0.0266  0.4043
 1041YOPC   PO413964   7.742  17.123   5.503  0.0004  0.5231  0.5675
 1041YOPC   GL113965   8.061  17.234   5.821 -0.2787 -0.0614  0.0940
 1041YOPC   GL213966   7.951  17.343   6.214 -0.2191 -0.0742 -0.0443
 1041YOPC   C1A13967   8.445  17.261   6.076  0.1012  0.0149  0.1690
 1041YOPC   D2A13968   8.683  17.390   6.356  0.0177  0.1662  0.0327
 1041YOPC   C3A13969   8.792  17.113   6.637 -0.4382 -0.0269 -0.1908
 1041YOPC   C4A13970   9.138  17.170   6.929  0.2215 -0.0394  0.1039
 1041YOPC   C1B13971   8.183  17.372   6.603 -0.1454 -0.2158 -0.0115
 1041YOPC   C2B13972   8.513  17.493   6.838 -0.4337  0.1487 -0.2050
 1041YOPC   D3B13973   8.850  17.439   7.149 -0.0643 -0.0764 -0.0102
 1041YOPC   C4B13974   9.118  17.470   7.579  0.1016  0.0812  0.2491
 1042YOPC   NC313975  13.450   4.066   5.606  0.1668  0.0195  0.3966
 1042YOPC   PO413976  13.414   3.563   5.468 -0.1415  0.2178  0.0197
 1042YOPC   GL113977  13.467   3.601   5.883 -0.2153 -0.1153  0.0170
 1042YOPC   GL213978  13.320   3.817   6.013  0.0486 -0.2313  0.0072
 1042YOPC   C1A13979  13.805   3.493   6.112  0.0990  0.2572 -0.1187
 1042YOPC   D2A13980  13.885   3.565   6.611  0.3698  0.0058 -0.1470
 1042YOPC   C3A13981  13.722   3.861   6.863  0.0317  0.0199 -0.0248
 1042YOPC   C4A13982  13.857   4.178   7.302  0.0007  0.2748 -0.0154
 1042YOPC   C1B13983  13.458   3.755   6.400 -0.1266  0.0468  0.1433
 1042YOPC   C2B13984  13.442   3.441   6.770 -0.1303  0.3356 -0.2285
 1042YOPC   D3B13985  13.395   3.564   7.166 -0.1315  0.2528 -0.1930
 1042YOPC   C4B13986  13.198   3.426   7.664 -0.0697  0.0558 -0.0592
 1043YOPC   NC313987  18.850   2.234   5.054 -0.0495  0.0970 -0.2483
 1043YOPC   PO413988  18.587   2.317   5.417  0.0813 -0.3562  0.2010
 1043YOPC   GL113989  18.791   2.011   5.732 -0.2491 -0.1284  0.4285
 1043YOPC   GL213990  19.151   2.056   5.669 -0.1364 -0.2658  0.0236
 1043YOPC   C1A13991  18.533   2.004   6.115  0.0917 -0.0939  0.1523
 1043YOPC   D2A13992  18.429   1.700   6.521 -0.1010 -0.2476 -0.0479
 1043YOPC   C3A13993  18.314   1.848   6.941  0.0300  0.2780  0.3077
 1043YOPC   C4A13994  17.976   2.180   6.919  0.2020  0.3035  0.2815
 1043YOPC   C1B13995  19.157   1.703   5.987  0.0890 -0.2185  0.0682
 1043YOPC   C2B13996  19.127   1.310   6.228  0.0955 -0.2487  0.0157
 1043YOPC   D3B13997  19.212   1.300   6.712 -0.2013  0.0493 -0.2069
 1043YOPC   C4B13998  19.225   1.134   7.143  0.0586  0.3917 -0.2051
 1044YOPC   NC313999  10.757   0.167   5.456  0.0285  0.0262  0.2085
 1044YOPC   PO414000  10.649   0.251   5.874 -0.2822  0.0775  0.0173
 1044YOPC   GL114001  10.585   0.091   6.280  0.2152  0.4135 -0.0340
 1044YOPC   GL214002  10.352   0.305   6.471  0.2889  0.0311 -0.0096
 1044YOPC   C1A14003  11.007   0.161   6.502  0.0667 -0.1026  0.2162
 1044YOPC   D2A14004  11.472   0.136   6.519 -0.2353  0.1746  0.1198
 1044YOPC   C3A14005  11.490   0.243   6.933  0.0383 -0.1431  0.0952
 1044YOPC   C4A14006  11.104   0.409   7.070  0.1971 -0.1318  0.2025
 1044YOPC   C1B14007  10.155   0.299   6.851 -0.0793 -0.0614  0.2760
 1044YOPC   C2B14008  10.026   0.311   7.275 -0.1753  0.0096  0.0036
 1044YOPC   D3B14009  10.302   0.087   7.600  0.1393 -0.0689  0.1349
 1044YOPC   C4B14010  10.545  -0.023   7.958  0.2185  0.0153  0.1121
 1045YOPC   NC314011   7.687  15.720   5.482 -0.0779 -0.4152  0.1294
 1045YOPC   PO414012   7.794  15.258   5.536  0.2839 -0.0270  0.5355
 1045YOPC   GL114013   7.992  15.155   5.948  0.0396  0.0337 -0.0963
 1045YOPC   GL214014   8.462  15.268   6.112  0.1159  0.2553 -0.0582
 1045YOPC   C1A14015   8.025  15.145   6.383 -0.1520  0.2069 -0.2341
 1045YOPC   D2A14016   8.074  15.074   6.807 -0.0839  0.0831  0.2947
 1045YOPC   C3A14017   8.091  15.369   7.078 -0.3381  0.1200 -0.0281
 1045YOPC   C4A14018   7.884  15.826   7.006  0.2573 -0.1357  0.1820
 1045YOPC   C1B14019   8.542  15.283   6.562  0.0808  0.1458 -0.0405
 1045YOPC   C2B14020   8.422  14.824   6.591 -0.0721 -0.0011 -0.0303
 1045YOPC   D3B14021   8.241  14.563   6.890 -0.2117 -0.1456  0.0285
 1045YOPC   C4B14022   7.902  14.355   7.079 -0.0557  0.0382  0.1794
 1046YOPC   NC314023   4.365  15.164   5.411 -0.0444 -0.0983  0.0413
 1046YOPC   PO414024   4.415  14.813   5.651  0.0422 -0.2252 -0.1551
 1046YOPC   GL114025   4.347  14.522   6.004 -0.0799 -0.3357  0.0391
 1046YOPC   GL214026   4.030  14.602   6.070 -0.0462 -0.0178 -0.1332
 1046YOPC   C1A14027   4.509  14.466   6.409  0.0276 -0.1216 -0.0320
 1046YOPC   D2A14028   4.659  14.472   6.831  0.3051 -0.6210  0.0394
 1046YOPC   C3A14029   4.208  14.618   7.042 -0.0911  0.0536  0.0272
 1046YOPC   C4A14030   4.182  14.671   7.587  0.3775 -0.1549 -0.1687
 1046YOPC   C1B14031   4.029  14.463   6.566 -0.0480 -0.0238 -0.2354
 1046YOPC   C2B14032   4.288  14.139   6.796  0.1332 -0.2074 -0.1748
 1046YOPC   D3B14033   4.398  14.201   7.199 -0.1383 -0.0232  0.0376
 1046YOPC   C4B14034   4.656  14.594   7.488  0.2455 -0.4628  0.0689
 1047YOPC   NC314035  18.338  16.371   4.996  0.0250  0.2232  0.1817
 1047YOPC   PO414036  18.303  16.095   5.436 -0.0043 -0.0071 -0.0694
 1047YOPC   GL114037  18.519  16.196   5.835 -0.3019 -0.0319 -0.1474
 1047YOPC   GL214038  18.554  15.896   6.004  0.0682  0.0827 -0.0199
 1047YOPC   C1A14039  18.392  16.304   6.275 -0.1550  0.3564 -0.1074
 1047YOPC   D2A14040  18.150  16.532   6.489 -0.4336 -0.3286 -0.4196
 1047YOPC   C3A14041  18.344  16.765   6.938  0.0207 -0.0548 -0.0731
 1047YOPC   C4A14042  18.774  16.943   7.164  0.0722 -0.1819  0.3164
 1047YOPC   C1B14043  18.725  15.971   6.425 -0.1147 -0.1352  0.2386
 1047YOPC   C2B14044  18.773  16.196   6.725  0.0826 -0.0284 -0.1274
 1047YOPC   D3B14045  18.740  16.533   6.585  0.0125 -0.1287  0.1454
 1047YOPC   C4B14046  18.823  16.946   6.626 -0.0473  0.2423 -0.0823
 1048YOPC   NC314047   5.996   8.688   5.276  0.4033 -0.1648  0.1881
 1048YOPC   PO414048   6.252   8.708   5.581  0.1541 -0.0844 -0.1552
 1048YOPC   GL114049   6.050   8.872   5.979  0.0632 -0.0277 -0.1577
 1048YOPC   GL214050   6.240   9.167   5.909 -0.0293 -0.1060  0.0516
 1048YOPC   C1A14051   5.954   8.970   6.389 -0.0472  0.3568  0.0329
 1048YOPC   D2A14052   5.983   8.917   6.839 -0.1465  0.1552 -0.0214
 1048YOPC   C3A14053   5.746   8.816   7.136  0.5424 -0.0343 -0.0042
 1048YOPC   C4A14054   5.480   8.983   7.387 -0.3723  0.2396 -0.0781
 1048YOPC   C1B14055   6.331   9.583   6.221  0.1374  0.0598 -0.3459
 1048YOPC   C2B14056   6.147   9.925   6.450 -0.1460 -0.3405 -0.1897
 1048YOPC   D3B14057   6.136  10.102   6.850 -0.0520  0.1272 -0.3909
 1048YOPC   C4B14058   6.263  10.318   7.214 -0.0435 -0.0585  0.1723
 1049YOPC   NC314059   4.679  10.964   5.691 -0.1035  0.0024  0.3816
 1049YOPC   PO414060   5.037  10.734   5.548 -0.3707 -0.3630 -0.0276
 1049YOPC   GL114061   4.954  10.496   5.916 -0.1067  0.1266  0.0854
 1049YOPC   GL214062   4.790  10.169   5.983 -0.0239 -0.1810 -0.3250
 1049YOPC   C1A14063   4.778  10.681   6.295  0.1698  0.0413 -0.0755
 1049YOPC   D2A14064   4.725  10.887   6.690  0.2724  0.0828 -0.1742
 1049YOPC   C3A14065   4.747  10.483   6.863 -0.1526 -0.1954  0.1397
 1049YOPC   C4A14066   4.489  10.088   6.811  0.3043 -0.3370 -0.2133
 1049YOPC   C1B14067   4.774  10.091   6.387  0.2281  0.1442 -0.0899
 1049YOPC   C2B14068   5.043   9.965   6.730 -0.2180  0.2889  0.0119
 1049YOPC   D3B14069   5.029  10.118   7.037 -0.0396  0.2007 -0.1798
 1049YOPC   C4B14070   4.642  10.097   7.307 -0.0792  0.0229 -0.1123
 1050YOPC   NC314071   3.585  10.914   5.019  0.1276  0.1402 -0.2561
 1050YOPC   PO414072   3.353  11.252   5.253 -0.1976  0.0428  0.0453
 1050YOPC   GL114073   3.291  11.203   5.623 -0.1572  0.0615  0.2353
 1050YOPC   GL214074   3.283  11.542   5.854  0.0126 -0.0881 -0.0159
 1050YOPC   C1A14075   3.564  11.071   5.971  0.0830  0.1923 -0.1085
 1050YOPC   D2A14076   3.880  11.177   6.263 -0.0770  0.1495 -0.2762
 1050YOPC   C3A14077   3.814  11.290   6.686 -0.1126  0.4556  0.3329
 1050YOPC   C4A14078   3.496  11.237   6.988  0.0164  0.3449 -0.2055
 1050YOPC   C1B14079   3.156  11.775   6.174 -0.1319  0.2071  0.1343
 1050YOPC   C2B14080   2.695  11.801   6.333 -0.0679 -0.0027 -0.1095
 1050YOPC   D3B14081   2.617  11.841   6.730 -0.0937 -0.3338 -0.3272
 1050YOPC   C4B14082   2.494  12.160   7.043  0.1704  0.0438  0.0198
 1051YOPC   NC314083   9.625   2.686   5.916  0.1292 -0.1087 -0.0271
 1051YOPC   PO414084   9.712   3.089   6.092  0.0609  0.4480  0.0732
 1051YOPC   GL114085   9.646   3.036   6.410  0.0534  0.1888 -0.0553
 1051YOPC   GL214086   9.616   3.357   6.506 -0.1540  0.0136 -0.6233
 1051YOPC   C1A14087   9.606   2.802   6.812  0.0975  0.1164  0.2161
 1051YOPC   D2A14088   9.513   2.822   7.195 -0.0470 -0.1715 -0.3445
 1051YOPC   C3A14089   9.477   2.565   7.551 -0.4546  0.1148 -0.2780
 1051YOPC   C4A14090   9.219   2.545   7.796 -0.2604 -0.0506  0.0208
 1051YOPC   C1B14091   9.268   3.552   6.741  0.2091 -0.0214 -0.0493
 1051YOPC   C2B14092   8.996   3.754   7.107  0.4094 -0.2088  0.0974
 1051YOPC   D3B14093   9.151   3.703   7.518 -0.3453 -0.0408 -0.2324
 1051YOPC   C4B14094   9.256   3.430   7.850  0.0532  0.2589  0.0267
 1052YOPC   NC314095   5.416  16.886   6.007  0.4573  0.1747 -0.0635
 1052YOPC   PO414096   5.266  17.398   6.011 -0.0137  0.2910 -0.0529
 1052YOPC   GL114097   5.497  17.264   6.411  0.0792 -0.1164 -0.0991
 1052YOPC   GL214098   5.658  16.912   6.452 -0.0222 -0.2298 -0.0360
 1052YOPC   C1A14099   5.831  17.493   6.659  0.2765 -0.0537 -0.1241
 1052YOPC   D2A14100   5.801  17.547   7.115  0.0050  0.1712 -0.2069
 1052YOPC   C3A14101   6.139  17.551   7.383  0.4152  0.3530  0.1313
 1052YOPC   C4A14102   6.328  17.547   7.810 -0.0975 -0.2149  0.0694
 1052YOPC   C1B14103   5.654  17.074   6.877  0.0879 -0.0940  0.0115
 1052YOPC   C2B14104   5.848  17.051   7.316 -0.1576 -0.1309  0.2015
 1052YOPC   D3B14105   5.793  16.704   7.670  0.0818 -0.2309  0.2597
 1052YOPC   C4B14106   5.733  16.352   7.941 -0.0958  0.1994  0.0291
 1053YOPC   NC314107  16.178  17.385   5.212  0.1322 -0.0723 -0.3410
 1053YOPC   PO414108  15.933  17.140   5.576  0.0633  0.1389 -0.0583
 1053YOPC   GL114109  15.850  17.308   5.902  0.2124  0.3371 -0.3669
 1053YOPC   GL214110  15.679  17.651   5.820  0.1045  0.1032  0.1128
 1053YOPC   C1A14111  15.945  17.446   6.315 -0.0305 -0.1581 -0.2935
 1053YOPC   D2A14112  16.155  17.687   6.603 -0.2931 -0.1366  0.0875
 1053YOPC   C3A14113  16.137  17.579   7.085  0.2353  0.4014  0.2300
 1053YOPC   C4A14114  15.883  17.485   7.443  0.2595  0.0316 -0.0974
 1053YOPC   C1B14115  15.809  17.896   6.173  0.1881 -0.1101 -0.1624
 1053YOPC   C2B14116  16.132  18.249   6.394  0.1629  0.3494  0.2065
 1053YOPC   D3B14117  16.283  18.097   6.862  0.1784  0.2483  0.2279
 1053YOPC   C4B14118  16.609  17.837   7.067 -0.0036  0.0289 -0.1323
 1054YOPC   NC314119   2.487  18.203   5.403  0.0677 -0.1561  0.0490
 1054YOPC   PO414120   2.522  18.156   5.817  0.0138  0.2546  0.0256
 1054YOPC   GL114121   2.462  18.368   6.129 -0.0212  0.2467 -0.3071
 1054YOPC   GL214122   2.193  18.385   6.159 -0.1680 -0.1421 -0.0425
 1054YOPC   C1A14123   2.685  18.316   6.470 -0.0684 -0.3315  0.1035
 1054YOPC   D2A14124   2.875  18.556   6.852 -0.4214  0.3544  0.0960
 1054YOPC   C3A14125   3.010  18.941   7.030 -0.0207  0.1897 -0.0512
 1054YOPC   C4A14126   3.114  19.304   7.206  0.3013  0.1445  0.2108
 1054YOPC   C1B14127   2.338  18.001   6.408  0.1199  0.1450 -0.0641
 1054YOPC   C2B14128   2.301  17.986   6.847  0.0588  0.0275  0.1251
 1054YOPC   D3B14129   2.345  18.356   6.970  0.2662  0.1848 -0.1499
 1054YOPC   C4B14130   2.422  18.589   6.708  0.2867 -0.2296 -0.0525
 1055YOPC   NC314131  18.342  14.344   5.402 -0.2433  0.0124  0.1214
 1055YOPC   PO414132  18.737  14.214   5.658  0.0563  0.1556 -0.0320
 1055YOPC   GL114133  18.535  14.301   5.941  0.2785 -0.0339  0.0268
 1055YOPC   GL214134  18.458  14.039   6.079  0.4356 -0.1109 -0.1390
 1055YOPC   C1A14135  18.687  14.280   6.487  0.0411  0.1174  0.3474
 1055YOPC   D2A14136  18.874  13.969   6.740  0.0683  0.0763 -0.1612
 1055YOPC   C3A14137  18.987  14.118   7.053  0.0422  0.0190 -0.0018
 1055YOPC   C4A14138  18.789  14.170   7.365  0.2189  0.1726  0.0313
 1055YOPC   C1B14139  18.404  13.852   6.498  0.0962 -0.0736 -0.0420
 1055YOPC   C2B14140  18.383  13.511   6.878  0.3523  0.1558 -0.0303
 1055YOPC   D3B14141  18.264  13.651   7.310 -0.0869 -0.0535 -0.0181
 1055YOPC   C4B14142  18.082  13.836   7.608  0.0019 -0.0235  0.0069
 1056YOPC   NC314143   3.132   3.579   5.837 -0.2303 -0.0935  0.1748
 1056YOPC   PO414144   2.998   3.906   5.645 -0.1276 -0.1244  0.0553
 1056YOPC   GL114145   2.954   4.102   5.952  0.2653 -0.0589 -0.2007
 1056YOPC   GL214146   2.644   4.148   5.982 -0.0662 -0.1609  0.1662
 1056YOPC   C1A14147   2.759   4.043   6.406 -0.1805  0.2398 -0.2891
 1056YOPC   D2A14148   2.739   3.960   6.973 -0.0642  0.1775 -0.2019
 1056YOPC   C3A14149   2.854   3.812   7.432 -0.3470 -0.4966  0.1865
 1056YOPC   C4A14150   2.751   3.575   7.935  0.1725 -0.2711 -0.0116
 1056YOPC   C1B14151   2.605   4.508   6.274  0.1007 -0.0755 -0.1610
 1056YOPC   C2B14152   2.351   4.556   6.655 -0.0943 -0.0861  0.1481
 1056YOPC   D3B14153   2.600   4.454   6.995  0.1117  0.2010  0.1497
 1056YOPC   C4B14154   2.525   4.241   7.323 -0.0288  0.4115  0.0116
 1057YOPC   NC314155   7.651  11.820   5.550 -0.1687 -0.0287  0.1985
 1057YOPC   PO414156   7.905  12.122   5.323 -0.3174 -0.3426 -0.3438
 1057YOPC   GL114157   7.891  12.331   5.812  0.0189  0.0567 -0.2861
 1057YOPC   GL214158   7.624  12.408   5.999 -0.0204 -0.1434 -0.0692
 1057YOPC   C1A14159   8.076  12.679   6.213  0.0049 -0.0299  0.1052
 1057YOPC   D2A14160   7.899  12.961   6.613 -0.0013  0.1192  0.0768
 1057YOPC   C3A14161   8.093  12.919   7.047  0.1479  0.1136 -0.1048
 1057YOPC   C4A14162   8.238  13.006   7.362 -0.2178 -0.5379  0.0670
 1057YOPC   C1B14163   7.730  12.421   6.449 -0.2326 -0.1303  0.2318
 1057YOPC   C2B14164   8.051  12.505   6.699 -0.2732  0.0399  0.0371
 1057YOPC   D3B14165   7.975  12.474   7.194  0.0844  0.3207  0.0167
 1057YOPC   C4B14166   7.548  12.342   7.321 -0.0297  0.1204 -0.2055
 1058YOPC   NC314167   8.247  13.555   5.396 -0.3209  0.0848 -0.0506
 1058YOPC   PO414168   8.616  13.708   5.317 -0.0926  0.0453 -0.1178
 1058YOPC   GL114169   8.508  13.661   5.780  0.2799 -0.2492  0.0183
 1058YOPC   GL214170   8.782  13.558   5.972  0.3455  0.2483 -0.3802
 1058YOPC   C1A14171   8.288  13.680   6.147 -0.0850 -0.1411 -0.0652
 1058YOPC   D2A14172   8.143  14.003   6.473 -0.0886  0.2872 -0.0491
 1058YOPC   C3A14173   8.166  14.366   6.465  0.0555  0.0842  0.2641
 1058YOPC   C4A14174   8.086  14.739   6.209  0.1283  0.1895 -0.0187
 1058YOPC   C1B14175   8.814  13.593   6.437  0.3265  0.0541 -0.1222
 1058YOPC   C2B14176   8.625  13.649   6.833  0.0751  0.2320 -0.1990
 1058YOPC   D3B14177   8.302  13.897   6.975  0.3334 -0.1747  0.1000
 1058YOPC   C4B14178   8.155  13.997   7.386 -0.4773  0.0590 -0.0605
 1059YOPC   NC314179  12.316  12.796   4.776 -0.2470  0.3171 -0.2901
 1059YOPC   PO414180  12.015  13.145   4.923 -0.3723  0.1087  0.2073
 1059YOPC   GL114181  12.043  13.295   5.374 -0.1626  0.0146  0.0522
 1059YOPC   GL214182  12.159  13.170   5.686  0.2149 -0.0449  0.1339
 1059YOPC   C1A14183  11.803  13.660   5.569  0.0138 -0.1157 -0.1329
 1059YOPC   D2A14184  11.462  13.991   5.643  0.0203 -0.1156  0.1552
 1059YOPC   C3A14185  11.471  14.001   6.069  0.2702 -0.1911 -0.0167
 1059YOPC   C4A14186  11.836  13.871   6.283 -0.1169 -0.2642 -0.0016
 1059YOPC   C1B14187  12.450  13.069   6.127  0.0208  0.1140 -0.1210
 1059YOPC   C2B14188  12.649  12.892   6.443 -0.2880 -0.1894  0.0987
 1059YOPC   D3B14189  12.562  12.878   6.921 -0.3005 -0.2796  0.4143
 1059YOPC   C4B14190  12.319  12.769   7.265 -0.3760  0.0213  0.1870
 1060YOPC   NC314191   4.806  18.449   5.311  0.2474 -0.3493  0.0707
 1060YOPC   PO414192   4.789  18.560   5.840  0.1579  0.5571  0.1388
 1060YOPC   GL114193   4.566  18.899   6.095  0.1263 -0.0673 -0.1172
 1060YOPC   GL214194   4.610  19.138   6.286  0.0659 -0.2437 -0.1358
 1060YOPC   C1A14195   4.240  18.810   6.411 -0.3482  0.0449 -0.3646
 1060YOPC   D2A14196   4.100  18.461   6.674 -0.1732  0.0504  0.1326
 1060YOPC   C3A14197   4.003  18.419   7.053 -0.0752 -0.1041  0.4089
 1060YOPC   C4A14198   4.179  18.475   7.326 -0.1369  0.0003 -0.1559
 1060YOPC   C1B14199   4.369  19.252   6.615 -0.1383 -0.0184  0.2027
 1060YOPC   C2B14200   4.181  19.331   7.012 -0.1126  0.1878 -0.0151
 1060YOPC   D3B14201   4.337  19.140   7.363 -0.0972 -0.0088 -0.1698
 1060YOPC   C4B14202   4.414  19.214   7.804  0.0297  0.0894 -0.3233
 1061YOPC   NC314203   4.274   4.752   5.544 -0.1416  0.0559  0.1893
 1061YOPC   PO414204   4.122   4.486   5.914  0.0410 -0.3805  0.1157
 1061YOPC   GL114205   4.010   4.289   6.290 -0.1841 -0.0050 -0.2397
 1061YOPC   GL214206   4.054   4.598   6.491  0.2050 -0.2042  0.3130
 1061YOPC   C1A14207   4.064   4.129   6.756 -0.5002 -0.0263 -0.1416
 1061YOPC   D2A14208   4.383   3.993   6.981 -0.0388  0.0456  0.0208
 1061YOPC   C3A14209   4.247   3.812   7.398 -0.2012 -0.3803  0.1426
 1061YOPC   C4A14210   3.857   3.639   7.565  0.3183  0.0286 -0.1295
 1061YOPC   C1B14211   4.433   4.838   6.450  0.4264  0.1122  0.2032
 1061YOPC   C2B14212   4.648   5.195   6.593 -0.4217 -0.2054  0.2218
 1061YOPC   D3B14213   5.065   5.146   6.646 -0.2361 -0.1312  0.0735
 1061YOPC   C4B14214   5.390   4.865   6.530 -0.0169 -0.0802  0.1669
 1062YOPC   NC314215  17.016  17.689   4.728  0.1462  0.2393  0.0922
 1062YOPC   PO414216  17.253  17.234   5.021  0.0969  0.0498 -0.2988
 1062YOPC   GL114217  17.274  17.293   5.466  0.2100  0.4101  0.2344
 1062YOPC   GL214218  17.065  17.128   5.667 -0.0623  0.1640 -0.0633
 1062YOPC   C1A14219  17.308  17.489   5.825  0.1328 -0.0420  0.2276
 1062YOPC   D2A14220  17.122  17.691   6.177 -0.1060  0.0043 -0.0297
 1062YOPC   C3A14221  16.833  18.078   6.085  0.3212 -0.0055 -0.1088
 1062YOPC   C4A14222  16.947  18.463   6.056  0.0299 -0.1445 -0.1279
 1062YOPC   C1B14223  17.201  16.909   6.096 -0.1894  0.2853  0.0758
 1062YOPC   C2B14224  17.621  16.733   6.361 -0.0465  0.1347  0.1894
 1062YOPC   D3B14225  17.893  16.397   6.128  0.1238  0.0009  0.2851
 1062YOPC   C4B14226  18.022  16.025   6.011  0.0728 -0.0786  0.1152
 1063YOPC   NC314227  17.047   4.793   5.191 -0.2609 -0.2099  0.3541
 1063YOPC   PO414228  16.579   4.920   5.176 -0.1178  0.1129 -0.1485
 1063YOPC   GL114229  16.764   4.939   5.571 -0.1193  0.1653  0.2947
 1063YOPC   GL214230  16.525   5.125   5.818 -0.0376 -0.1243  0.0663
 1063YOPC   C1A14231  16.579   4.625   5.901  0.1060  0.0595  0.0395
 1063YOPC   D2A14232  16.769   4.229   6.139 -0.2020  0.0840  0.0347
 1063YOPC   C3A14233  16.892   4.009   6.552  0.2649 -0.6154  0.0283
 1063YOPC   C4A14234  16.814   4.080   6.822  0.1579  0.1187  0.1091
 1063YOPC   C1B14235  16.683   5.129   6.202 -0.1968  0.1452 -0.1584
 1063YOPC   C2B14236  16.746   5.216   6.608 -0.1080  0.1540  0.1275
 1063YOPC   D3B14237  16.511   5.569   6.876  0.0693  0.0812  0.2235
 1063YOPC   C4B14238  16.319   5.862   7.152 -0.2306 -0.0132 -0.2496
 1064YOPC   NC314239  17.278  15.044   5.400 -0.0755 -0.0611  0.2367
 1064YOPC   PO414240  17.027  14.804   5.735  0.0058  0.2055  0.0878
 1064YOPC   GL114241  17.219  14.574   5.936 -0.1243  0.0449  0.2993
 1064YOPC   GL214242  17.507  14.617   5.943  0.4500  0.0566  0.0575
 1064YOPC   C1A14243  17.247  14.404   6.301 -0.0451 -0.2883 -0.1299
 1064YOPC   D2A14244  17.262  14.126   6.561  0.0002 -0.3757 -0.1475
 1064YOPC   C3A14245  17.698  14.027   6.477 -0.2143  0.0251 -0.6654
 1064YOPC   C4A14246  18.006  14.118   6.845 -0.2498 -0.0831  0.3040
 1064YOPC   C1B14247  17.473  14.931   6.246 -0.3597 -0.0405 -0.2581
 1064YOPC   C2B14248  17.221  14.871   6.592  0.1957  0.3628 -0.1892
 1064YOPC   D3B14249  17.474  14.916   6.936  0.0727 -0.0014 -0.0245
 1064YOPC   C4B14250  17.690  15.076   7.319 -0.1530  0.4002  0.1161
 1065YOPC   NC314251   6.410   1.976   5.765  0.1754  0.1701  0.0496
 1065YOPC   PO414252   5.990   1.937   5.988 -0.0915  0.1280  0.4921
 1065YOPC   GL114253   5.881   1.690   6.392 -0.1296  0.3508  0.1517
 1065YOPC   GL214254   5.537   1.597   6.495  0.3258 -0.1782 -0.0622
 1065YOPC   C1A14255   6.122   1.495   6.702  0.0886 -0.1010 -0.1600
 1065YOPC   D2A14256   6.459   1.731   7.007 -0.0690 -0.2070  0.1313
 1065YOPC   C3A14257   6.275   2.033   7.228 -0.0790  0.1547 -0.0637
 1065YOPC   C4A14258   6.254   2.423   7.377  0.0562  0.1833 -0.1962
 1065YOPC   C1B14259   5.361   1.512   7.049  0.0650 -0.1192 -0.0036
 1065YOPC   C2B14260   5.333   1.539   7.466 -0.0661  0.1703  0.0498
 1065YOPC   D3B14261   5.548   1.762   7.639 -0.1600  0.2374 -0.1103
 1065YOPC   C4B14262   5.869   2.005   7.517  0.1099 -0.0426  0.0881
 1066YOPC   NC314263  18.951   9.998   5.462  0.3174  0.3807 -0.2125
 1066YOPC   PO414264  18.693   9.575   5.254  0.0600 -0.3030  0.2717
 1066YOPC   GL114265  18.751   9.601   5.795 -0.0838  0.4175 -0.3775
 1066YOPC   GL214266  18.627   9.315   5.891  0.0202 -0.1907  0.0674
 1066YOPC   C1A14267  18.767   9.802   6.082  0.1572 -0.0075 -0.1715
 1066YOPC   D2A14268  18.595   9.804   6.515  0.0650 -0.0809 -0.2130
 1066YOPC   C3A14269  18.798   9.642   6.805 -0.2424  0.0524  0.2077
 1066YOPC   C4A14270  18.970   9.787   7.220 -0.1037  0.0003  0.0193
 1066YOPC   C1B14271  18.545   9.395   6.301  0.1256  0.1003  0.3424
 1066YOPC   C2B14272  18.217   9.295   6.567 -0.2045 -0.0864  0.0432
 1066YOPC   D3B14273  18.310   9.415   7.026 -0.0866  0.1442 -0.3669
 1066YOPC   C4B14274  18.124   9.552   7.379 -0.3233 -0.3376  0.0639
 1067YOPC   NC314275  14.492   6.043   5.040  0.1931 -0.3210  0.1936
 1067YOPC   PO414276  14.221   5.916   5.090  0.2149 -0.1589 -0.0764
 1067YOPC   GL114277  14.186   5.853   5.583 -0.0654  0.0909  0.0743
 1067YOPC   GL214278  14.558   5.831   5.696 -0.0271  0.0090  0.1270
 1067YOPC   C1A14279  14.321   6.152   5.931  0.3654 -0.0736  0.0332
 1067YOPC   D2A14280  14.648   6.186   6.314 -0.0802  0.1125 -0.1939
 1067YOPC   C3A14281  14.986   6.419   6.215  0.0700  0.1659  0.1214
 1067YOPC   C4A14282  15.319   6.250   6.040 -0.0261  0.3264  0.2043
 1067YOPC   C1B14283  14.793   5.809   6.009  0.1619 -0.0022 -0.0893
 1067YOPC   C2B14284  14.984   5.843   6.429 -0.2021  0.2012  0.0022
 1067YOPC   D3B14285  14.772   6.022   6.784 -0.1427  0.1899 -0.0515
 1067YOPC   C4B14286  14.927   6.148   7.185  0.0893 -0.2201 -0.0932
 1068YOPC   NC314287  17.458   2.146   5.125  0.0068  0.3073 -0.0230
 1068YOPC   PO414288  17.671   2.535   5.250 -0.0230 -0.3462  0.0633
 1068YOPC   GL114289  17.632   2.371   5.541 -0.0862  0.1751 -0.1489
 1068YOPC   GL214290  17.658   2.024   5.578 -0.0766  0.0437  0.0605
 1068YOPC   C1A14291  17.222   2.162   5.769  0.0963 -0.1379 -0.0829
 1068YOPC   D2A14292  17.392   1.758   5.994 -0.1008  0.1594  0.2862
 1068YOPC   C3A14293  17.771   1.727   6.237 -0.0992 -0.2871  0.2532
 1068YOPC   C4A14294  18.090   1.847   6.178  0.1657 -0.2567  0.1460
 1068YOPC   C1B14295  17.659   2.165   6.003 -0.2772  0.2503 -0.2708
 1068YOPC   C2B14296  17.926   2.424   6.285 -0.1196 -0.1766 -0.2439
 1068YOPC   D3B14297  18.224   2.146   6.533  0.1377 -0.3162 -0.2355
 1068YOPC   C4B14298  18.649   2.157   6.637  0.3574 -0.1783  0.0311
 1069YOPC   NC314299  11.512  11.514   5.532 -0.3062 -0.2330  0.3152
 1069YOPC   PO414300  11.803  11.746   5.340 -0.1148 -0.0091 -0.1437
 1069YOPC   GL114301  11.786  11.980   5.746  0.0076 -0.1616 -0.1950
 1069YOPC   GL214302  12.021  12.199   5.924  0.0618 -0.0853  0.2708
 1069YOPC   C1A14303  11.608  11.949   6.184 -0.4451 -0.1319  0.1522
 1069YOPC   D2A14304  11.954  11.893   6.334 -0.3298  0.0586  0.0025
 1069YOPC   C3A14305  12.157  11.886   6.749  0.1554  0.3627 -0.3911
 1069YOPC   C4A14306  12.111  11.938   7.099 -0.2667 -0.2111 -0.0952
 1069YOPC   C1B14307  12.011  12.418   6.390  0.2274  0.0245 -0.0822
 1069YOPC   C2B14308  11.853  12.530   6.789  0.3852  0.0385 -0.1581
 1069YOPC   D3B14309  11.883  12.455   7.190  0.4757 -0.3768 -0.3669
 1069YOPC   C4B14310  12.052  12.421   7.625  0.3876  0.1552 -0.2644
 1070YOPC   NC314311  13.889   8.508   5.493 -0.0620 -0.0024 -0.1320
 1070YOPC   PO414312  14.297   8.394   5.421  0.2514 -0.1652 -0.0220
 1070YOPC   GL114313  14.416   8.358   5.779 -0.0187  0.2237 -0.1462
 1070YOPC   GL214314  14.596   8.543   5.916 -0.1472 -0.0675  0.0943
 1070YOPC   C1A14315  14.232   8.361   6.273  0.1681 -0.0370  0.2208
 1070YOPC   D2A14316  14.252   8.305   6.690 -0.1313 -0.2742 -0.4585
 1070YOPC   C3A14317  14.538   8.303   6.984 -0.3276 -0.1448  0.1197
 1070YOPC   C4A14318  14.506   8.128   7.376 -0.0231  0.0375 -0.1309
 1070YOPC   C1B14319  14.892   8.535   6.244  0.1172  0.0518 -0.1049
 1070YOPC   C2B14320  15.056   8.729   6.625  0.0537  0.4136  0.0476
 1070YOPC   D3B14321  15.153   8.310   6.764  0.1898  0.0466  0.1246
 1070YOPC   C4B14322  15.287   8.014   6.617 -0.0103 -0.1140  0.0024
 1071YOPC   NC314323  10.418   9.009   5.550  0.1525 -0.3740 -0.2579
 1071YOPC   PO414324  10.358   8.687   5.600  0.1156  0.2858 -0.3788
 1071YOPC   GL114325  10.691   8.589   5.877  0.1545 -0.1748  0.0440
 1071YOPC   GL214326  10.569   8.898   5.978  0.1723  0.2212  0.1222
 1071YOPC   C1A14327  10.830   8.783   6.340 -0.2476 -0.1494  0.1657
 1071YOPC   D2A14328  11.232   8.745   6.424 -0.2492 -0.2974 -0.4028
 1071YOPC   C3A14329  11.492   8.856   6.123 -0.1562  0.1261 -0.3307
 1071YOPC   C4A14330  11.833   8.730   5.735 -0.0409  0.1037 -0.1418
 1071YOPC   C1B14331  10.439   9.189   6.357 -0.1226  0.0345 -0.2266
 1071YOPC   C2B14332  10.589   8.966   6.769 -0.0586  0.0806  0.2615
 1071YOPC   D3B14333  10.623   9.049   7.305 -0.0798  0.0412 -0.1170
 1071YOPC   C4B14334  10.708   9.220   7.673 -0.0745  0.1015 -0.2449
 1072YOPC   NC314335   5.529   1.751   5.936 -0.0752  0.2120 -0.1995
 1072YOPC   PO414336   5.314   1.975   6.197  0.0315 -0.1196 -0.1034
 1072YOPC   GL114337   5.645   2.193   6.223 -0.1395  0.1248  0.1475
 1072YOPC   GL214338   5.569   2.522   6.459 -0.2343 -0.0604  0.0937
 1072YOPC   C1A14339   5.898   2.174   6.558 -0.1197  0.2731  0.0986
 1072YOPC   D2A14340   5.937   2.077   6.880 -0.2033  0.0193  0.1529
 1072YOPC   C3A14341   5.806   1.746   7.086 -0.1738  0.0263 -0.3039
 1072YOPC   C4A14342   6.154   1.631   7.492 -0.0463  0.0279  0.0096
 1072YOPC   C1B14343   5.634   2.673   6.807  0.2806 -0.0083 -0.4162
 1072YOPC   C2B14344   5.803   2.573   7.230 -0.0602  0.0164  0.0731
 1072YOPC   D3B14345   6.096   2.882   7.447  0.2196 -0.1848 -0.3919
 1072YOPC   C4B14346   6.220   2.928   7.904 -0.0431 -0.0553  0.1279
 1073YOPC   NC314347  11.553  13.292   4.984  0.3039  0.0083 -0.1667
 1073YOPC   PO414348  11.195  13.454   5.158  0.0067 -0.1753  0.2348
 1073YOPC   GL114349  11.335  13.277   5.530 -0.0794  0.1560 -0.4294
 1073YOPC   GL214350  11.277  13.519   5.762 -0.3478  0.1312 -0.1273
 1073YOPC   C1A14351  11.673  13.125   5.759  0.0237 -0.0301 -0.2088
 1073YOPC   D2A14352  11.919  12.918   6.119  0.1342 -0.0183  0.0877
 1073YOPC   C3A14353  11.685  12.937   6.427 -0.0405 -0.0055  0.0212
 1073YOPC   C4A14354  11.693  13.019   6.925  0.2803 -0.1342 -0.3008
 1073YOPC   C1B14355  11.625  13.479   6.068  0.0811  0.0720 -0.3122
 1073YOPC   C2B14356  11.639  13.438   6.498  0.1221 -0.0189  0.2072
 1073YOPC   D3B14357  11.370  13.432   6.874 -0.2900 -0.0193  0.0222
 1073YOPC   C4B14358  11.203  13.554   7.201  0.1089 -0.4825  0.2279
 1074YOPC   NC314359   0.409   3.173   5.409 -0.0402 -0.1531  0.2322
 1074YOPC   PO414360   0.117   3.061   5.432 -0.1307 -0.3431 -0.1306
 1074YOPC   GL114361  -0.017   2.926   5.886 -0.1945  0.1533 -0.0722
 1074YOPC   GL214362  -0.246   2.966   5.971  0.1783  0.1158  0.2158
 1074YOPC   C1A14363   0.128   2.642   6.294  0.0451  0.1520 -0.1632
 1074YOPC   D2A14364  -0.094   2.730   6.654 -0.0914  0.1336  0.1410
 1074YOPC   C3A14365  -0.141   2.425   6.982  0.1167 -0.1474  0.2390
 1074YOPC   C4A14366  -0.256   2.058   7.106 -0.0718  0.1799 -0.0835
 1074YOPC   C1B14367  -0.293   3.044   6.386 -0.3749 -0.2983  0.1206
 1074YOPC   C2B14368  -0.397   3.139   6.770  0.0105  0.0021  0.2383
 1074YOPC   D3B14369  -0.294   2.921   7.197 -0.1412 -0.0142  0.1085
 1074YOPC   C4B14370  -0.220   3.065   7.588  0.0851 -0.0711  0.2403
 1075YOPC   NC314371   8.940   2.798   5.498 -0.2871 -0.1294  0.1529
 1075YOPC   PO414372   9.073   2.499   5.838  0.0284 -0.3230  0.1121
 1075YOPC   GL114373   9.126   2.749   6.165 -0.1203 -0.0987  0.2772
 1075YOPC   GL214374   8.971   2.526   6.408  0.1561 -0.2570 -0.0932
 1075YOPC   C1A14375   9.144   3.102   6.546 -0.2119 -0.0680 -0.0615
 1075YOPC   D2A14376   9.245   3.089   6.925  0.3744  0.0090  0.2265
 1075YOPC   C3A14377   9.177   3.268   7.215  0.3742 -0.2165 -0.2590
 1075YOPC   C4A14378   9.149   2.993   7.556  0.3703 -0.2000 -0.0377
 1075YOPC   C1B14379   9.260   2.420   6.722  0.2626  0.3902  0.1412
 1075YOPC   C2B14380   9.572   2.155   6.681  0.0860  0.0419  0.2060
 1075YOPC   D3B14381  10.010   2.186   6.818  0.0952 -0.0495  0.1098
 1075YOPC   C4B14382  10.298   2.321   7.018  0.2514  0.0023 -0.0535
 1076YOPC   NC314383  16.458  10.934   5.386 -0.3656  0.2767 -0.2140
 1076YOPC   PO414384  16.654  10.856   5.751  0.0079  0.2085  0.2252
 1076YOPC   GL114385  16.872  10.705   6.090 -0.0230  0.1860  0.3063
 1076YOPC   GL214386  16.760  10.414   6.108  0.1766 -0.1922 -0.3139
 1076YOPC   C1A14387  17.038  10.783   6.475 -0.0672  0.0889 -0.0067
 1076YOPC   D2A14388  17.058  10.678   6.866  0.1550  0.1288  0.1152
 1076YOPC   C3A14389  16.962  10.790   7.238  0.1749 -0.3754 -0.1475
 1076YOPC   C4A14390  17.063  10.950   7.686 -0.2297 -0.3063 -0.0012
 1076YOPC   C1B14391  16.816  10.339   6.618  0.2059  0.0029  0.1166
 1076YOPC   C2B14392  16.984  10.039   6.795  0.0309 -0.1140  0.3253
 1076YOPC   D3B14393  16.820  10.294   7.154  0.1827 -0.5357  0.2535
 1076YOPC   C4B14394  16.693  10.415   7.521 -0.0102 -0.0203  0.0801
 1077YOPC   NC314395   8.821   5.787   5.480 -0.0446 -0.2889 -0.0300
 1077YOPC   PO414396   8.599   5.991   5.831 -0.0890 -0.1506 -0.0632
 1077YOPC   GL114397   8.722   6.251   6.220 -0.1044  0.2442  0.2564
 1077YOPC   GL214398   8.639   5.930   6.394  0.3474 -0.1924 -0.0068
 1077YOPC   C1A14399   8.603   6.376   6.576  0.3284 -0.0451 -0.1558
 1077YOPC   D2A14400   8.216   6.330   6.855  0.0373 -0.1892  0.0647
 1077YOPC   C3A14401   8.290   6.105   7.191  0.0620  0.2536  0.0058
 1077YOPC   C4A14402   8.512   5.784   7.414  0.0210  0.0441 -0.0523
 1077YOPC   C1B14403   8.617   5.970   6.807  0.2622  0.3150  0.3454
 1077YOPC   C2B14404   8.726   6.206   7.109 -0.3263  0.1902  0.0933
 1077YOPC   D3B14405   8.978   6.001   7.402  0.1070  0.0931 -0.1392
 1077YOPC   C4B14406   9.035   5.601   7.559  0.1238  0.0934 -0.1470
 1078YOPC   NC314407   7.571  10.452   5.365 -0.0987  0.3069  0.1692
 1078YOPC   PO414408   7.257  10.087   5.325 -0.0116  0.0682 -0.2190
 1078YOPC   GL114409   7.282  10.071   5.797  0.0536 -0.1347  0.0669
 1078YOPC   GL214410   7.484  10.284   6.017  0.0221 -0.2275  0.0326
 1078YOPC   C1A14411   7.184   9.831   6.121 -0.2177  0.0709 -0.0689
 1078YOPC   D2A14412   6.821   9.670   6.290  0.1867  0.2478 -0.2117
 1078YOPC   C3A14413   6.565   9.817   6.681  0.2384 -0.2581 -0.1828
 1078YOPC   C4A14414   6.478   9.887   7.086 -0.3669 -0.0244 -0.2871
 1078YOPC   C1B14415   7.682  10.149   6.381  0.3843 -0.3532  0.1119
 1078YOPC   C2B14416   8.025  10.127   6.693  0.2968 -0.1257  0.1907
 1078YOPC   D3B14417   7.896   9.843   7.061 -0.0749  0.0576 -0.1842
 1078YOPC   C4B14418   7.971   9.605   7.299  0.1514 -0.2751  0.0377
 1079YOPC   NC314419  15.254   4.746   5.138  0.1642 -0.1310 -0.0356
 1079YOPC   PO414420  15.610   4.538   5.102  0.2126 -0.2836 -0.4317
 1079YOPC   GL114421  15.611   4.655   5.635 -0.0655  0.0126 -0.1755
 1079YOPC   GL214422  15.810   4.915   5.607  0.2764 -0.1033  0.0265
 1079YOPC   C1A14423  15.526   4.454   6.054 -0.2154  0.0608  0.1716
 1079YOPC   D2A14424  15.783   4.550   6.280 -0.2106 -0.2389  0.1576
 1079YOPC   C3A14425  15.932   4.501   6.647 -0.1923 -0.1389 -0.0313
 1079YOPC   C4A14426  15.803   4.389   7.130  0.0703 -0.2373 -0.0264
 1079YOPC   C1B14427  16.083   4.871   5.919  0.1202 -0.2478 -0.1630
 1079YOPC   C2B14428  16.306   4.812   6.270  0.1957 -0.0200 -0.1007
 1079YOPC   D3B14429  16.302   5.155   6.570  0.0183 -0.0779 -0.1236
 1079YOPC   C4B14430  16.262   5.659   6.501 -0.3963 -0.0540  0.1305
 1080YOPC   NC314431  11.170  15.215   5.473 -0.1616  0.2100 -0.1711
 1080YOPC   PO414432  10.748  15.187   5.719  0.2411  0.4123 -0.0668
 1080YOPC   GL114433  10.735  15.395   6.186  0.0071 -0.0664 -0.0072
 1080YOPC   GL214434  10.429  15.262   6.293  0.1203 -0.0373 -0.0609
 1080YOPC   C1A14435  10.800  15.508   6.612  0.0864 -0.2139  0.0692
 1080YOPC   D2A14436  10.946  15.285   6.937 -0.1857 -0.0055  0.2343
 1080YOPC   C3A14437  10.999  15.369   7.386 -0.1024  0.1635  0.0860
 1080YOPC   C4A14438  11.295  15.311   7.793  0.2494  0.0989 -0.1674
 1080YOPC   C1B14439  10.439  15.179   6.639  0.1246 -0.1632 -0.1242
 1080YOPC   C2B14440  10.621  14.921   6.914  0.0727 -0.1912 -0.2308
 1080YOPC   D3B14441  10.688  14.718   7.358  0.3528  0.2677 -0.4888
 1080YOPC   C4B14442  10.987  14.468   7.573 -0.2297  0.0308  0.2178
 1081YOPC   NC314443  12.305   0.205   5.874  0.2323  0.1450  0.1682
 1081YOPC   PO414444  12.650   0.467   5.829 -0.0768  0.1581 -0.0746
 1081YOPC   GL114445  12.368   0.708   6.071  0.0820  0.1230  0.0521
 1081YOPC   GL214446  12.607   0.931   6.160 -0.0700 -0.0743  0.0791
 1081YOPC   C1A14447  12.088   0.817   6.452  0.0100  0.0442 -0.0164
 1081YOPC   D2A14448  11.823   0.625   6.762  0.1052 -0.1671  0.5174
 1081YOPC   C3A14449  11.653   0.751   7.184  0.1035  0.1813  0.0872
 1081YOPC   C4A14450  11.386   0.704   7.406  0.1455  0.0114 -0.3049
 1081YOPC   C1B14451  12.524   0.723   6.531 -0.1985  0.0314 -0.0412
 1081YOPC   C2B14452  12.686   0.664   6.912 -0.1524  0.3300 -0.0067
 1081YOPC   D3B14453  12.653   0.637   7.302  0.0602  0.0274 -0.2890
 1081YOPC   C4B14454  12.887   0.428   7.668 -0.4895  0.1124  0.0224
 1082YOPC   NC314455  16.681   6.061   5.622  0.2250  0.2065 -0.3677
 1082YOPC   PO414456  16.766   6.408   5.417 -0.1581 -0.1743  0.0388
 1082YOPC   GL114457  16.663   6.577   5.902  0.1420  0.0964 -0.0726
 1082YOPC   GL214458  16.952   6.802   5.945  0.4198 -0.0788  0.0005
 1082YOPC   C1A14459  16.506   6.661   6.307  0.0904  0.5698 -0.2334
 1082YOPC   D2A14460  16.436   6.486   6.744  0.4471  0.0958 -0.0250
 1082YOPC   C3A14461  16.583   6.081   6.771  0.1745 -0.0793  0.0884
 1082YOPC   C4A14462  16.846   5.704   6.590 -0.0515  0.0205 -0.1859
 1082YOPC   C1B14463  16.871   6.952   6.394 -0.0605 -0.5640  0.0580
 1082YOPC   C2B14464  17.002   7.237   6.745  0.0417  0.0634  0.1151
 1082YOPC   D3B14465  16.821   7.505   7.014  0.4045  0.0095  0.0657
 1082YOPC   C4B14466  16.315   7.576   7.045 -0.0790  0.0283  0.1128
 1083YOPC   NC314467  12.787  13.811   4.851  0.0964  0.3275  0.5225
 1083YOPC   PO414468  12.702  13.970   5.249 -0.2601 -0.0241  0.3254
 1083YOPC   GL114469  12.910  14.276   5.432 -0.1465 -0.0307 -0.1533
 1083YOPC   GL214470  13.267  14.329   5.341 -0.1072 -0.0145  0.1811
 1083YOPC   C1A14471  12.848  14.447   5.792 -0.2605  0.1380  0.0746
 1083YOPC   D2A14472  12.766  14.421   6.210  0.0590  0.1831  0.3044
 1083YOPC   C3A14473  12.513  14.144   6.579 -0.2262 -0.0598 -0.3318
 1083YOPC   C4A14474  12.092  14.188   6.619 -0.2291 -0.1976 -0.0737
 1083YOPC   C1B14475  13.380  14.610   5.759  0.0269 -0.4854  0.1402
 1083YOPC   C2B14476  13.416  14.916   5.989  0.0701 -0.2328  0.1171
 1083YOPC   D3B14477  13.674  14.951   6.327 -0.1650 -0.2343 -0.1300
 1083YOPC   C4B14478  13.319  14.753   6.654 -0.1731 -0.1281 -0.0883
 1084YOPC   NC314479  10.812   5.150   5.693  0.0429  0.0418  0.2137
 1084YOPC   PO414480  10.671   5.507   5.500 -0.0300  0.2928  0.1006
 1084YOPC   GL114481  10.847   5.691   5.835 -0.0454 -0.1375  0.0160
 1084YOPC   GL214482  10.950   5.464   6.119  0.1864  0.4089 -0.0730
 1084YOPC   C1A14483  10.747   5.959   6.221 -0.0150  0.1200 -0.1560
 1084YOPC   D2A14484  10.623   5.942   6.665  0.1949 -0.1528  0.2902
 1084YOPC   C3A14485  10.226   6.062   6.849  0.3321  0.2373 -0.0151
 1084YOPC   C4A14486   9.983   6.317   6.674 -0.0796  0.1318 -0.1764
 1084YOPC   C1B14487  10.912   5.524   6.513 -0.0388 -0.0427  0.2214
 1084YOPC   C2B14488  10.974   5.585   6.916 -0.1279  0.4090  0.0647
 1084YOPC   D3B14489  10.894   5.933   7.130 -0.0275 -0.0581  0.1200
 1084YOPC   C4B14490  10.698   6.248   7.067 -0.0370  0.3219  0.0894
 1085YOPC   NC314491   4.858   5.442   5.321  0.3235 -0.2174 -0.0362
 1085YOPC   PO414492   5.198   5.117   5.318  0.2836  0.1234 -0.0370
 1085YOPC   GL114493   5.123   5.287   5.756  0.1368  0.2456 -0.0781
 1085YOPC   GL214494   4.899   5.614   5.877 -0.2813  0.1112 -0.2793
 1085YOPC   C1A14495   5.287   5.272   6.143  0.1048  0.2964 -0.2009
 1085YOPC   D2A14496   5.316   5.573   6.518  0.0847  0.4008 -0.2465
 1085YOPC   C3A14497   5.808   5.791   6.496 -0.0484 -0.2426  0.2709
 1085YOPC   C4A14498   6.240   5.730   6.631  0.2553 -0.3088  0.2958
 1085YOPC   C1B14499   4.812   5.736   6.258 -0.2635  0.1622 -0.1162
 1085YOPC   C2B14500   4.819   5.657   6.703  0.1098  0.1440 -0.3320
 1085YOPC   D3B14501   4.889   5.409   7.078 -0.1683  0.2569  0.3567
 1085YOPC   C4B14502   4.929   5.411   7.485 -0.0244 -0.1302 -0.0485
 1086YOPC   NC314503   0.051  18.246   4.242  0.2219  0.0825 -0.2156
 1086YOPC   PO414504  -0.049  18.025   4.662 -0.2913 -0.0969 -0.0856
 1086YOPC   GL114505  -0.115  17.988   5.133 -0.0042  0.2478  0.4157
 1086YOPC   GL214506   0.116  17.776   5.137  0.0743 -0.1309  0.2903
 1086YOPC   C1A14507  -0.409  17.858   5.477  0.1069 -0.2887 -0.0040
 1086YOPC   D2A14508  -0.600  17.635   5.807  0.1141 -0.1497  0.1559
 1086YOPC   C3A14509  -0.456  17.810   6.207  0.1764 -0.4135  0.0202
 1086YOPC   C4A14510  -0.300  18.192   6.152 -0.0814 -0.4600 -0.4444
 1086YOPC   C1B14511   0.224  17.911   5.549 -0.0919 -0.1865  0.0553
 1086YOPC   C2B14512  -0.047  17.811   5.872  0.0499  0.1939  0.0946
 1086YOPC   D3B14513   0.049  17.653   6.143 -0.1701  0.0032  0.0039
 1086YOPC   C4B14514  -0.001  17.630   6.577 -0.2798 -0.2502 -0.3061
 1087YOPC   NC314515  13.047   0.309   5.526  0.2025  0.1440  0.0497
 1087YOPC   PO414516  13.403   0.522   5.440 -0.4109 -0.0505 -0.0102
 1087YOPC   GL114517  13.379   0.395   5.854  0.2622  0.3211 -0.3334
 1087YOPC   GL214518  13.156   0.637   6.007  0.0583 -0.4084  0.3295
 1087YOPC   C1A14519  13.519   0.408   6.227 -0.0738  0.0491  0.1144
 1087YOPC   D2A14520  13.492   0.093   6.611  0.0247 -0.3097 -0.0590
 1087YOPC   C3A14521  13.570  -0.255   6.560  0.0388 -0.1930  0.0676
 1087YOPC   C4A14522  13.844  -0.465   6.325 -0.1575  0.1038  0.0016
 1087YOPC   C1B14523  13.501   0.877   6.220 -0.1837 -0.0436  0.3142
 1087YOPC   C2B14524  13.645   1.073   6.549  0.1358  0.1548 -0.2118
 1087YOPC   D3B14525  13.874   1.026   6.949 -0.2865 -0.0926 -0.3932
 1087YOPC   C4B14526  14.117   0.932   7.288 -0.1611 -0.4457 -0.3071
 1088YOPC   NC314527  13.499  17.869   5.625 -0.0029  0.1694  0.0225
 1088YOPC   PO414528  13.066  17.769   5.635  0.0338 -0.1152 -0.2971
 1088YOPC   GL114529  13.008  17.778   6.058 -0.0725  0.1509 -0.0918
 1088YOPC   GL214530  12.660  17.667   6.119  0.2066  0.1789  0.2879
 1088YOPC   C1A14531  13.215  17.869   6.423  0.0896  0.0274  0.0934
 1088YOPC   D2A14532  13.134  17.918   6.803 -0.0835 -0.0661 -0.0412
 1088YOPC   C3A14533  13.267  17.701   7.085  0.1425  0.0052  0.2355
 1088YOPC   C4A14534  13.616  17.503   7.192  0.0878  0.1093 -0.2456
 1088YOPC   C1B14535  12.779  17.662   6.509  0.1088 -0.1556 -0.2005
 1088YOPC   C2B14536  12.780  17.477   6.890  0.2251 -0.2266  0.1285
 1088YOPC   D3B14537  12.731  17.686   7.225  0.0157  0.0983  0.2818
 1088YOPC   C4B14538  12.361  17.794   7.355 -0.0758  0.6868 -0.1278
 1089YOPC   NC314539   9.776   3.860   5.392  0.0412 -0.2622 -0.1105
 1089YOPC   PO414540   9.672   4.342   5.549  0.1740 -0.0715  0.1216
 1089YOPC   GL114541   9.839   4.542   5.971 -0.3459  0.0630  0.1748
 1089YOPC   GL214542   9.695   4.402   6.258  0.2890  0.2363 -0.1517
 1089YOPC   C1A14543   9.891   4.829   6.198 -0.0155 -0.1700 -0.0549
 1089YOPC   D2A14544  10.059   5.060   6.614 -0.0751 -0.1871 -0.0880
 1089YOPC   C3A14545   9.837   5.403   6.822 -0.0977 -0.1081 -0.2147
 1089YOPC   C4A14546   9.870   5.867   7.058 -0.1080 -0.0196 -0.2461
 1089YOPC   C1B14547   9.646   4.687   6.580 -0.0195 -0.3866 -0.1310
 1089YOPC   C2B14548   9.795   4.647   6.918 -0.0552  0.2456 -0.2077
 1089YOPC   D3B14549  10.070   4.906   7.110 -0.2799  0.0484 -0.1262
 1089YOPC   C4B14550  10.080   5.309   7.252  0.1772  0.0155  0.2475
 1090YOPC   NC314551   3.065  14.152   5.608 -0.5726 -0.2004 -0.3951
 1090YOPC   PO414552   2.611  14.265   5.682 -0.3854 -0.0972 -0.1441
 1090YOPC   GL114553   2.897  14.409   6.034  0.0249  0.0148 -0.0563
 1090YOPC   GL214554   2.611  14.157   6.143  0.0577 -0.0110  0.5746
 1090YOPC   C1A14555   3.107  14.333   6.358  0.0615  0.0973  0.0479
 1090YOPC   D2A14556   3.199  13.896   6.531  0.1374 -0.0488 -0.0408
 1090YOPC   C3A14557   3.449  13.707   6.875  0.2145  0.0511  0.0606
 1090YOPC   C4A14558   3.953  13.581   7.004  0.1670 -0.3255  0.0494
 1090YOPC   C1B14559   2.744  14.017   6.467  0.0432  0.0821 -0.2222
 1090YOPC   C2B14560   2.878  13.867   6.833  0.1017  0.0633 -0.2762
 1090YOPC   D3B14561   2.795  13.484   6.977  0.1208  0.0409 -0.1753
 1090YOPC   C4B14562   3.157  13.272   7.115 -0.0741  0.4636  0.3153
 1091YOPC   NC314563   6.443   6.807   5.198  0.1160 -0.0179  0.0589
 1091YOPC   PO414564   6.051   6.612   5.461  0.0622 -0.1772 -0.3696
 1091YOPC   GL114565   6.285   6.736   5.862 -0.0690  0.1918 -0.4148
 1091YOPC   GL214566   6.328   7.087   6.108 -0.2965 -0.6096 -0.2991
 1091YOPC   C1A14567   6.497   6.615   6.219 -0.0217 -0.2559 -0.3729
 1091YOPC   D2A14568   6.638   6.596   6.650  0.0077  0.0194  0.0009
 1091YOPC   C3A14569   6.793   6.592   7.058 -0.0661 -0.1258 -0.0092
 1091YOPC   C4A14570   6.895   6.840   7.334 -0.1694 -0.0653 -0.0610
 1091YOPC   C1B14571   6.552   7.041   6.543 -0.1563  0.1298 -0.3296
 1091YOPC   C2B14572   6.779   7.055   6.904 -0.4110  0.1543 -0.1301
 1091YOPC   D3B14573   6.744   7.455   7.245  0.2385 -0.1762 -0.0106
 1091YOPC   C4B14574   6.638   7.629   7.661  0.1530 -0.2023 -0.1815
 1092YOPC   NC314575   7.955   2.840   6.196  0.0953 -0.0088  0.1572
 1092YOPC   PO414576   7.914   3.253   6.036  0.2246 -0.0555  0.3223
 1092YOPC   GL114577   8.074   3.471   6.398 -0.3482 -0.3163 -0.3059
 1092YOPC   GL214578   7.750   3.512   6.451  0.0684  0.3313  0.0974
 1092YOPC   C1A14579   8.327   3.565   6.620  0.0758  0.0984 -0.1113
 1092YOPC   D2A14580   8.503   3.955   6.809 -0.0028 -0.0784 -0.0652
 1092YOPC   C3A14581   8.411   3.981   7.257  0.0894 -0.1233 -0.0100
 1092YOPC   C4A14582   8.590   3.843   7.637  0.1784 -0.1570 -0.1243
 1092YOPC   C1B14583   7.465   3.570   6.717  0.1706  0.2519  0.0815
 1092YOPC   C2B14584   7.334   3.908   6.772  0.1391  0.2539  0.0698
 1092YOPC   D3B14585   7.193   4.035   7.206 -0.0435 -0.2746  0.0619
 1092YOPC   C4B14586   6.992   3.995   7.577 -0.0398  0.1364  0.6106
 1093YOPC   NC314587  18.699  10.808   5.732 -0.2218 -0.4162  0.0025
 1093YOPC   PO414588  18.664  10.372   5.577  0.0403  0.1922  0.4045
 1093YOPC   GL114589  18.637  10.385   5.979  0.0545 -0.1109 -0.0456
 1093YOPC   GL214590  19.023  10.457   6.015 -0.1246 -0.2243 -0.0455
 1093YOPC   C1A14591  18.749  10.303   6.425  0.0213 -0.1481 -0.0752
 1093YOPC   D2A14592  18.740  10.179   6.787 -0.0259  0.1756  0.0735
 1093YOPC   C3A14593  18.965  10.261   7.127 -0.1510 -0.1061  0.2277
 1093YOPC   C4A14594  19.320  10.181   7.358 -0.0071 -0.1537  0.2590
 1093YOPC   C1B14595  19.018  10.730   6.354 -0.1011 -0.1490 -0.2774
 1093YOPC   C2B14596  18.972  11.089   6.666 -0.2525 -0.1353 -0.0074
 1093YOPC   D3B14597  18.774  11.306   7.019  0.1880 -0.0443  0.0179
 1093YOPC   C4B14598  18.559  11.534   7.288  0.0930 -0.1092  0.0224
 1094YOPC   NC314599  14.073  16.305   5.271  0.0897  0.4896 -0.0131
 1094YOPC   PO414600  13.798  15.891   5.423 -0.3015  0.0998  0.1103
 1094YOPC   GL114601  13.849  15.967   5.872  0.2608 -0.1445 -0.1105
 1094YOPC   GL214602  14.128  16.001   5.955  0.2742 -0.0595  0.1360
 1094YOPC   C1A14603  13.680  16.133   6.266  0.0841  0.0958 -0.0554
 1094YOPC   D2A14604  13.607  16.482   6.554 -0.0429  0.0331  0.0385
 1094YOPC   C3A14605  13.859  16.515   6.998 -0.2227  0.1391  0.0157
 1094YOPC   C4A14606  13.761  16.693   7.488 -0.1237  0.3698 -0.4161
 1094YOPC   C1B14607  14.050  15.826   6.354 -0.1295  0.1747 -0.0907
 1094YOPC   C2B14608  14.013  16.108   6.742  0.0423  0.1820 -0.3107
 1094YOPC   D3B14609  13.927  15.984   7.183  0.1528  0.0451 -0.1173
 1094YOPC   C4B14610  14.066  16.283   7.531  0.2768  0.1163 -0.2197
 1095YOPC   NC314611   2.026  10.521   5.608  0.2630 -0.1079  0.0686
 1095YOPC   PO414612   1.899  10.820   5.296  0.0944 -0.3151  0.0437
 1095YOPC   GL114613   1.736  10.929   5.612 -0.3112  0.1310 -0.3072
 1095YOPC   GL214614   1.441  11.167   5.516  0.2812 -0.1274 -0.3266
 1095YOPC   C1A14615   2.007  10.962   6.068  0.0130 -0.1617 -0.1476
 1095YOPC   D2A14616   2.174  11.158   6.391  0.1772  0.1737 -0.0017
 1095YOPC   C3A14617   1.952  11.160   6.740  0.1630  0.1666  0.1322
 1095YOPC   C4A14618   1.698  11.067   7.073  0.1649  0.2672  0.0259
 1095YOPC   C1B14619   1.332  11.266   6.037  0.0347  0.1026 -0.0509
 1095YOPC   C2B14620   1.570  11.252   6.439  0.0213 -0.1477  0.1942
 1095YOPC   D3B14621   1.286  11.243   6.750  0.4043 -0.2620  0.4080
 1095YOPC   C4B14622   0.875  11.286   6.915 -0.4937  0.0288 -0.1263
 1096YOPC   NC314623  18.060   7.683   5.146 -0.0257  0.1751 -0.1977
 1096YOPC   PO414624  17.694   7.920   5.240 -0.2831  0.1759 -0.1894
 1096YOPC   GL114625  17.902   7.883   5.722 -0.1111  0.0295  0.0788
 1096YOPC   GL214626  18.247   7.959   5.746 -0.3244  0.4289  0.0128
 1096YOPC   C1A14627  18.005   7.649   6.115 -0.0010  0.0432  0.1964
 1096YOPC   D2A14628  18.010   7.867   6.639 -0.0655  0.0208  0.1117
 1096YOPC   C3A14629  17.509   8.111   6.735 -0.0194  0.1719  0.0210
 1096YOPC   C4A14630  17.196   8.397   6.761 -0.2744 -0.1477  0.0423
 1096YOPC   C1B14631  18.271   8.098   6.171  0.0276  0.3517 -0.1204
 1096YOPC   C2B14632  18.065   8.391   6.418 -0.0319  0.1167  0.3389
 1096YOPC   D3B14633  17.948   8.361   6.895  0.0099 -0.2152 -0.2185
 1096YOPC   C4B14634  17.567   8.347   7.236  0.0143  0.3292 -0.3985
 1097YOPC   NC314635  11.336  16.802   5.066 -0.2526 -0.1669  0.0582
 1097YOPC   PO414636  11.082  16.430   5.236 -0.0377  0.0229  0.1631
 1097YOPC   GL114637  11.036  16.560   5.659  0.1771  0.0294 -0.1131
 1097YOPC   GL214638  11.167  16.679   5.941  0.3083 -0.0064  0.3313
 1097YOPC   C1A14639  10.670  16.580   5.948 -0.2137  0.0241 -0.1511
 1097YOPC   D2A14640  10.549  16.985   6.120 -0.0380  0.0511 -0.1268
 1097YOPC   C3A14641  10.456  17.125   6.559  0.1405 -0.1954  0.0137
 1097YOPC   C4A14642  10.597  17.002   6.947  0.1540 -0.2944 -0.0950
 1097YOPC   C1B14643  10.950  16.550   6.427  0.3042  0.2642 -0.1394
 1097YOPC   C2B14644  10.713  16.562   6.818 -0.1115  0.1832 -0.2991
 1097YOPC   D3B14645  10.969  16.346   7.174 -0.6458  0.2322 -0.3045
 1097YOPC   C4B14646  11.016  16.376   7.604 -0.0934  0.0962  0.0182
 1098YOPC   NC314647   2.571  15.883   5.104  0.0302 -0.0248  0.1042
 1098YOPC   PO414648   2.606  16.051   5.474  0.0220  0.1255  0.1298
 1098YOPC   GL114649   2.282  16.248   5.793 -0.1087 -0.0705 -0.1733
 1098YOPC   GL214650   2.078  16.066   5.902 -0.1201 -0.0077  0.0620
 1098YOPC   C1A14651   2.304  16.697   6.026  0.0123  0.1231  0.1935
 1098YOPC   D2A14652   2.585  17.045   6.248  0.2667 -0.2553  0.2913
 1098YOPC   C3A14653   2.654  16.968   6.622  0.0731 -0.0635 -0.2477
 1098YOPC   C4A14654   2.632  16.843   7.055  0.0901 -0.3031 -0.2150
 1098YOPC   C1B14655   2.037  16.150   6.385 -0.2815  0.0809 -0.0414
 1098YOPC   C2B14656   1.742  16.298   6.715  0.1714 -0.1379  0.1012
 1098YOPC   D3B14657   1.488  16.044   6.925  0.0547  0.0128 -0.0266
 1098YOPC   C4B14658   1.391  15.639   7.042 -0.2235  0.0351  0.0747
 1099YOPC   NC314659   2.195   3.042   5.392  0.3812  0.2901  0.0367
 1099YOPC   PO414660   2.069   3.379   5.647  0.1172 -0.1055 -0.1522
 1099YOPC   GL114661   2.008   3.367   6.055 -0.1971  0.0667  0.0389
 1099YOPC   GL214662   2.137   3.633   6.028  0.0200 -0.1791 -0.4854
 1099YOPC   C1A14663   2.042   3.368   6.426 -0.0759 -0.1764  0.0015
 1099YOPC   D2A14664   1.942   3.334   6.784  0.2470 -0.1199  0.2764
 1099YOPC   C3A14665   2.240   3.125   7.122  0.1272 -0.1322 -0.1241
 1099YOPC   C4A14666   2.708   2.940   7.125 -0.1259 -0.2486 -0.4259
 1099YOPC   C1B14667   2.250   3.914   6.341  0.0459 -0.1735  0.0926
 1099YOPC   C2B14668   2.339   4.036   6.651 -0.1230 -0.1565 -0.4189
 1099YOPC   D3B14669   2.146   3.769   7.059 -0.3965  0.0029  0.2547
 1099YOPC   C4B14670   1.940   3.520   7.355 -0.2039 -0.0672 -0.1417
 1100YOPC   NC314671  10.341   4.596   5.713  0.0599 -0.2640  0.0820
 1100YOPC   PO414672  10.816   4.679   5.729 -0.0185  0.0547 -0.1497
 1100YOPC   GL114673  10.777   4.479   6.126  0.1922 -0.0822 -0.1066
 1100YOPC   GL214674  10.769   4.232   6.198  0.0295 -0.3130  0.0217
 1100YOPC   C1A14675  11.020   4.428   6.532 -0.0243  0.0593 -0.0033
 1100YOPC   D2A14676  11.163   4.458   6.873  0.0814  0.0243  0.1084
 1100YOPC   C3A14677  11.241   4.116   6.955  0.0829  0.0357  0.2094
 1100YOPC   C4A14678  11.263   3.694   6.731  0.0279 -0.3012 -0.1462
 1100YOPC   C1B14679  10.521   3.965   6.323 -0.0134  0.1878 -0.2130
 1100YOPC   C2B14680  10.366   3.780   6.672  0.0086 -0.0811  0.1578
 1100YOPC   D3B14681  10.253   3.929   7.103  0.0052  0.2654  0.1052
 1100YOPC   C4B14682  10.032   3.768   7.428  0.1805 -0.1206 -0.1141
 1101YOPC   NC314683   3.423  11.745   4.792 -0.0553  0.1937 -0.1210
 1101YOPC   PO414684   3.112  11.862   5.060  0.3626 -0.1007  0.1455
 1101YOPC   GL114685   2.936  11.746   5.439 -0.0121 -0.1217 -0.2739
 1101YOPC   GL214686   3.015  11.996   5.628 -0.0917  0.3389  0.5476
 1101YOPC   C1A14687   2.718  11.572   5.824  0.0681  0.3056 -0.0715
 1101YOPC   D2A14688   2.532  11.296   6.098 -0.2449 -0.0230 -0.0444
 1101YOPC   C3A14689   2.734  11.183   6.416  0.1379  0.1633  0.3341
 1101YOPC   C4A14690   2.550  11.234   6.768  0.0052 -0.0875 -0.2566
 1101YOPC   C1B14691   2.848  12.111   5.943 -0.2208 -0.0301  0.0084
 1101YOPC   C2B14692   2.874  12.391   6.192 -0.2416 -0.0033  0.0713
 1101YOPC   D3B14693   2.965  12.257   6.603  0.0082  0.0015  0.1743
 1101YOPC   C4B14694   3.286  12.486   6.852  0.0647 -0.1734 -0.6410
 1102YOPC   NC314695  16.187  18.770   5.255 -0.1631  0.1608  0.2434
 1102YOPC   PO414696  16.022  18.602   5.662  0.6132  0.2353 -0.0580
 1102YOPC   GL114697  15.911  18.518   6.059  0.2098  0.2388  0.2365
 1102YOPC   GL214698  15.609  18.380   6.082 -0.0257  0.0890  0.0665
 1102YOPC   C1A14699  15.939  18.746   6.330  0.2818 -0.4152  0.0968
 1102YOPC   D2A14700  15.902  18.653   6.823 -0.0741 -0.3141  0.1115
 1102YOPC   C3A14701  16.337  18.793   6.931 -0.0775  0.0707  0.2195
 1102YOPC   C4A14702  16.748  18.971   6.777 -0.0447  0.0890 -0.0372
 1102YOPC   C1B14703  15.553  18.399   6.471  0.0063 -0.1658 -0.0043
 1102YOPC   C2B14704  15.384  18.457   6.876  0.0569 -0.1811  0.0613
 1102YOPC   D3B14705  15.056  18.277   7.014 -0.1012 -0.3783 -0.1757
 1102YOPC   C4B14706  14.997  18.126   7.356  0.0619  0.0373 -0.2854
 1103YOPC   NC314707   1.747  16.489   5.453 -0.1485  0.1480 -0.2848
 1103YOPC   PO414708   1.748  16.047   5.360  0.1035  0.1802 -0.0559
 1103YOPC   GL114709   1.475  16.057   5.728 -0.1143 -0.2047 -0.1282
 1103YOPC   GL214710   1.612  15.964   6.066  0.0172  0.0596 -0.4218
 1103YOPC   C1A14711   1.100  16.034   5.830 -0.2641 -0.0243  0.0844
 1103YOPC   D2A14712   0.970  15.611   6.064 -0.1326 -0.1833  0.0535
 1103YOPC   C3A14713   1.178  15.669   6.386 -0.0924 -0.1378  0.1640
 1103YOPC   C4A14714   1.561  15.736   6.540 -0.1477 -0.2261  0.3020
 1103YOPC   C1B14715   1.481  16.351   6.270  0.1493  0.1674 -0.0452
 1103YOPC   C2B14716   1.318  16.481   6.647  0.0780 -0.2648 -0.2560
 1103YOPC   D3B14717   1.504  16.675   7.020 -0.0916  0.3622  0.2633
 1103YOPC   C4B14718   1.826  16.627   7.180 -0.1575 -0.1019  0.1761
 1104YOPC   NC314719   4.757   2.508   5.812 -0.0306 -0.0876  0.0132
 1104YOPC   PO414720   4.620   2.598   6.133  0.3528 -0.0622 -0.2851
 1104YOPC   GL114721   4.534   2.764   6.514 -0.0587  0.2682 -0.0150
 1104YOPC   GL214722   4.368   3.022   6.540  0.2700 -0.0952  0.0022
 1104YOPC   C1A14723   4.863   3.126   6.624 -0.1630 -0.0712 -0.0179
 1104YOPC   D2A14724   5.395   3.149   6.634  0.0290  0.2117  0.1245
 1104YOPC   C3A14725   5.374   3.093   7.056  0.0890 -0.2317  0.1901
 1104YOPC   C4A14726   5.636   3.118   7.337 -0.1510 -0.0705 -0.2098
 1104YOPC   C1B14727   4.466   3.052   6.943 -0.2590  0.1808  0.0872
 1104YOPC   C2B14728   4.882   2.992   7.256 -0.1378  0.2091  0.2028
 1104YOPC   D3B14729   5.196   3.150   7.565  0.0229  0.1178  0.0754
 1104YOPC   C4B14730   5.135   3.358   7.899  0.0681 -0.2130  0.2813
 1105YOPC   NC314731   2.594  14.910   5.295  0.0059 -0.1042  0.0008
 1105YOPC   PO414732   2.727  14.890   5.755  0.1499 -0.2095 -0.1210
 1105YOPC   GL114733   2.969  15.008   6.042  0.1474  0.2194  0.2556
 1105YOPC   GL214734   3.181  14.832   6.223 -0.3015 -0.2895  0.0041
 1105YOPC   C1A14735   2.937  15.130   6.536  0.2085  0.1784  0.0508
 1105YOPC   D2A14736   2.896  15.122   7.023 -0.1732 -0.0755  0.1565
 1105YOPC   C3A14737   2.542  15.015   7.192  0.2782  0.1229  0.0371
 1105YOPC   C4A14738   2.011  14.911   7.129 -0.1062  0.1248 -0.1214
 1105YOPC   C1B14739   3.162  14.710   6.687 -0.0947 -0.1829 -0.0030
 1105YOPC   C2B14740   3.259  14.677   7.079 -0.0664 -0.0248 -0.2494
 1105YOPC   D3B14741   3.591  14.475   7.363 -0.1194  0.1389 -0.2033
 1105YOPC   C4B14742   3.990  14.279   7.383 -0.1029  0.0147 -0.1066
 1106YOPC   NC314743  17.163   1.274   5.152  0.1786  0.1190 -0.1264
 1106YOPC   PO414744  17.385   1.672   5.444  0.0344  0.0681  0.0204
 1106YOPC   GL114745  17.081   1.505   5.579  0.1422 -0.0042 -0.3216
 1106YOPC   GL214746  16.994   1.120   5.590 -0.1671  0.0220  0.0719
 1106YOPC   C1A14747  16.883   1.756   5.858  0.3468 -0.2517  0.5235
 1106YOPC   D2A14748  16.796   2.105   6.178 -0.0672 -0.1284 -0.0936
 1106YOPC   C3A14749  16.649   2.056   6.482 -0.1727 -0.1964 -0.1900
 1106YOPC   C4A14750  16.517   2.061   6.874  0.3226 -0.0566  0.0146
 1106YOPC   C1B14751  17.115   1.342   6.034  0.1555  0.0688  0.2381
 1106YOPC   C2B14752  17.235   1.420   6.415  0.2277  0.0510  0.4058
 1106YOPC   D3B14753  17.158   1.817   6.470 -0.4534  0.2667  0.2120
 1106YOPC   C4B14754  17.473   1.994   6.631 -0.2093 -0.1554 -0.1488
 1107YOPC   NC314755   3.878  17.677   5.847 -0.1766 -0.1365  0.0675
 1107YOPC   PO414756   3.788  17.682   6.242  0.2830  0.0640  0.2360
 1107YOPC   GL114757   3.347  17.645   6.356 -0.0369  0.0770  0.0444
 1107YOPC   GL214758   3.070  17.455   6.329 -0.0039  0.2293  0.2554
 1107YOPC   C1A14759   2.864  17.889   6.398  0.2353  0.0987  0.3451
 1107YOPC   D2A14760   2.517  17.605   6.561  0.2244 -0.0596  0.1543
 1107YOPC   C3A14761   2.280  17.406   6.462  0.3575  0.0019 -0.2788
 1107YOPC   C4A14762   2.140  17.174   6.111 -0.5416 -0.0732 -0.2389
 1107YOPC   C1B14763   2.907  17.510   6.724  0.1308  0.0886 -0.0757
 1107YOPC   C2B14764   2.603  17.388   7.033 -0.1140  0.2196 -0.2491
 1107YOPC   D3B14765   2.658  17.303   7.469  0.1933 -0.4414  0.1779
 1107YOPC   C4B14766   2.809  16.923   7.738  0.0711  0.1136  0.0176
 1108YOPC   NC314767  12.401   2.872   5.650 -0.0917 -0.0966 -0.0880
 1108YOPC   PO414768  12.148   3.259   5.756 -0.0562 -0.0522 -0.1752
 1108YOPC   GL114769  12.125   3.508   6.158  0.1374  0.3909 -0.0651
 1108YOPC   GL214770  11.941   3.254   6.301 -0.1861 -0.0688  0.2325
 1108YOPC   C1A14771  12.198   3.504   6.632 -0.1752  0.0687 -0.0947
 1108YOPC   D2A14772  12.372   3.760   6.921 -0.3813 -0.0733  0.0582
 1108YOPC   C3A14773  12.303   3.440   7.295 -0.0518  0.0571  0.0561
 1108YOPC   C4A14774  12.005   3.140   7.123  0.3383  0.0541 -0.1550
 1108YOPC   C1B14775  11.978   2.906   6.615  0.3755 -0.2019  0.0043
 1108YOPC   C2B14776  11.831   2.619   6.913 -0.2086 -0.2820  0.2333
 1108YOPC   D3B14777  11.863   2.695   7.393  0.2033 -0.2263 -0.0130
 1108YOPC   C4B14778  11.553   2.825   7.687 -0.0200 -0.0571  0.0466
 1109YOPC   NC314779   9.227   0.174   5.605  0.1959  0.0269  0.0803
 1109YOPC   PO414780   9.143  -0.212   5.725 -0.1979  0.0421  0.0826
 1109YOPC   GL114781   9.168  -0.052   6.118 -0.0861 -0.0742 -0.0666
 1109YOPC   GL214782   8.960  -0.150   6.434  0.1092  0.2124 -0.2192
 1109YOPC   C1A14783   9.465  -0.012   6.348 -0.2079  0.0096 -0.1465
 1109YOPC   D2A14784   9.736   0.175   6.673  0.1947  0.1684  0.1010
 1109YOPC   C3A14785   9.704  -0.020   7.073 -0.1875  0.1587 -0.3625
 1109YOPC   C4A14786   9.726  -0.255   7.445  0.0516 -0.0585 -0.1638
 1109YOPC   C1B14787   8.836  -0.392   6.810  0.0381  0.0328 -0.1242
 1109YOPC   C2B14788   8.852  -0.647   7.162  0.0370  0.1780  0.0401
 1109YOPC   D3B14789   8.549  -0.827   7.433  0.0606 -0.1710 -0.1421
 1109YOPC   C4B14790   8.349  -1.007   7.901  0.0881 -0.1887 -0.0003
 1110YOPC   NC314791  18.771  15.806   5.538  0.1769 -0.4065  0.0534
 1110YOPC   PO414792  19.099  15.514   5.412  0.0194 -0.1155  0.2132
 1110YOPC   GL114793  19.367  15.728   5.609  0.0523  0.0844  0.3320
 1110YOPC   GL214794  19.044  15.792   5.968  0.2357  0.1378  0.1409
 1110YOPC   C1A14795  19.607  15.879   5.957 -0.0187 -0.1793 -0.3973
 1110YOPC   D2A14796  19.705  15.786   6.454  0.0636  0.1430  0.0503
 1110YOPC   C3A14797  19.606  15.565   6.755  0.2302  0.0763  0.3075
 1110YOPC   C4A14798  19.677  15.337   7.045  0.2153  0.2959  0.1304
 1110YOPC   C1B14799  19.198  15.784   6.321 -0.3557  0.1604  0.0182
 1110YOPC   C2B14800  19.222  15.958   6.751 -0.3394  0.2426 -0.0543
 1110YOPC   D3B14801  19.033  16.080   7.124 -0.0396 -0.0113 -0.1520
 1110YOPC   C4B14802  18.829  16.005   7.522  0.0357 -0.1931  0.0539
 1111YOPC   NC314803   5.493  12.682   5.365  0.1304 -0.2283 -0.0607
 1111YOPC   PO414804   5.227  13.001   5.377 -0.0019  0.2549  0.2346
 1111YOPC   GL114805   5.365  13.383   5.519 -0.0713 -0.0006 -0.0002
 1111YOPC   GL214806   5.433  13.356   5.819 -0.1674 -0.0356  0.0568
 1111YOPC   C1A14807   5.169  13.794   5.760 -0.3084  0.0742  0.0563
 1111YOPC   D2A14808   5.067  14.193   6.033  0.2032 -0.1435 -0.1611
 1111YOPC   C3A14809   4.887  14.213   6.422  0.0347  0.3046  0.3025
 1111YOPC   C4A14810   4.650  13.955   6.580  0.0924  0.1456  0.2105
 1111YOPC   C1B14811   5.585  13.246   6.184 -0.2667  0.2741  0.0544
 1111YOPC   C2B14812   5.632  13.173   6.549 -0.0268 -0.2841  0.1789
 1111YOPC   D3B14813   5.391  13.272   6.874  0.0032  0.0132  0.1306
 1111YOPC   C4B14814   5.059  13.236   6.957 -0.2653 -0.0501 -0.0740
 1112YOPC   NC314815  16.355   0.997   5.503 -0.1601 -0.1070  0.1161
 1112YOPC   PO414816  16.210   0.561   5.483 -0.0187 -0.3391 -0.0306
 1112YOPC   GL114817  15.962   0.446   5.871  0.1943  0.1321 -0.0193
 1112YOPC   GL214818  16.154   0.727   6.033 -0.0563 -0.1053 -0.0937
 1112YOPC   C1A14819  16.045   0.286   6.283  0.4026  0.0546 -0.3233
 1112YOPC   D2A14820  15.835   0.134   6.746  0.0360  0.1985  0.2419
 1112YOPC   C3A14821  16.061   0.195   7.182  0.0558 -0.1663 -0.0800
 1112YOPC   C4A14822  15.885   0.153   7.591  0.0361  0.1925 -0.0082
 1112YOPC   C1B14823  16.368   0.691   6.435  0.4606 -0.0350 -0.1358
 1112YOPC   C2B14824  16.816   0.624   6.643  0.1465  0.1273 -0.0853
 1112YOPC   D3B14825  17.010   0.358   6.960  0.1792  0.0162 -0.1522
 1112YOPC   C4B14826  17.341   0.131   7.210 -0.0680 -0.3703  0.0431
 1113YOPC   NC314827  15.835   9.258   4.955 -0.3276  0.0766 -0.1708
 1113YOPC   PO414828  15.897   9.113   5.342  0.0337  0.0754 -0.1546
 1113YOPC   GL114829  15.990   9.290   5.813  0.1626 -0.1587  0.1271
 1113YOPC   GL214830  15.926   9.682   5.874  0.2971  0.2692  0.0216
 1113YOPC   C1A14831  16.076   9.337   6.251  0.3598  0.2882  0.0263
 1113YOPC   D2A14832  16.229   9.455   6.615  0.0026 -0.0775  0.0532
 1113YOPC   C3A14833  16.023   9.122   6.818 -0.0913 -0.2539  0.0862
 1113YOPC   C4A14834  16.055   9.014   7.208  0.1806 -0.0847 -0.3435
 1113YOPC   C1B14835  15.882   9.822   6.272  0.0816  0.2504  0.0832
 1113YOPC   C2B14836  15.898   9.895   6.702  0.0986  0.1456 -0.0760
 1113YOPC   D3B14837  15.722   9.740   6.927 -0.0642  0.0465 -0.1169
 1113YOPC   C4B14838  15.618   9.293   7.049 -0.3096 -0.3503  0.0886
 1114YOPC   NC314839  17.389  18.760   5.291  0.0674  0.1362  0.0627
 1114YOPC   PO414840  17.248  18.444   5.412 -0.0547  0.2427 -0.0471
 1114YOPC   GL114841  17.294  18.027   5.812 -0.0858 -0.3094 -0.0043
 1114YOPC   GL214842  17.495  17.966   5.666  0.0014 -0.1483  0.0646
 1114YOPC   C1A14843  17.399  18.142   6.188  0.0196  0.2620  0.1195
 1114YOPC   D2A14844  17.252  18.207   6.630  0.1269 -0.3025 -0.3787
 1114YOPC   C3A14845  17.087  18.617   6.501  0.1373 -0.0243 -0.5948
 1114YOPC   C4A14846  16.943  19.024   6.241 -0.0069  0.2150 -0.0905
 1114YOPC   C1B14847  17.821  18.222   5.814  0.2536  0.1786 -0.2229
 1114YOPC   C2B14848  17.945  18.453   6.112  0.2895 -0.1369 -0.0253
 1114YOPC   D3B14849  17.946  18.906   5.961 -0.1314 -0.0361  0.1293
 1114YOPC   C4B14850  17.891  19.233   5.936 -0.0448  0.0996 -0.1161
 1115YOPC   NC314851   3.396  18.264   5.708  0.1383 -0.1160 -0.0779
 1115YOPC   PO414852   3.681  18.131   5.984 -0.2681 -0.2122 -0.1456
 1115YOPC   GL114853   3.525  18.099   6.368 -0.0752 -0.1759  0.1119
 1115YOPC   GL214854   3.172  18.320   6.379 -0.0183  0.2334 -0.2992
 1115YOPC   C1A14855   3.685  18.147   6.779  0.0057  0.1329  0.0502
 1115YOPC   D2A14856   3.609  18.119   7.157 -0.2139  0.1451  0.2223
 1115YOPC   C3A14857   3.938  18.064   7.466 -0.0535 -0.0661 -0.0098
 1115YOPC   C4A14858   3.977  17.654   7.694  0.2581  0.0384 -0.0385
 1115YOPC   C1B14859   3.127  18.120   6.784 -0.0104  0.2155  0.0433
 1115YOPC   C2B14860   2.765  18.116   7.107  0.0142 -0.0174  0.1491
 1115YOPC   D3B14861   2.933  18.479   7.356 -0.0827 -0.1826 -0.5940
 1115YOPC   C4B14862   2.725  18.837   7.587  0.0273  0.4432  0.0507
 1116YOPC   NC314863   1.906  11.836   5.498  0.1090 -0.0595 -0.1490
 1116YOPC   PO414864   2.055  12.113   5.271  0.1704  0.1339 -0.1289
 1116YOPC   GL114865   1.944  12.275   5.696 -0.2418 -0.2703  0.2580
 1116YOPC   GL214866   1.630  12.288   5.728  0.2476  0.0961  0.4353
 1116YOPC   C1A14867   2.080  12.113   6.106 -0.1359 -0.1447  0.1441
 1116YOPC   D2A14868   2.282  12.229   6.561 -0.0864  0.0155 -0.0270
 1116YOPC   C3A14869   2.121  12.488   6.926  0.0686  0.0719  0.0639
 1116YOPC   C4A14870   2.342  12.762   7.209 -0.0766  0.0283 -0.2404
 1116YOPC   C1B14871   1.634  12.642   5.950 -0.0890 -0.0177  0.0489
 1116YOPC   C2B14872   1.836  12.763   6.248 -0.1501  0.1056  0.1138
 1116YOPC   D3B14873   1.958  12.865   6.609 -0.1393  0.0643 -0.3575
 1116YOPC   C4B14874   1.958  12.959   6.982 -0.0797 -0.0193 -0.0643
 1117YOPC   NC314875   9.440  15.615   5.803 -0.0537  0.0829  0.2406
 1117YOPC   PO414876   9.390  15.349   5.485 -0.1399 -0.0122  0.0453
 1117YOPC   GL114877   9.309  15.174   5.857 -0.0318 -0.0952 -0.0775
 1117YOPC   GL214878   8.998  15.052   5.834 -0.1804 -0.1082  0.1835
 1117YOPC   C1A14879   9.431  14.915   6.259 -0.3883 -0.5656 -0.0975
 1117YOPC   D2A14880   9.643  14.883   6.653 -0.0504 -0.3204  0.1297
 1117YOPC   C3A14881   9.551  15.103   6.987 -0.0088 -0.0853 -0.2679
 1117YOPC   C4A14882   9.481  15.160   7.373  0.1401 -0.0106  0.0070
 1117YOPC   C1B14883   8.960  15.237   6.209 -0.1175  0.3904  0.2331
 1117YOPC   C2B14884   9.103  15.320   6.630  0.2632  0.1038 -0.0449
 1117YOPC   D3B14885   8.881  15.284   6.892  0.0469  0.2081 -0.0509
 1117YOPC   C4B14886   8.548  15.092   7.063 -0.0988 -0.1479  0.2545
 1118YOPC   NC314887   9.482  10.393   5.281 -0.1145 -0.0072  0.3243
 1118YOPC   PO414888   9.162  10.553   5.511 -0.2422  0.1028  0.0846
 1118YOPC   GL114889   8.848  10.576   5.905 -0.0371 -0.1703 -0.1715
 1118YOPC   GL214890   8.829  10.951   6.057 -0.1326  0.0140  0.1085
 1118YOPC   C1A14891   8.439  10.674   6.130  0.1440  0.2305  0.1319
 1118YOPC   D2A14892   8.155  10.546   6.391 -0.0591 -0.1133  0.0060
 1118YOPC   C3A14893   8.116  10.601   6.745 -0.1672 -0.0845 -0.2716
 1118YOPC   C4A14894   8.125  10.904   7.159 -0.1872  0.0263 -0.2661
 1118YOPC   C1B14895   8.991  10.814   6.395 -0.0166  0.0063 -0.0487
 1118YOPC   C2B14896   9.090  10.460   6.720 -0.1521 -0.2624  0.1687
 1118YOPC   D3B14897   8.965  10.043   6.659 -0.0813 -0.1703 -0.1016
 1118YOPC   C4B14898   8.428   9.847   6.520 -0.1811  0.2298 -0.0516
 1119YOPC   NC314899  14.125   9.562   5.821  0.0664  0.0411  0.2533
 1119YOPC   PO414900  14.244   9.910   5.910  0.0836 -0.2859  0.3426
 1119YOPC   GL114901  14.061  10.188   6.157  0.1910  0.3590 -0.0699
 1119YOPC   GL214902  13.794  10.358   6.022  0.0278  0.2463 -0.2711
 1119YOPC   C1A14903  14.037  10.239   6.569  0.5155  0.1031 -0.1832
 1119YOPC   D2A14904  14.334  10.368   6.867  0.1134 -0.0366 -0.1575
 1119YOPC   C3A14905  14.555  10.055   6.947 -0.1095  0.1876 -0.3784
 1119YOPC   C4A14906  14.840   9.915   7.238 -0.0337 -0.2330  0.1210
 1119YOPC   C1B14907  13.925  10.662   6.264  0.0366 -0.0429  0.0000
 1119YOPC   C2B14908  14.090  10.776   6.553 -0.0845  0.0412  0.1313
 1119YOPC   D3B14909  13.897  10.609   6.998 -0.4432 -0.1574  0.1689
 1119YOPC   C4B14910  13.781  10.428   7.352  0.0866 -0.1201 -0.1015
 1120YOPC   NC314911  14.475   1.386   5.502  0.3389  0.0880  0.0500
 1120YOPC   PO414912  14.170   1.032   5.570 -0.0361 -0.3962 -0.1103
 1120YOPC   GL114913  14.573   0.935   5.725 -0.1045 -0.3078 -0.1251
 1120YOPC   GL214914  14.839   0.818   5.765 -0.2560  0.3022 -0.3061
 1120YOPC   C1A14915  14.509   0.878   6.178  0.1290 -0.2538  0.4340
 1120YOPC   D2A14916  14.729   0.645   6.513 -0.3509 -0.1279 -0.1697
 1120YOPC   C3A14917  14.980   0.360   6.576  0.0526  0.0473  0.1022
 1120YOPC   C4A14918  15.010   0.358   6.982 -0.0226 -0.1846 -0.0455
 1120YOPC   C1B14919  14.942   0.514   6.014  0.3780  0.0217  0.0799
 1120YOPC   C2B14920  15.337   0.470   6.176 -0.0629 -0.2013  0.1416
 1120YOPC   D3B14921  15.466   0.509   6.620 -0.0572  0.2437  0.0284
 1120YOPC   C4B14922  15.483   0.456   7.076 -0.1136 -0.1613 -0.0167
 1121YOPC   NC314923   7.093  16.522   5.168  0.1023 -0.2360  0.0858
 1121YOPC   PO414924   7.073  16.560   5.594  0.0700 -0.1921 -0.2930
 1121YOPC   GL114925   7.209  16.473   5.988  0.0470  0.0433 -0.0474
 1121YOPC   GL214926   7.352  16.554   6.227  0.1971 -0.0715 -0.0753
 1121YOPC   C1A14927   7.344  16.103   6.392  0.1269  0.0604  0.2149
 1121YOPC   D2A14928   7.731  15.947   6.474  0.1522 -0.0633  0.0856
 1121YOPC   C3A14929   7.728  15.485   6.736 -0.0463  0.0760 -0.0167
 1121YOPC   C4A14930   7.560  15.304   7.124 -0.2952  0.1787  0.1535
 1121YOPC   C1B14931   7.463  16.942   6.387  0.2126 -0.0642 -0.0620
 1121YOPC   C2B14932   7.600  17.194   6.552 -0.0041  0.0156  0.0047
 1121YOPC   D3B14933   7.804  17.349   6.872 -0.1371 -0.2851  0.2121
 1121YOPC   C4B14934   8.128  17.375   7.165  0.0440 -0.0578 -0.1663
 1122YOPC   NC314935   9.968  18.609   5.358 -0.1575  0.2225  0.3370
 1122YOPC   PO414936   9.502  18.569   5.471 -0.1919  0.0302  0.0443
 1122YOPC   GL114937   9.343  18.376   5.895 -0.1424  0.1231 -0.2229
 1122YOPC   GL214938   9.401  18.588   6.194  0.4381  0.1731 -0.2296
 1122YOPC   C1A14939   9.631  18.141   6.224  0.1669  0.0631 -0.1375
 1122YOPC   D2A14940   9.847  17.734   6.327  0.1825 -0.5507 -0.0251
 1122YOPC   C3A14941  10.245  17.639   6.603  0.2459  0.0095  0.0105
 1122YOPC   C4A14942  10.559  17.607   6.982 -0.1033 -0.1580 -0.1357
 1122YOPC   C1B14943   9.413  18.624   6.661  0.1065  0.2785 -0.1553
 1122YOPC   C2B14944   9.308  18.670   7.020 -0.1408 -0.2925  0.1309
 1122YOPC   D3B14945   9.342  18.470   7.364 -0.1820 -0.2112 -0.1167
 1122YOPC   C4B14946   9.499  18.449   7.759  0.0004  0.1841 -0.0541
 1123YOPC   NC314947   6.190  18.404   5.619  0.2242  0.0856  0.2049
 1123YOPC   PO414948   6.265  18.618   6.021 -0.0877 -0.1032 -0.0991
 1123YOPC   GL114949   6.358  18.535   6.437  0.0397 -0.1517  0.0099
 1123YOPC   GL214950   6.567  18.411   6.443 -0.0150  0.0276 -0.3325
 1123YOPC   C1A14951   6.025  18.471   6.773  0.0754 -0.1951 -0.0064
 1123YOPC   D2A14952   6.104  18.701   7.047 -0.1300  0.1304 -0.0752
 1123YOPC   C3A14953   6.041  18.534   7.370  0.1657 -0.1500  0.2746
 1123YOPC   C4A14954   5.926  18.430   7.737 -0.0845  0.4052  0.0913
 1123YOPC   C1B14955   6.509  18.348   6.899 -0.2608  0.2495 -0.1450
 1123YOPC   C2B14956   6.502  18.410   7.249 -0.0019 -0.0945 -0.0084
 1123YOPC   D3B14957   6.343  18.112   7.584  0.0040  0.3278  0.0672
 1123YOPC   C4B14958   6.275  18.100   8.019  0.1752  0.0679  0.2317
 1124YOPC   NC314959  12.340   8.503   5.357  0.2872 -0.0944  0.2327
 1124YOPC   PO414960  12.754   8.622   5.436  0.0878  0.1174  0.3047
 1124YOPC   GL114961  12.997   8.717   5.841 -0.3709 -0.1389  0.0808
 1124YOPC   GL214962  12.800   8.940   6.006  0.0699 -0.5392 -0.0001
 1124YOPC   C1A14963  13.191   8.505   6.221 -0.0526  0.2249  0.4442
 1124YOPC   D2A14964  13.076   8.317   6.562 -0.1886 -0.2824 -0.1269
 1124YOPC   C3A14965  12.924   8.332   6.991  0.3174  0.2684  0.3139
 1124YOPC   C4A14966  12.870   8.257   7.391  0.3030 -0.3119 -0.1967
 1124YOPC   C1B14967  12.911   8.860   6.324  0.2113 -0.0324  0.0034
 1124YOPC   C2B14968  12.904   8.807   6.724 -0.4369 -0.1228 -0.2900
 1124YOPC   D3B14969  12.465   8.855   6.917 -0.2986 -0.3133 -0.1559
 1124YOPC   C4B14970  12.291   8.999   7.301 -0.0898 -0.1724 -0.1231
 1125YOPC   NC314971  15.823  12.086   5.370  0.1220 -0.2254 -0.1108
 1125YOPC   PO414972  15.517  11.866   5.347  0.1681 -0.1736 -0.0011
 1125YOPC   GL114973  15.728  11.898   5.823 -0.0357  0.2982  0.2919
 1125YOPC   GL214974  16.002  11.694   5.981 -0.1321 -0.1245  0.1491
 1125YOPC   C1A14975  15.494  11.823   6.182 -0.2914  0.1131 -0.1460
 1125YOPC   D2A14976  15.285  11.541   6.501  0.1259  0.1578 -0.3142
 1125YOPC   C3A14977  15.258  11.556   6.854 -0.0618 -0.1330  0.0381
 1125YOPC   C4A14978  15.497  11.854   7.077 -0.0277 -0.2177 -0.2706
 1125YOPC   C1B14979  15.912  11.675   6.473 -0.0088 -0.1928  0.1057
 1125YOPC   C2B14980  15.686  11.345   6.638 -0.2677 -0.1282  0.0413
 1125YOPC   D3B14981  15.690  11.350   7.027  0.0250  0.3459 -0.2732
 1125YOPC   C4B14982  15.675  11.505   7.442 -0.1585  0.1851 -0.3289
 1126YOPC   NC314983  11.467  17.775   5.360  0.3963  0.1675  0.1310
 1126YOPC   PO414984  11.091  17.553   5.239 -0.2177  0.0934 -0.1857
 1126YOPC   GL114985  10.864  17.580   5.777 -0.2874 -0.0149 -0.0521
 1126YOPC   GL214986  10.616  17.425   5.800 -0.2119  0.1047  0.2258
 1126YOPC   C1A14987  11.094  17.764   6.247  0.2428 -0.0275 -0.1826
 1126YOPC   D2A14988  11.264  17.746   6.650  0.2710 -0.0443 -0.2015
 1126YOPC   C3A14989  10.970  17.909   7.013  0.0150  0.2266  0.1190
 1126YOPC   C4A14990  10.932  17.925   7.443  0.1559  0.1297  0.3602
 1126YOPC   C1B14991  11.044  17.236   6.087 -0.0735  0.1057  0.0533
 1126YOPC   C2B14992  11.398  17.347   6.341  0.1844 -0.3162 -0.1161
 1126YOPC   D3B14993  11.508  17.204   6.742 -0.2154  0.2759 -0.3714
 1126YOPC   C4B14994  11.651  17.283   7.168 -0.2233  0.2662  0.0025
 1127YOPC   NC314995   7.104   8.963   5.110  0.0371 -0.0404 -0.0308
 1127YOPC   PO414996   7.089   9.262   5.406  0.0597 -0.1398 -0.1197
 1127YOPC   GL114997   7.395   9.300   5.785  0.1214  0.0614 -0.0002
 1127YOPC   GL214998   7.593   9.515   5.838  0.0493  0.0486 -0.1372
 1127YOPC   C1A14999   7.264   9.346   6.245  0.0167 -0.1621  0.1232
 1127YOPC   D2A15000   7.364   9.606   6.534  0.0976 -0.0735 -0.2312
 1127YOPC   C3A15001   7.150   9.780   6.676 -0.2379 -0.1730  0.0587
 1127YOPC   C4A15002   6.983   9.940   7.050  0.3822 -0.3514  0.0429
 1127YOPC   C1B15003   7.783   9.699   6.143  0.2216  0.2698 -0.2621
 1127YOPC   C2B15004   7.984   9.631   6.501  0.0324  0.1530  0.0118
 1127YOPC   D3B15005   7.773   9.410   6.866  0.0295  0.4375 -0.0480
 1127YOPC   C4B15006   7.742   9.195   7.127 -0.0944  0.0494 -0.0652
 1128YOPC   NC315007   5.851  14.386   5.439  0.1102  0.0939 -0.3598
 1128YOPC   PO415008   6.297  14.382   5.605 -0.0071  0.0517  0.2856
 1128YOPC   GL115009   6.518  14.051   5.843  0.3232  0.0598  0.0215
 1128YOPC   GL215010   6.465  13.674   5.922  0.2843  0.1884 -0.1717
 1128YOPC   C1A15011   6.815  13.964   6.074 -0.6064  0.5470 -0.1982
 1128YOPC   D2A15012   6.824  13.971   6.589 -0.0194  0.2812 -0.2372
 1128YOPC   C3A15013   6.656  14.095   6.919  0.0365 -0.1741 -0.1708
 1128YOPC   C4A15014   6.339  14.098   7.186 -0.1228  0.1041 -0.0640
 1128YOPC   C1B15015   6.608  13.576   6.287 -0.3796  0.0537 -0.0294
 1128YOPC   C2B15016   6.543  13.342   6.596 -0.2661 -0.0084 -0.0653
 1128YOPC   D3B15017   6.722  13.590   6.994  0.0314 -0.2122 -0.0131
 1128YOPC   C4B15018   6.642  13.594   7.334  0.0224  0.0731 -0.4523
 1129YOPC   NC315019   7.184  11.153   5.281  0.6291 -0.1751  0.3518
 1129YOPC   PO415020   7.172  11.397   5.530  0.1216  0.0425 -0.1996
 1129YOPC   GL115021   7.233  11.454   5.858  0.1871 -0.1816  0.0205
 1129YOPC   GL215022   7.350  11.254   6.000  0.4265  0.2658 -0.2528
 1129YOPC   C1A15023   7.181  11.599   6.354  0.0413 -0.2078 -0.4020
 1129YOPC   D2A15024   7.361  11.581   6.685  0.0638 -0.3057  0.0662
 1129YOPC   C3A15025   7.209  11.223   7.051  0.0380  0.1071  0.1934
 1129YOPC   C4A15026   7.166  11.262   7.583 -0.1293 -0.0083  0.0292
 1129YOPC   C1B15027   7.680  10.953   6.009  0.1290  0.3722  0.0669
 1129YOPC   C2B15028   8.023  11.005   6.252 -0.0427  0.0885 -0.4245
 1129YOPC   D3B15029   8.040  11.163   6.598 -0.0361  0.1908 -0.1324
 1129YOPC   C4B15030   7.875  11.468   6.878  0.2945 -0.0429 -0.2833
 1130YOPC   NC315031   0.897  14.964   5.384  0.1005 -0.3354  0.2224
 1130YOPC   PO415032   0.543  14.771   5.461  0.1200 -0.2277  0.1852
 1130YOPC   GL115033   0.340  14.784   5.905 -0.2154 -0.2168 -0.3262
 1130YOPC   GL215034   0.017  14.843   5.982  0.0827  0.0005  0.0771
 1130YOPC   C1A15035   0.074  14.367   6.180 -0.4248 -0.0411  0.2566
 1130YOPC   D2A15036  -0.115  13.949   6.140  0.0900 -0.1619 -0.1270
 1130YOPC   C3A15037   0.068  13.572   6.426 -0.6203  0.3725 -0.0689
 1130YOPC   C4A15038   0.131  13.553   6.795  0.2418 -0.0276  0.2468
 1130YOPC   C1B15039  -0.206  14.840   6.376 -0.0232  0.1714 -0.1022
 1130YOPC   C2B15040  -0.268  14.987   6.776 -0.0826  0.0091 -0.4141
 1130YOPC   D3B15041  -0.721  15.103   7.019 -0.2010  0.1247 -0.3192
 1130YOPC   C4B15042  -0.831  15.382   7.359 -0.1595  0.1545  0.1745
 1131YOPC   NC315043   8.275  18.758   5.527  0.2069  0.0473  0.0615
 1131YOPC   PO415044   8.386  18.668   5.976  0.1042  0.0496  0.0351
 1131YOPC   GL115045   8.338  18.348   6.404 -0.0258  0.5118  0.2249
 1131YOPC   GL215046   8.022  18.459   6.644  0.0021 -0.1722  0.2435
 1131YOPC   C1A15047   8.560  18.254   6.845 -0.1347 -0.0585 -0.0863
 1131YOPC   D2A15048   8.728  17.881   7.055 -0.0116 -0.2441  0.1697
 1131YOPC   C3A15049   9.062  17.912   7.102 -0.0287  0.0512  0.2259
 1131YOPC   C4A15050   9.387  17.644   7.110 -0.3209 -0.2479  0.0674
 1131YOPC   C1B15051   8.091  18.352   7.092 -0.2199 -0.0522 -0.0238
 1131YOPC   C2B15052   8.033  18.345   7.566  0.0404  0.0965  0.2605
 1131YOPC   D3B15053   7.844  18.648   7.845 -0.2204 -0.3144  0.0797
 1131YOPC   C4B15054   7.520  18.851   8.178 -0.0656  0.0356  0.0562
 1132YOPC   NC315055   4.304   7.708   5.519 -0.2486  0.1036  0.0831
 1132YOPC   PO415056   4.411   7.329   5.397  0.1004 -0.1617 -0.0784
 1132YOPC   GL115057   4.632   7.189   5.770 -0.1946  0.1311 -0.0926
 1132YOPC   GL215058   4.581   7.429   5.995 -0.1070  0.1071 -0.0386
 1132YOPC   C1A15059   4.921   6.850   5.989 -0.3373  0.2094 -0.1042
 1132YOPC   D2A15060   4.951   6.563   6.331 -0.1357  0.0838 -0.0140
 1132YOPC   C3A15061   4.656   6.260   6.275 -0.3651 -0.1913 -0.2350
 1132YOPC   C4A15062   4.478   6.396   5.971  0.2629 -0.1548 -0.2960
 1132YOPC   C1B15063   4.535   7.123   6.250  0.3059 -0.1796 -0.4074
 1132YOPC   C2B15064   4.526   6.717   6.409  0.0746  0.1858  0.0328
 1132YOPC   D3B15065   4.613   6.522   6.815  0.2519  0.2027  0.0453
 1132YOPC   C4B15066   4.608   6.367   7.282  0.0046 -0.0145  0.0148
 1133YOPC   NC315067   4.239   1.285   5.261 -0.0346  0.2706 -0.3038
 1133YOPC   PO415068   4.399   1.601   5.488 -0.0128 -0.1724 -0.0992
 1133YOPC   GL115069   4.594   1.417   5.940  0.1865  0.2809  0.3138
 1133YOPC   GL215070   4.475   1.434   6.216 -0.2482  0.3196  0.0994
 1133YOPC   C1A15071   4.831   1.582   6.475  0.1220  0.1234  0.2563
 1133YOPC   D2A15072   5.019   1.331   6.721  0.5437 -0.0797 -0.0902
 1133YOPC   C3A15073   5.028   1.129   7.119 -0.1415 -0.3321  0.2469
 1133YOPC   C4A15074   5.001   0.805   7.511 -0.0762  0.0131  0.0594
 1133YOPC   C1B15075   4.353   1.732   6.478 -0.2746  0.0624 -0.0116
 1133YOPC   C2B15076   4.373   1.840   6.907 -0.2508 -0.0038 -0.2329
 1133YOPC   D3B15077   4.471   1.994   7.244 -0.2637  0.1867 -0.0563
 1133YOPC   C4B15078   4.770   2.302   7.207 -0.2938 -0.1950 -0.1380
 1134YOPC   NC315079  17.784   0.628   5.388 -0.0651  0.0198  0.0248
 1134YOPC   PO415080  17.622   0.197   5.363 -0.1329  0.0815 -0.2830
 1134YOPC   GL115081  17.410  -0.012   5.732 -0.2253 -0.1688  0.0093
 1134YOPC   GL215082  17.109  -0.213   5.753  0.1954 -0.1007 -0.2141
 1134YOPC   C1A15083  17.406   0.001   6.205  0.3037 -0.5387  0.1626
 1134YOPC   D2A15084  17.289  -0.007   6.665 -0.1824 -0.1058  0.0105
 1134YOPC   C3A15085  17.672  -0.011   6.909 -0.0378 -0.3218  0.0254
 1134YOPC   C4A15086  17.931   0.128   7.324  0.0667  0.0251 -0.1260
 1134YOPC   C1B15087  17.435  -0.464   5.987  0.0788 -0.1283  0.1745
 1134YOPC   C2B15088  17.620  -0.348   6.412 -0.0775 -0.3088 -0.1175
 1134YOPC   D3B15089  17.455  -0.459   6.837 -0.0574  0.0713  0.3230
 1134YOPC   C4B15090  17.107  -0.308   7.056 -0.0503  0.4569  0.1926
 1135YOPC   NC315091  18.957   6.584   5.558  0.1608 -0.0212 -0.0409
 1135YOPC   PO415092  19.368   6.784   5.545  0.0449  0.0467  0.3712
 1135YOPC   GL115093  19.646   6.725   5.881 -0.3798 -0.1006  0.1968
 1135YOPC   GL215094  19.538   7.014   5.974  0.0867  0.0069  0.2966
 1135YOPC   C1A15095  19.844   6.504   6.172 -0.0348 -0.0553 -0.2960
 1135YOPC   D2A15096  19.993   6.404   6.555  0.0652  0.2130  0.0536
 1135YOPC   C3A15097  20.240   6.646   6.730 -0.2356 -0.2503 -0.2058
 1135YOPC   C4A15098  20.563   6.803   7.087  0.0509 -0.0483 -0.1628
 1135YOPC   C1B15099  19.475   7.203   6.380 -0.2050 -0.0101  0.0242
 1135YOPC   C2B15100  19.634   7.639   6.616  0.1970 -0.0714 -0.1314
 1135YOPC   D3B15101  19.506   7.805   6.909  0.0804 -0.2673 -0.0321
 1135YOPC   C4B15102  19.321   7.821   7.305  0.3589  0.0309 -0.3171
 1136YOPC   NC315103   4.055  12.241   5.002 -0.1896  0.0631  0.0121
 1136YOPC   PO415104   4.106  11.850   5.288  0.1170  0.2752  0.2139
 1136YOPC   GL115105   3.834  12.064   5.535  0.1216  0.0608 -0.2171
 1136YOPC   GL215106   3.456  12.238   5.524 -0.0672  0.1558 -0.0843
 1136YOPC   C1A15107   3.986  12.177   5.950  0.0484 -0.0307  0.2089
 1136YOPC   D2A15108   4.200  12.254   6.347  0.1093  0.2902 -0.0554
 1136YOPC   C3A15109   4.150  12.258   6.785  0.0099  0.0552 -0.0371
 1136YOPC   C4A15110   4.102  12.616   7.073  0.0848 -0.1564 -0.0612
 1136YOPC   C1B15111   3.489  12.186   5.945 -0.0927 -0.0249  0.0562
 1136YOPC   C2B15112   3.478  12.272   6.377  0.1391 -0.2329  0.0998
 1136YOPC   D3B15113   3.710  12.112   6.777  0.1032  0.0377  0.1396
 1136YOPC   C4B15114   3.672  12.116   7.265  0.1638  0.0081 -0.4056
 1137YOPC   NC315115  12.580  17.911   5.672  0.2360 -0.7392  0.1399
 1137YOPC   PO415116  12.215  18.095   5.597 -0.0666 -0.1924  0.3151
 1137YOPC   GL115117  12.256  18.011   6.088  0.0356 -0.0982  0.0689
 1137YOPC   GL215118  12.254  18.313   6.308 -0.0331 -0.0143 -0.2784
 1137YOPC   C1A15119  12.120  17.843   6.429  0.2788  0.1306  0.2645
 1137YOPC   D2A15120  11.858  17.562   6.694 -0.0668 -0.2249 -0.2435
 1137YOPC   C3A15121  11.778  17.757   7.147 -0.0865  0.0592 -0.1044
 1137YOPC   C4A15122  11.935  17.877   7.572  0.1300  0.1289  0.2519
 1137YOPC   C1B15123  12.144  18.310   6.708  0.0400 -0.2939 -0.3887
 1137YOPC   C2B15124  12.102  18.171   7.133  0.2478  0.3155 -0.0789
 1137YOPC   D3B15125  11.877  18.343   7.470  0.1133  0.0428  0.3056
 1137YOPC   C4B15126  12.098  18.465   7.772 -0.0616 -0.4441 -0.1789
 1138YOPC   NC315127  12.535   6.527   5.436 -0.0425  0.4285 -0.2118
 1138YOPC   PO415128  12.209   6.286   5.629 -0.0136 -0.0320 -0.0525
 1138YOPC   GL115129  12.303   6.245   5.955 -0.2147 -0.0421 -0.2402
 1138YOPC   GL215130  12.587   6.380   5.952 -0.1854  0.0409  0.2994
 1138YOPC   C1A15131  12.200   6.444   6.383  0.2518  0.0599 -0.0408
 1138YOPC   D2A15132  12.181   6.327   6.749 -0.1617 -0.1992 -0.2648
 1138YOPC   C3A15133  12.454   6.332   7.118 -0.0647 -0.1472  0.2201
 1138YOPC   C4A15134  12.732   6.465   7.399 -0.1639 -0.3390  0.1487
 1138YOPC   C1B15135  12.749   6.299   6.349  0.2166  0.1163  0.4841
 1138YOPC   C2B15136  12.557   6.085   6.546  0.1050  0.0388 -0.3771
 1138YOPC   D3B15137  12.205   5.938   6.381  0.0642 -0.2080  0.1001
 1138YOPC   C4B15138  11.935   5.665   6.248  0.0460  0.2396 -0.0315
 1139YOPC   NC315139  14.319   2.568   5.109 -0.0571  0.1182  0.2171
 1139YOPC   PO415140  14.701   2.729   5.229  0.0982 -0.2173 -0.1009
 1139YOPC   GL115141  14.796   2.935   5.587  0.2038  0.1251 -0.1072
 1139YOPC   GL215142  14.509   2.940   5.646 -0.1511  0.2496  0.0443
 1139YOPC   C1A15143  15.084   3.109   5.851 -0.0739  0.3183 -0.0664
 1139YOPC   D2A15144  15.077   3.192   6.182 -0.0678 -0.3369 -0.4817
 1139YOPC   C3A15145  14.673   3.225   6.499  0.0805 -0.1153 -0.3176
 1139YOPC   C4A15146  14.363   3.346   6.803  0.0708  0.1182 -0.2649
 1139YOPC   C1B15147  14.640   3.208   6.007  0.1080  0.1968  0.1344
 1139YOPC   C2B15148  14.309   3.594   5.856 -0.1529 -0.1463  0.1834
 1139YOPC   D3B15149  14.547   4.044   5.854  0.0276  0.1514 -0.1026
 1139YOPC   C4B15150  14.800   4.297   5.648  0.3704 -0.3596 -0.2711
 1140YOPC   NC315151   8.633   2.628   6.072  0.1657 -0.0030 -0.1941
 1140YOPC   PO415152   8.302   2.436   5.996 -0.2597 -0.1242  0.1302
 1140YOPC   GL115153   8.259   2.653   6.480  0.2003 -0.1162 -0.2379
 1140YOPC   GL215154   8.435   2.415   6.521  0.1125  0.3417  0.1760
 1140YOPC   C1A15155   8.251   2.550   6.910  0.1236  0.1989 -0.1061
 1140YOPC   D2A15156   8.383   2.311   7.322  0.1669 -0.0538 -0.0706
 1140YOPC   C3A15157   8.284   2.558   7.614  0.0995 -0.0759 -0.3734
 1140YOPC   C4A15158   8.293   2.960   7.865  0.1368  0.0643  0.2569
 1140YOPC   C1B15159   8.748   2.390   6.947  0.0601 -0.1792  0.2285
 1140YOPC   C2B15160   9.075   2.454   7.214 -0.0141 -0.0552 -0.4804
 1140YOPC   D3B15161   8.866   2.258   7.573  0.0704 -0.2284  0.5124
 1140YOPC   C4B15162   8.484   2.057   7.731  0.1506 -0.2157 -0.2708
 1141YOPC   NC315163  15.876  10.136   5.519  0.0847  0.0544  0.0854
 1141YOPC   PO415164  15.526  10.407   5.386 -0.1363 -0.1001  0.4077
 1141YOPC   GL115165  15.657  10.439   5.837 -0.1713 -0.0012 -0.0307
 1141YOPC   GL215166  15.952  10.442   5.958  0.3471  0.1409  0.1556
 1141YOPC   C1A15167  15.521  10.408   6.261 -0.1995 -0.0728 -0.2748
 1141YOPC   D2A15168  15.555  10.446   6.710 -0.0540  0.1695  0.0704
 1141YOPC   C3A15169  15.537  10.771   7.061  0.3726 -0.0041 -0.1874
 1141YOPC   C4A15170  15.398  11.069   7.458  0.2000  0.2535  0.0298
 1141YOPC   C1B15171  16.040  10.296   6.375  0.1007  0.1021 -0.1623
 1141YOPC   C2B15172  16.389  10.124   6.586  0.0687 -0.1240  0.4339
 1141YOPC   D3B15173  16.358  10.183   7.099  0.0449  0.1264  0.2426
 1141YOPC   C4B15174  16.199  10.416   7.582 -0.1448  0.1612 -0.0753
 1142YOPC   NC315175  16.647   6.941   5.459  0.2033 -0.0967 -0.2112
 1142YOPC   PO415176  16.290   7.247   5.580  0.3786 -0.1506  0.0104
 1142YOPC   GL115177  16.019   7.557   5.769 -0.2583 -0.0148  0.0730
 1142YOPC   GL215178  15.886   7.340   5.997 -0.2586  0.1006  0.0753
 1142YOPC   C1A15179  16.013   7.901   6.071 -0.2099  0.0036  0.2815
 1142YOPC   D2A15180  15.738   8.124   6.328 -0.1410 -0.1411 -0.0030
 1142YOPC   C3A15181  15.773   8.313   6.657 -0.0663 -0.0906  0.3467
 1142YOPC   C4A15182  15.576   8.280   6.954 -0.2773 -0.0260 -0.2800
 1142YOPC   C1B15183  16.057   7.369   6.447  0.2223 -0.2892  0.0487
 1142YOPC   C2B15184  16.328   7.691   6.581 -0.0254  0.2012  0.0481
 1142YOPC   D3B15185  16.253   8.117   6.483 -0.0737 -0.0049 -0.1803
 1142YOPC   C4B15186  16.121   8.435   6.197 -0.1198 -0.0707 -0.1351
 1143YOPC   NC315187   2.593   6.184   5.169  0.1103 -0.0011  0.3419
 1143YOPC   PO415188   2.153   6.080   5.414 -0.0844 -0.1842  0.0836
 1143YOPC   GL115189   1.887   5.987   5.754 -0.2670  0.1726 -0.1359
 1143YOPC   GL215190   1.600   6.199   5.686  0.1792  0.1150 -0.1022
 1143YOPC   C1A15191   1.653   5.860   6.129 -0.0886  0.3139  0.1411
 1143YOPC   D2A15192   1.454   5.674   6.489 -0.2260  0.1299  0.0968
 1143YOPC   C3A15193   1.393   5.840   6.913 -0.1358 -0.2257  0.5362
 1143YOPC   C4A15194   1.565   5.890   7.259  0.2309 -0.1217  0.1182
 1143YOPC   C1B15195   1.418   6.347   5.979  0.4079  0.2425  0.1584
 1143YOPC   C2B15196   1.465   6.720   6.288  0.0175 -0.1624  0.2661
 1143YOPC   D3B15197   1.719   6.735   6.558 -0.3836  0.2154 -0.1596
 1143YOPC   C4B15198   2.046   6.783   6.837 -0.2270  0.5554  0.1462
 1144ERGO   ROH15199   0.319  12.664   6.173 -0.0692 -0.0733  0.0010
 1144ERGO    R115200   0.291  12.668   6.455 -0.1177  0.0914 -0.0061
 1144ERGO    R215201   0.448  12.514   6.622 -0.2920  0.0300  0.0964
 1144ERGO    R315202   0.502  12.753   6.740 -0.0927  0.0389 -0.0073
 1144ERGO    R415203   0.542  12.555   6.952 -0.4800  0.1022  0.1430
 1144ERGO    R515204   0.414  12.731   6.962 -0.2834  0.2666 -0.0526
 1144ERGO    C115205   0.648  12.803   7.254 -0.4024  0.1527  0.0728
 1144ERGO    C215206   0.763  12.682   7.459 -0.0002 -0.4374  0.0949
 1145ERGO   ROH15207  16.631  12.192   5.776  0.3114  0.0435  0.0991
 1145ERGO    R115208  16.489  12.087   5.998  0.1828  0.1307  0.0586
 1145ERGO    R215209  16.488  11.818   6.060 -0.1343  0.1065 -0.0368
 1145ERGO    R315210  16.570  11.907   6.303 -0.0332 -0.0760 -0.0022
 1145ERGO    R415211  16.411  11.668   6.362 -0.1328 -0.0381 -0.1070
 1145ERGO    R515212  16.384  11.867   6.448 -0.0188 -0.0741  0.0181
 1145ERGO    C115213  16.443  11.665   6.766 -0.0368 -0.2935 -0.1153
 1145ERGO    C215214  16.518  11.678   7.038  0.2730 -0.1540 -0.3154
 1146ERGO   ROH15215   6.208  19.006   6.349 -0.3423 -0.1643 -0.1835
 1146ERGO    R115216   6.091  19.023   6.606 -0.1698 -0.1238 -0.1059
 1146ERGO    R215217   5.862  19.169   6.656 -0.1023 -0.0651  0.0385
 1146ERGO    R315218   5.772  18.934   6.758 -0.0936 -0.0386  0.1081
 1146ERGO    R415219   5.577  19.134   6.849 -0.1528 -0.0324 -0.0297
 1146ERGO    R515220   5.686  18.992   6.974 -0.1658  0.0357  0.0599
 1146ERGO    C115221   5.327  18.893   7.057 -0.1740  0.0117 -0.0040
 1146ERGO    C215222   5.020  18.718   7.000  0.2466 -0.0554  0.2778
 1147ERGO   ROH15223  10.077   8.836   5.977  0.0624  0.0020 -0.2351
 1147ERGO    R115224  10.118   8.693   6.217 -0.0687  0.0348 -0.1932
 1147ERGO    R215225  10.308   8.494   6.241 -0.1239  0.0013 -0.0800
 1147ERGO    R315226  10.391   8.643   6.453 -0.1781  0.0146 -0.0670
 1147ERGO    R415227  10.519   8.383   6.491 -0.1783  0.0096 -0.0294
 1147ERGO    R515228  10.396   8.490   6.636 -0.2190  0.0156 -0.0594
 1147ERGO    C115229  10.720   8.459   6.835 -0.2609  0.0270  0.0121
 1147ERGO    C215230  10.920   8.457   7.106 -0.2477  0.1234 -0.1726
 1148ERGO   ROH15231   3.635  18.939   6.314  0.1461  0.1334 -0.0047
 1148ERGO    R115232   3.507  18.750   6.481  0.0883  0.1187 -0.0638
 1148ERGO    R215233   3.636  18.626   6.692  0.0480  0.0219 -0.0903
 1148ERGO    R315234   3.426  18.722   6.835  0.0679  0.0413 -0.0755
 1148ERGO    R415235   3.615  18.630   7.037  0.1398  0.1842 -0.0863
 1148ERGO    R515236   3.406  18.574   7.020  0.1518  0.1298  0.0009
 1148ERGO    C115237   3.405  18.722   7.372  0.2120  0.2970 -0.0701
 1148ERGO    C215238   3.484  18.969   7.579 -0.0937 -0.3495 -0.1832
 1149ERGO   ROH15239  11.968   9.646   9.143 -0.0055  0.3995 -0.0757
 1149ERGO    R115240  12.139   9.581   8.926  0.0511  0.2211  0.0197
 1149ERGO    R215241  12.165   9.323   8.830 -0.0555  0.1657  0.1252
 1149ERGO    R315242  12.100   9.439   8.593  0.1093  0.1203  0.0569
 1149ERGO    R415243  12.187   9.168   8.522  0.1485  0.1132  0.1646
 1149ERGO    R515244  12.263   9.355   8.439  0.2082  0.0906  0.1816
 1149ERGO    C115245  12.138   9.187   8.120  0.4220  0.0400  0.1233
 1149ERGO    C215246  12.177   9.044   7.840 -0.3463  0.0366 -0.0103
 1150ERGO   ROH15247  18.270   0.193   5.658 -0.2398  0.0100 -0.0572
 1150ERGO    R115248  18.421   0.101   5.880 -0.2254 -0.0485 -0.0911
 1150ERGO    R215249  18.498   0.267   6.086 -0.0320 -0.0574 -0.1554
 1150ERGO    R315250  18.375   0.081   6.240 -0.1112  0.0643 -0.0694
 1150ERGO    R415251  18.571   0.206   6.418  0.0916 -0.0808 -0.1860
 1150ERGO    R515252  18.549  -0.007   6.379 -0.1109 -0.0687 -0.1517
 1150ERGO    C115253  18.497  -0.004   6.757  0.0895  0.0198 -0.1230
 1150ERGO    C215254  18.414   0.115   7.068 -0.0754  0.5386 -0.1971
 1151ERGO   ROH15255  15.521  15.822   9.209 -0.2339 -0.1164 -0.0840
 1151ERGO    R115256  15.642  15.883   8.960 -0.2076  0.0044 -0.0425
 1151ERGO    R215257  15.737  15.687   8.790 -0.0880  0.0910 -0.0777
 1151ERGO    R315258  15.575  15.810   8.610 -0.1049  0.0722 -0.0758
 1151ERGO    R415259  15.795  15.702   8.449 -0.0968  0.1071 -0.0789
 1151ERGO    R515260  15.726  15.909   8.452 -0.1230  0.0953 -0.0759
 1151ERGO    C115261  15.677  15.827   8.082 -0.1178  0.0989 -0.0779
 1151ERGO    C215262  15.353  15.860   7.784  0.1032  0.0485 -0.0172
 1152ERGO   ROH15263  11.414  18.718   6.298 -0.2775 -0.0654  0.2190
 1152ERGO    R115264  11.365  18.653   6.569 -0.1701 -0.0237  0.2485
 1152ERGO    R215265  11.557  18.537   6.731 -0.1583 -0.1505  0.1436
 1152ERGO    R315266  11.502  18.749   6.892  0.0779 -0.1078  0.1710
 1152ERGO    R415267  11.690  18.585   7.046 -0.2281 -0.4312  0.2187
 1152ERGO    R515268  11.495  18.656   7.112 -0.1609 -0.1595  0.1451
 1152ERGO    C115269  11.716  18.812   7.381 -0.0471 -0.5544  0.2882
 1152ERGO    C215270  12.034  18.913   7.548 -0.0748  0.2429  0.1044
 1153ERGO   ROH15271   9.470   7.698   6.025  0.2508 -0.0642 -0.0187
 1153ERGO    R115272   9.502   7.816   6.280  0.0758 -0.1943  0.0658
 1153ERGO    R215273   9.536   7.667   6.510  0.3904 -0.3123 -0.0525
 1153ERGO    R315274   9.758   7.821   6.539  0.1178  0.0809  0.0221
 1153ERGO    R415275   9.657   7.782   6.812  0.3986 -0.5869  0.0520
 1153ERGO    R515276   9.701   7.973   6.716 -0.0508 -0.3214  0.3317
 1153ERGO    C115277   9.936   7.995   7.016  0.1474 -0.3776  0.1830
 1153ERGO    C215278  10.096   7.942   7.381 -0.0894  0.0033 -0.3671
 1154ERGO   ROH15279  18.575   2.508   5.849 -0.2355 -0.1125  0.0802
 1154ERGO    R115280  18.455   2.484   6.105 -0.1657  0.0259  0.1252
 1154ERGO    R215281  18.591   2.544   6.339 -0.1049  0.1545  0.0514
 1154ERGO    R315282  18.378   2.707   6.382 -0.0958  0.1752  0.0278
 1154ERGO    R415283  18.478   2.645   6.649 -0.1260  0.1606  0.0432
 1154ERGO    R515284  18.274   2.620   6.578 -0.1248  0.1791  0.0186
 1154ERGO    C115285  18.212   2.857   6.870 -0.1295  0.1837  0.0162
 1154ERGO    C215286  18.269   2.843   7.117  0.3106 -0.0002  0.1529
 1155ERGO   ROH15287  15.128  10.693   5.673  0.0484  0.1389 -0.1252
 1155ERGO    R115288  15.212  10.648   5.940 -0.0044  0.1696 -0.1034
 1155ERGO    R215289  15.374  10.824   6.077 -0.0205  0.1789 -0.0961
 1155ERGO    R315290  15.174  10.815   6.261 -0.0559  0.2142 -0.1327
 1155ERGO    R415291  15.395  10.949   6.399 -0.0093  0.0494 -0.0455
 1155ERGO    R515292  15.286  10.775   6.469 -0.1114  0.0794 -0.1284
 1155ERGO    C115293  15.219  11.014   6.758 -0.0361  0.0070 -0.0505
 1155ERGO    C215294  15.017  10.993   7.035 -0.1427 -0.4627  0.0718
 1156ERGO   ROH15295  11.833  11.486   6.032 -0.1373 -0.1009  0.0492
 1156ERGO    R115296  11.872  11.343   6.273  0.2460 -0.2774 -0.1098
 1156ERGO    R215297  12.122  11.301   6.384  0.3658  0.3209 -0.1383
 1156ERGO    R315298  12.007  11.413   6.604  0.0041 -0.2564 -0.0109
 1156ERGO    R415299  12.263  11.304   6.699  0.4371  0.5224 -0.1695
 1156ERGO    R515300  12.065  11.264   6.782  0.5623 -0.2419 -0.1544
 1156ERGO    C115301  12.237  11.411   7.089  0.1391  0.0979 -0.0679
 1156ERGO    C215302  12.295  11.530   7.371 -0.1427  0.1865 -0.2081
 1157ERGO   ROH15303  13.012  11.501   5.978 -0.1994 -0.2173  0.0181
 1157ERGO    R115304  13.158  11.481   6.219 -0.1747 -0.1335  0.0110
 1157ERGO    R215305  13.089  11.620   6.447 -0.1586 -0.0614 -0.0250
 1157ERGO    R315306  13.092  11.373   6.561 -0.1387 -0.0259  0.0515
 1157ERGO    R415307  13.171  11.556   6.777  0.0400  0.0211 -0.0570
 1157ERGO    R515308  13.280  11.379   6.710 -0.0427 -0.0215 -0.0712
 1157ERGO    C115309  13.221  11.286   7.075  0.1742  0.1025 -0.0038
 1157ERGO    C215310  13.261  11.249   7.493  0.2558 -0.1737  0.0478
 1158ERGO   ROH15311  12.888   6.928   5.879 -0.1132 -0.1066  0.1233
 1158ERGO    R115312  12.953   6.713   6.051 -0.0141 -0.1013  0.0928
 1158ERGO    R215313  13.214   6.639   6.105  0.0176  0.0020  0.0695
 1158ERGO    R315314  13.135   6.670   6.363  0.0199 -0.0668  0.0791
 1158ERGO    R415315  13.395   6.536   6.381  0.2449  0.3344  0.0499
 1158ERGO    R515316  13.209   6.470   6.473  0.3577  0.0606  0.1028
 1158ERGO    C115317  13.427   6.505   6.783  0.3794  0.4633  0.0475
 1158ERGO    C215318  13.308   6.455   7.140 -0.2207  0.3243  0.0146
 1159ERGO   ROH15319  15.071  13.426   6.011  0.1461 -0.0954 -0.0850
 1159ERGO    R115320  14.956  13.424   6.269  0.1112  0.1972 -0.0945
 1159ERGO    R215321  14.950  13.197   6.427 -0.3140  0.2517 -0.0202
 1159ERGO    R315322  15.069  13.361   6.609 -0.0344  0.1004 -0.0632
 1159ERGO    R415323  14.902  13.182   6.769 -0.0787  0.2117  0.0127
 1159ERGO    R515324  14.901  13.399   6.775  0.1200  0.2120  0.0701
 1159ERGO    C115325  14.986  13.325   7.139  0.3209  0.0464 -0.0085
 1159ERGO    C215326  15.079  13.137   7.439 -0.1319  0.2943  0.0566
 1160ERGO   ROH15327  15.950   2.594   5.907  0.0328 -0.3160  0.1809
 1160ERGO    R115328  16.047   2.691   6.155 -0.0108 -0.2711  0.1812
 1160ERGO    R215329  15.918   2.888   6.299  0.0488 -0.1295  0.0459
 1160ERGO    R315330  15.929   2.704   6.498 -0.1471 -0.0537  0.1271
 1160ERGO    R415331  15.931   2.963   6.636 -0.0418  0.0031  0.0199
 1160ERGO    R515332  16.074   2.802   6.662 -0.1525 -0.0769  0.1453
 1160ERGO    C115333  15.947   2.834   7.020 -0.2782  0.1514  0.0810
 1160ERGO    C215334  16.093   2.832   7.429 -0.0814 -0.2345 -0.0309
 1161ERGO   ROH15335   8.944  18.081   6.223  0.0300 -0.0278  0.1229
 1161ERGO    R115336   9.170  18.133   6.385 -0.0918  0.1319  0.2452
 1161ERGO    R215337   9.151  18.174   6.658 -0.2095 -0.5171  0.3510
 1161ERGO    R315338   9.335  17.974   6.668  0.2560 -0.1386 -0.0990
 1161ERGO    R415339   9.420  18.163   6.875 -0.1445 -0.3510  0.2795
 1161ERGO    R515340   9.542  18.085   6.712  0.0181  0.2535  0.0864
 1161ERGO    C115341   9.749  17.969   7.010  0.3304  0.1013 -0.1846
 1161ERGO    C215342  10.110  17.952   7.011 -0.0372 -0.1080  0.2227
 1162ERGO   ROH15343   6.931   6.338   6.112 -0.3173 -0.0338  0.0514
 1162ERGO    R115344   7.101   6.285   6.332 -0.2930 -0.1642  0.0014
 1162ERGO    R215345   7.190   6.484   6.502  0.0249 -0.2106 -0.1103
 1162ERGO    R315346   7.084   6.323   6.694 -0.0992 -0.0071 -0.0033
 1162ERGO    R415347   7.272   6.497   6.837  0.1978 -0.1904 -0.1519
 1162ERGO    R515348   7.268   6.279   6.842 -0.0827 -0.1897 -0.0721
 1162ERGO    C115349   7.221   6.354   7.213  0.1820  0.0125 -0.0757
 1162ERGO    C215350   7.169   6.458   7.535 -0.1303 -0.0236  0.0795
 1163ERGO   ROH15351   3.738  17.686   6.734  0.1996  0.1591 -0.0324
 1163ERGO    R115352   3.476  17.660   6.838  0.2034  0.0092 -0.0569
 1163ERGO    R215353   3.422  17.531   7.076  0.2478 -0.0717 -0.0881
 1163ERGO    R315354   3.299  17.766   7.138  0.1321 -0.1426 -0.0460
 1163ERGO    R415355   3.149  17.561   7.285  0.1847 -0.2432 -0.1438
 1163ERGO    R515356   3.066  17.709   7.148  0.1546 -0.2402 -0.1162
 1163ERGO    C115357   2.874  17.798   7.466  0.0393 -0.4096 -0.1366
 1163ERGO    C215358   2.641  17.803   7.707  0.1161  0.0815  0.2518
 1164ERGO   ROH15359  16.389   7.108   6.334 -0.1541 -0.3073  0.0978
 1164ERGO    R115360  16.483   7.164   6.596  0.0443 -0.2063  0.0081
 1164ERGO    R215361  16.343   7.090   6.823  0.1040  0.0693  0.1408
 1164ERGO    R315362  16.578   6.971   6.889  0.0431 -0.0916  0.0854
 1164ERGO    R415363  16.408   6.936   7.125  0.1076  0.1213  0.1663
 1164ERGO    R515364  16.608   7.022   7.121  0.1771 -0.0333  0.0566
 1164ERGO    C115365  16.667   6.733   7.363  0.0525  0.0006  0.1292
 1164ERGO    C215366  16.934   6.718   7.677 -0.0791 -0.1332 -0.1394
 1165ERGO   ROH15367   3.847  11.442   5.616  0.0807 -0.0604  0.1288
 1165ERGO    R115368   3.865  11.501   5.892 -0.0115  0.0155  0.1193
 1165ERGO    R215369   3.771  11.737   6.001 -0.1958 -0.0222  0.0486
 1165ERGO    R315370   3.632  11.570   6.163 -0.1114 -0.0826  0.0591
 1165ERGO    R415371   3.655  11.819   6.316 -0.0434 -0.1364  0.1357
 1165ERGO    R515372   3.712  11.620   6.383 -0.0049 -0.1583  0.0377
 1165ERGO    C115373   3.456  11.710   6.652  0.1247 -0.2595  0.1963
 1165ERGO    C215374   3.164  11.845   6.862 -0.3888  0.2858 -0.2240
 1166ERGO   ROH15375  13.570  17.496   5.930  0.1021 -0.0080  0.0261
 1166ERGO    R115376  13.423  17.543   6.167  0.0381 -0.0839  0.0013
 1166ERGO    R215377  13.242  17.360   6.269  0.1469 -0.1933 -0.0087
 1166ERGO    R315378  13.392  17.387   6.494  0.0956 -0.0738  0.0127
 1166ERGO    R415379  13.159  17.231   6.578  0.1310 -0.1386  0.0107
 1166ERGO    R515380  13.231  17.415   6.669  0.0474 -0.0822 -0.0262
 1166ERGO    C115381  13.251  17.180   6.969  0.0737  0.0056  0.0421
 1166ERGO    C215382  13.209  17.128   7.216  0.0609 -0.1763  0.0217
 1167ERGO   ROH15383   6.753  10.035   5.998  0.0983  0.1041  0.2198
 1167ERGO    R115384   6.863  10.228   6.174  0.0977  0.1028  0.2237
 1167ERGO    R215385   6.889  10.184   6.445  0.2040  0.0530  0.2127
 1167ERGO    R315386   7.149  10.248   6.398  0.1671  0.1399  0.1297
 1167ERGO    R415387   7.124  10.245   6.691  0.4023 -0.4039  0.1459
 1167ERGO    R515388   7.202  10.408   6.569  0.3023 -0.1758  0.3887
 1167ERGO    C115389   7.505  10.341   6.790  0.4832 -0.5883  0.0292
 1167ERGO    C215390   7.665  10.301   7.049 -0.0201  0.1801 -0.2809
 1168ERGO   ROH15391   4.636   9.614   6.430 -0.1315 -0.0367  0.0153
 1168ERGO    R115392   4.624   9.564   6.708 -0.0957  0.0295  0.0287
 1168ERGO    R215393   4.831   9.446   6.847 -0.0664  0.0901  0.0350
 1168ERGO    R315394   4.810   9.667   7.004 -0.0780  0.1253 -0.0153
 1168ERGO    R415395   4.866   9.448   7.191 -0.1447  0.1589  0.0432
 1168ERGO    R515396   4.700   9.589   7.202 -0.1319  0.1792 -0.0238
 1168ERGO    C115397   4.866   9.657   7.538 -0.2013  0.2320  0.0007
 1168ERGO    C215398   5.139   9.827   7.743  0.3414 -0.1760 -0.1660
 1169ERGO   ROH15399  12.917   8.118   5.968  0.3047  0.2098  0.1844
 1169ERGO    R115400  12.836   7.983   6.203  0.1668  0.2690  0.1735
 1169ERGO    R215401  12.922   7.728   6.264 -0.0473  0.1912  0.1791
 1169ERGO    R315402  12.999   7.844   6.498  0.0243  0.1284  0.1860
 1169ERGO    R415403  12.936   7.566   6.570 -0.1758  0.1755  0.1762
 1169ERGO    R515404  12.855   7.746   6.663 -0.0505  0.2281  0.1764
 1169ERGO    C115405  13.016   7.582   6.967 -0.1834  0.1073  0.1810
 1169ERGO    C215406  12.952   7.499   7.284  0.0279 -0.1994  0.2121
 1170ERGO   ROH15407   0.335   5.811   6.002 -0.0272  0.1372 -0.0349
 1170ERGO    R115408   0.435   5.853   6.263  0.0393  0.0756 -0.0487
 1170ERGO    R215409   0.465   6.105   6.372  0.0736  0.0547  0.0038
 1170ERGO    R315410   0.312   6.002   6.572  0.1175  0.0100  0.0127
 1170ERGO    R415411   0.390   6.268   6.668  0.0553  0.0186  0.0179
 1170ERGO    R515412   0.418   6.079   6.773  0.1107  0.0255  0.0060
 1170ERGO    C115413   0.204   6.266   7.028  0.0858 -0.0443  0.0346
 1170ERGO    C215414  -0.086   6.362   7.193  0.2639 -0.2680  0.1807
 1171ERGO   ROH15415   9.426  12.744   5.761  0.3437 -0.2804  0.0397
 1171ERGO    R115416   9.532  12.744   6.023  0.2880 -0.1089  0.0656
 1171ERGO    R215417   9.578  12.977   6.166  0.1998 -0.0105 -0.0458
 1171ERGO    R315418   9.423  12.854   6.352  0.1841  0.0477 -0.0235
 1171ERGO    R415419   9.590  13.039   6.506  0.2899 -0.0567 -0.0420
 1171ERGO    R515420   9.567  12.825   6.541  0.1982 -0.0390 -0.0570
 1171ERGO    C115421   9.452  12.960   6.878  0.3276 -0.0289 -0.0189
 1171ERGO    C215422   9.450  13.171   7.082  0.0645 -0.2666 -0.0581
 1172ERGO   ROH15423   4.527   4.339   6.379 -0.1041 -0.0007 -0.0218
 1172ERGO    R115424   4.638   4.181   6.585 -0.1490  0.1682  0.1329
 1172ERGO    R215425   4.901   4.096   6.583 -0.2505 -0.1398  0.0693
 1172ERGO    R315426   4.907   4.214   6.828  0.0572  0.2093 -0.0960
 1172ERGO    R415427   5.154   4.056   6.814 -0.2158 -0.2628  0.0122
 1172ERGO    R515428   5.003   4.047   6.971 -0.1778  0.2313  0.0999
 1172ERGO    C115429   5.308   4.143   7.179  0.0933 -0.0068 -0.1764
 1172ERGO    C215430   5.516   4.209   7.504  0.0121  0.0935  0.1799
 1173ERGO   ROH15431   5.209  16.924   6.671  0.1450 -0.0807 -0.2026
 1173ERGO    R115432   5.050  16.865   6.898  0.1777  0.0510 -0.1448
 1173ERGO    R215433   4.888  16.642   6.912  0.0779  0.1321 -0.0453
 1173ERGO    R315434   5.026  16.596   7.142  0.1147  0.1238 -0.0684
 1173ERGO    R415435   4.789  16.423   7.160  0.1087  0.1222 -0.0414
 1173ERGO    R515436   4.855  16.569   7.308  0.1345  0.1200 -0.0439
 1173ERGO    C115437   4.860  16.253   7.521  0.1611  0.1089 -0.0609
 1173ERGO    C215438   4.804  15.820   7.617  0.0207  0.1250 -0.2233
 1174ERGO   ROH15439  13.926  16.491   5.780  0.0447 -0.2534 -0.0436
 1174ERGO    R115440  14.105  16.559   5.988  0.0518 -0.2226 -0.0593
 1174ERGO    R215441  14.022  16.595   6.249  0.0402 -0.0660 -0.0813
 1174ERGO    R315442  14.215  16.411   6.302 -0.0362 -0.1169  0.0218
 1174ERGO    R415443  14.178  16.554   6.555  0.3937  0.3939 -0.1899
 1174ERGO    R515444  14.366  16.524   6.449  0.2399  0.0521 -0.3765
 1174ERGO    C115445  14.450  16.358   6.782  0.5280  0.6135 -0.1563
 1174ERGO    C215446  14.345  16.243   7.081  0.1072  0.2223  0.1644
 1175ERGO   ROH15447   1.839   7.052   5.987 -0.1800 -0.1693 -0.0564
 1175ERGO    R115448   1.754   7.245   6.176  0.0282 -0.1525  0.0203
 1175ERGO    R215449   1.502   7.241   6.290  0.0283  0.0719  0.0144
 1175ERGO    R315450   1.643   7.245   6.523  0.0279 -0.1669  0.0226
 1175ERGO    R415451   1.371   7.319   6.601  0.0653 -0.0051  0.0508
 1175ERGO    R515452   1.553   7.430   6.645  0.1553 -0.1610  0.1217
 1175ERGO    C115453   1.428   7.367   7.000  0.0865 -0.2743  0.0798
 1175ERGO    C215454   1.387   7.437   7.324 -0.2163  0.0724 -0.3557
 1176ERGO   ROH15455  11.664   6.346   5.782 -0.3261  0.0622  0.2065
 1176ERGO    R115456  11.581   6.281   6.045 -0.1783  0.0951  0.2619
 1176ERGO    R215457  11.725   6.113   6.210 -0.1097  0.0824  0.1830
 1176ERGO    R315458  11.712   6.323   6.382  0.0326  0.0934  0.1832
 1176ERGO    R415459  11.715   6.085   6.554 -0.0751  0.0835  0.1846
 1176ERGO    R515460  11.568   6.246   6.558  0.0118  0.1699  0.2046
 1176ERGO    C115461  11.696   6.265   6.917  0.0788  0.0945  0.1858
 1176ERGO    C215462  11.902   6.154   7.187  0.2122 -0.0640  0.0179
 1177ERGO   ROH15463  12.331  14.725   5.579 -0.1619  0.3982 -0.0552
 1177ERGO    R115464  12.390  14.653   5.846 -0.0288  0.2622 -0.1196
 1177ERGO    R215465  12.415  14.839   6.048 -0.0447  0.1518 -0.0131
 1177ERGO    R315466  12.228  14.683   6.171  0.0742 -0.0141 -0.0397
 1177ERGO    R415467  12.378  14.809   6.390 -0.0718  0.1217 -0.0188
 1177ERGO    R515468  12.342  14.595   6.363  0.1231  0.0890 -0.0219
 1177ERGO    C115469  12.182  14.646   6.705  0.0239 -0.0515 -0.0471
 1177ERGO    C215470  12.064  14.816   7.039  0.2554  0.0150 -0.1589
 1178ERGO   ROH15471  12.218  13.214   7.110  0.1393  0.0073  0.1034
 1178ERGO    R115472  12.266  13.431   7.285  0.0336  0.0175  0.1192
 1178ERGO    R215473  12.070  13.534   7.451 -0.0045 -0.1179  0.1558
 1178ERGO    R315474  12.256  13.488   7.644  0.0500 -0.0253  0.1271
 1178ERGO    R415475  12.029  13.608   7.786  0.0001 -0.1585  0.1660
 1178ERGO    R515476  12.235  13.676   7.792 -0.0348 -0.0423  0.1399
 1178ERGO    C115477  12.179  13.608   8.163  0.0539 -0.0953  0.1449
 1178ERGO    C215478  12.138  13.725   8.587  0.1436 -0.0763 -0.1296
 1179ERGO   ROH15479   3.935   1.278   6.252 -0.0376 -0.1986  0.0591
 1179ERGO    R115480   3.840   1.113   6.461 -0.0386 -0.1219  0.1198
 1179ERGO    R215481   3.917   0.849   6.488 -0.1432 -0.1522  0.1391
 1179ERGO    R315482   3.987   0.929   6.739 -0.0234 -0.1367  0.1012
 1179ERGO    R415483   3.869   0.663   6.776 -0.2888 -0.0027  0.2134
 1179ERGO    R515484   3.811   0.846   6.879 -0.0860  0.0920  0.1589
 1179ERGO    C115485   3.906   0.629   7.178 -0.2611  0.0989  0.2209
 1179ERGO    C215486   3.946   0.380   7.531 -0.1643  0.2456 -0.0031
 1180ERGO   ROH15487   1.833  16.594   5.981  0.0431  0.1199  0.0158
 1180ERGO    R115488   1.778  16.756   6.207  0.0315  0.1174  0.0144
 1180ERGO    R215489   1.827  16.672   6.466  0.0441  0.1253  0.0147
 1180ERGO    R315490   1.969  16.904   6.479  0.0223  0.1392  0.0088
 1180ERGO    R415491   1.984  16.791   6.750  0.1267  0.0954 -0.0176
 1180ERGO    R515492   1.918  16.992   6.696  0.0859  0.0961  0.0406
 1180ERGO    C115493   2.208  17.078   6.928  0.1542  0.0909 -0.0420
 1180ERGO    C215494   2.242  17.035   7.297  0.0253 -0.2143  0.0746
 1181ERGO   ROH15495  13.957  14.105   7.209  0.0248 -0.0347  0.0330
 1181ERGO    R115496  13.998  14.381   7.256  0.0625 -0.0275 -0.0452
 1181ERGO    R215497  13.858  14.577   7.122  0.0507 -0.0511 -0.0577
 1181ERGO    R315498  13.798  14.661   7.373  0.1199  0.0238 -0.0649
 1181ERGO    R415499  13.779  14.903   7.207 -0.1634 -0.0669 -0.1857
 1181ERGO    R515500  13.898  14.879   7.389 -0.0408  0.1168 -0.2322
 1181ERGO    C115501  13.676  15.171   7.493 -0.2230 -0.0058 -0.2670
 1181ERGO    C215502  13.420  15.391   7.526  0.1701 -0.1893 -0.0769
 1182ERGO   ROH15503   2.442  14.696   6.200  0.0260 -0.0896 -0.1825
 1182ERGO    R115504   2.635  14.605   6.386  0.0226  0.0918 -0.0879
 1182ERGO    R215505   2.642  14.692   6.649 -0.2610  0.0122 -0.0508
 1182ERGO    R315506   2.633  14.426   6.703  0.0410 -0.0214 -0.1518
 1182ERGO    R415507   2.724  14.550   6.953 -0.2937  0.0097 -0.0431
 1182ERGO    R515508   2.823  14.388   6.845 -0.0086  0.1714 -0.0320
 1182ERGO    C115509   2.764  14.217   7.181 -0.0292 -0.0231 -0.1334
 1182ERGO    C215510   2.887  14.283   7.436 -0.1597 -0.2268  0.0978
 1183ERGO   ROH15511  10.430  10.026   6.067 -0.0268  0.0682 -0.0873
 1183ERGO    R115512  10.332  10.148   6.303 -0.0210  0.2165 -0.1616
 1183ERGO    R215513  10.436  10.093   6.554 -0.2904  0.0571 -0.0853
 1183ERGO    R315514  10.466  10.363   6.565  0.1091  0.0173 -0.0612
 1183ERGO    R415515  10.376  10.287   6.833 -0.5094  0.1695 -0.2065
 1183ERGO    R515516  10.286  10.437   6.704 -0.0438  0.3064 -0.3958
 1183ERGO    C115517  10.370  10.653   7.007 -0.2618  0.1975 -0.2546
 1183ERGO    C215518  10.324  10.751   7.368 -0.2694 -0.1796  0.0861
 1184ERGO   ROH15519  17.456   4.183   5.978 -0.1959 -0.0153  0.0806
 1184ERGO    R115520  17.313   4.003   6.143 -0.1162 -0.2325 -0.0807
 1184ERGO    R215521  17.377   3.735   6.162  0.3914 -0.1090  0.1240
 1184ERGO    R315522  17.388   3.790   6.428 -0.1461  0.0314  0.1302
 1184ERGO    R415523  17.306   3.509   6.414  0.5009 -0.1765  0.0947
 1184ERGO    R515524  17.205   3.668   6.522 -0.0355 -0.3488 -0.1165
 1184ERGO    C115525  17.276   3.429   6.811  0.0601 -0.0839  0.0835
 1184ERGO    C215526  17.196   3.262   6.974  0.1456  0.1912  0.1273
 1185ERGO   ROH15527  13.565  12.075   9.218  0.0169 -0.0609 -0.1051
 1185ERGO    R115528  13.528  11.978   8.954  0.0607  0.0210 -0.1418
 1185ERGO    R215529  13.344  12.089   8.781  0.0357  0.0269 -0.1135
 1185ERGO    R315530  13.560  12.112   8.617  0.0384  0.1517 -0.0927
 1185ERGO    R415531  13.328  12.131   8.438  0.0425 -0.3891 -0.1698
 1185ERGO    R515532  13.497  11.993   8.418  0.2483 -0.1719  0.0260
 1185ERGO    C115533  13.522  12.177   8.085  0.0491 -0.5144 -0.1829
 1185ERGO    C215534  13.574  12.470   7.864  0.3202  0.0271 -0.0258
 1186ERGO   ROH15535   4.006   5.075   6.024 -0.0874  0.3380 -0.0966
 1186ERGO    R115536   4.001   5.057   6.307 -0.0692  0.1522 -0.1076
 1186ERGO    R215537   4.044   5.275   6.471  0.1120  0.0115  0.0337
 1186ERGO    R315538   3.806   5.200   6.578  0.0677  0.1173  0.0109
 1186ERGO    R415539   4.000   5.169   6.797  0.0818 -0.2055 -0.0389
 1186ERGO    R515540   3.862   5.017   6.723 -0.0522 -0.0415 -0.1373
 1186ERGO    C115541   3.751   5.037   7.088  0.0227 -0.2326 -0.1026
 1186ERGO    C215542   3.785   4.965   7.370 -0.1818  0.0681 -0.0256
 1187ERGO   ROH15543  10.754  13.557   5.653  0.1446  0.0436 -0.1201
 1187ERGO    R115544  10.783  13.621   5.928  0.1524  0.0334 -0.1187
 1187ERGO    R215545  10.954  13.484   6.096  0.1876  0.0558 -0.1395
 1187ERGO    R315546  11.051  13.732   6.147  0.1476  0.0697 -0.1297
 1187ERGO    R415547  11.172  13.562   6.352 -0.0172  0.1184  0.0186
 1187ERGO    R515548  11.059  13.745   6.386 -0.0464  0.1315 -0.1221
 1187ERGO    C115549  11.390  13.841   6.549 -0.1741  0.1680  0.1198
 1187ERGO    C215550  11.612  14.004   6.700  0.2281  0.0231  0.0639
 1188ERGO   ROH15551  15.578  15.798   5.855  0.2873 -0.4520  0.1381
 1188ERGO    R115552  15.452  15.752   6.105  0.0203 -0.2095  0.0551
 1188ERGO    R215553  15.594  15.733   6.342 -0.1831 -0.3989  0.1701
 1188ERGO    R315554  15.422  15.928   6.422  0.0651 -0.1021 -0.0007
 1188ERGO    R415555  15.572  15.858   6.663 -0.2228 -0.2905  0.1244
 1188ERGO    R515556  15.356  15.862   6.642 -0.2046  0.0526 -0.0341
 1188ERGO    C115557  15.398  16.114   6.925 -0.0129  0.0514 -0.0625
 1188ERGO    C215558  15.237  16.282   7.177  0.1841 -0.0070  0.3620
 1189ERGO   ROH15559   7.769  16.879   6.004  0.0385  0.0631 -0.0109
 1189ERGO    R115560   7.914  16.773   6.223 -0.1361 -0.0740  0.0373
 1189ERGO    R215561   8.165  16.865   6.293 -0.0443 -0.3781  0.0606
 1189ERGO    R315562   8.048  16.900   6.536 -0.0316 -0.1852  0.0434
 1189ERGO    R415563   8.336  16.934   6.585 -0.0130  0.0347 -0.0477
 1189ERGO    R515564   8.201  16.799   6.691  0.0700  0.0557  0.1256
 1189ERGO    C115565   8.326  17.008   6.984  0.0171  0.4563 -0.1269
 1189ERGO    C215566   8.553  17.014   7.171  0.1469 -0.1834 -0.1412
 1190ERGO   ROH15567  12.751  16.941   7.783 -0.4271  0.2745  0.1645
 1190ERGO    R115568  12.959  17.102   7.679 -0.2509  0.0122  0.1033
 1190ERGO    R215569  12.923  17.369   7.614  0.0175  0.0053 -0.0809
 1190ERGO    R315570  13.135  17.404   7.781  0.0121 -0.0841 -0.0611
 1190ERGO    R415571  13.186  17.586   7.557 -0.0597  0.1531  0.1140
 1190ERGO    R515572  13.322  17.435   7.634 -0.0067  0.1245 -0.0424
 1190ERGO    C115573  13.537  17.746   7.680 -0.1098  0.1552  0.2460
 1190ERGO    C215574  13.646  17.987   7.484  0.0839 -0.0470 -0.1483
 1191ERGO   ROH15575   6.784  16.052   6.321 -0.2543  0.0675 -0.0606
 1191ERGO    R115576   6.912  15.981   6.563 -0.1594  0.1653 -0.0823
 1191ERGO    R215577   6.975  16.167   6.758 -0.2538  0.2151 -0.1022
 1191ERGO    R315578   6.834  15.997   6.918 -0.1045  0.1209 -0.0675
 1191ERGO    R415579   6.909  16.219   7.093 -0.3087  0.2318 -0.1147
 1191ERGO    R515580   6.946  16.007   7.129 -0.1162  0.2704 -0.0662
 1191ERGO    C115581   6.739  16.090   7.438 -0.2005  0.1532 -0.0895
 1191ERGO    C215582   6.337  15.885   7.576  0.2932  0.1131  0.2923
 1192ERGO   ROH15583  13.325  12.013   6.174 -0.0098 -0.0315  0.0953
 1192ERGO    R115584  13.454  12.231   6.300  0.0842 -0.0278 -0.0073
 1192ERGO    R215585  13.430  12.282   6.571  0.0377  0.1559 -0.0487
 1192ERGO    R315586  13.701  12.277   6.563  0.0389 -0.0067  0.0336
 1192ERGO    R415587  13.636  12.416   6.813  0.0371  0.2108 -0.0775
 1192ERGO    R515588  13.767  12.488   6.654  0.1293  0.0254 -0.0949
 1192ERGO    C115589  14.012  12.489   6.947  0.0379  0.0901 -0.0169
 1192ERGO    C215590  14.117  12.396   7.229 -0.3803  0.4317  0.0273
 1193ERGO   ROH15591   2.883   5.018   6.188  0.1300 -0.0541  0.0269
 1193ERGO    R115592   2.695   5.012   6.398  0.0631  0.1176 -0.0254
 1193ERGO    R215593   2.743   4.881   6.637 -0.1785 -0.0555 -0.0659
 1193ERGO    R315594   2.681   5.123   6.745  0.1311 -0.0098  0.0185
 1193ERGO    R415595   2.560   4.928   6.927 -0.2915  0.0798 -0.1581
 1193ERGO    R515596   2.459   5.095   6.830  0.0286  0.2915 -0.1374
 1193ERGO    C115597   2.395   5.182   7.196 -0.0668  0.2015 -0.1325
 1193ERGO    C215598   2.311   5.084   7.560  0.0902  0.0294  0.1052
 1194ERGO   ROH15599  13.530  13.479   5.867  0.1134  0.0866  0.1357
 1194ERGO    R115600  13.433  13.657   6.064  0.1266  0.0844  0.1445
 1194ERGO    R215601  13.269  13.576   6.271  0.0101  0.1114  0.0647
 1194ERGO    R315602  13.460  13.692   6.426  0.0105 -0.0195  0.1633
 1194ERGO    R415603  13.217  13.702   6.588 -0.0887  0.2315  0.0014
 1194ERGO    R515604  13.346  13.870   6.538  0.0917  0.1069  0.0463
 1194ERGO    C115605  13.366  13.884   6.918 -0.1458  0.1785  0.0571
 1194ERGO    C215606  13.513  13.771   7.229 -0.1877 -0.1588 -0.1992
 1195ERGO   ROH15607   6.084   8.399   6.212  0.3637  0.0671  0.0769
 1195ERGO    R115608   5.974   8.185   6.360  0.2425  0.0297 -0.0641
 1195ERGO    R215609   6.130   7.990   6.479  0.1464 -0.0111 -0.0014
 1195ERGO    R315610   5.994   8.063   6.703 -0.0172 -0.0673 -0.0816
 1195ERGO    R415611   6.232   7.925   6.803 -0.0321  0.0093  0.0600
 1195ERGO    R515612   6.025   7.879   6.854 -0.0489 -0.0629 -0.0705
 1195ERGO    C115613   6.164   7.955   7.201 -0.2895 -0.0316  0.0205
 1195ERGO    C215614   6.132   7.906   7.489  0.1972 -0.0380 -0.3796
 1196ERGO   ROH15615   1.466  10.827   6.069 -0.2976  0.1616  0.1476
 1196ERGO    R115616   1.555  10.671   6.288 -0.2484  0.1348  0.1089
 1196ERGO    R215617   1.745  10.761   6.467 -0.2237  0.1220  0.0899
 1196ERGO    R315618   1.554  10.701   6.651 -0.1883  0.0805  0.1135
 1196ERGO    R415619   1.807  10.651   6.789 -0.1591  0.2872  0.1350
 1196ERGO    R515620   1.642  10.512   6.769 -0.0755  0.1793  0.1901
 1196ERGO    C115621   1.664  10.531   7.149 -0.0883  0.3445  0.1834
 1196ERGO    C215622   1.323  10.539   7.473 -0.0745  0.0058 -0.1243
 1197ERGO   ROH15623  16.168  17.827   5.420  0.2339 -0.0466 -0.2484
 1197ERGO    R115624  16.181  17.842   5.703  0.1432  0.1245 -0.2519
 1197ERGO    R215625  16.273  17.632   5.858 -0.2394  0.0839 -0.0729
 1197ERGO    R315626  16.441  17.822   5.956  0.0168 -0.1051 -0.1365
 1197ERGO    R415627  16.407  17.632   6.177 -0.3418  0.0702 -0.0293
 1197ERGO    R515628  16.376  17.847   6.185 -0.0229  0.1301 -0.1701
 1197ERGO    C115629  16.643  17.809   6.454 -0.1611 -0.1150 -0.0636
 1197ERGO    C215630  16.872  17.802   6.672 -0.5514 -0.0354  0.2810
 1198ERGO   ROH15631  16.358  15.200   6.094  0.2749  0.0765  0.0399
 1198ERGO    R115632  16.423  15.173   6.369  0.2842  0.3577  0.0692
 1198ERGO    R215633  16.505  14.933   6.479 -0.2636  0.3122  0.4270
 1198ERGO    R315634  16.717  15.082   6.563  0.1323 -0.0503  0.1172
 1198ERGO    R415635  16.679  14.881   6.773 -0.0821  0.1759  0.2972
 1198ERGO    R515636  16.688  15.097   6.800  0.3884  0.1859  0.1364
 1198ERGO    C115637  16.979  14.991   7.023  0.3955 -0.2437 -0.0692
 1198ERGO    C215638  17.077  14.971   7.328  0.1155 -0.2407 -0.2330
 1199ERGO   ROH15639  16.126   6.861   5.852  0.0792 -0.0045 -0.0177
 1199ERGO    R115640  16.020   6.928   6.106  0.0293 -0.0339 -0.0298
 1199ERGO    R215641  15.902   6.742   6.272  0.0172 -0.0599 -0.0613
 1199ERGO    R315642  16.083   6.835   6.452 -0.0192 -0.0559 -0.0280
 1199ERGO    R415643  15.894   6.675   6.611 -0.1835  0.1506 -0.0225
 1199ERGO    R515644  15.952   6.882   6.648 -0.0846  0.1366 -0.1195
 1199ERGO    C115645  16.060   6.723   6.978 -0.3346  0.2770  0.0314
 1199ERGO    C215646  16.136   6.500   7.255 -0.0372  0.0948 -0.2859
 1200ERGO   ROH15647  18.370  12.517   6.168 -0.0079  0.0465 -0.1131
 1200ERGO    R115648  18.212  12.648   6.363  0.0404  0.0483 -0.0747
 1200ERGO    R215649  17.951  12.575   6.416  0.0229  0.1101 -0.0759
 1200ERGO    R315650  18.042  12.556   6.672  0.0325  0.0278 -0.0850
 1200ERGO    R415651  17.751  12.569   6.698  0.0378  0.1371 -0.0650
 1200ERGO    R515652  17.896  12.698   6.798  0.0951  0.0628 -0.0504
 1200ERGO    C115653  17.720  12.549   7.102  0.0553  0.0755 -0.0672
 1200ERGO    C215654  17.565  12.570   7.557 -0.3027  0.1339 -0.1005
 1201ERGO   ROH15655  15.068   4.691   5.642 -0.0177  0.1687  0.0183
 1201ERGO    R115656  15.112   4.867   5.859  0.0034  0.2726 -0.0686
 1201ERGO    R215657  15.025   5.129   5.859 -0.3125  0.1737 -0.0410
 1201ERGO    R315658  14.907   5.056   6.093  0.0179  0.0801  0.1025
 1201ERGO    R415659  14.928   5.348   6.109 -0.3107  0.1107  0.0146
 1201ERGO    R515660  15.000   5.204   6.256  0.0158  0.2253 -0.0274
 1201ERGO    C115661  14.761   5.406   6.473  0.0004 -0.0138  0.1817
 1201ERGO    C215662  14.534   5.678   6.462  0.4264  0.2856  0.2697
 1202ERGO   ROH15663  12.723  18.220   6.129 -0.1855  0.0312  0.0006
 1202ERGO    R115664  12.748  18.129   6.395 -0.0759  0.1409  0.0293
 1202ERGO    R215665  12.859  18.284   6.596 -0.0872  0.2652 -0.0545
 1202ERGO    R315666  12.624  18.230   6.722 -0.0332  0.2122  0.0227
 1202ERGO    R415667  12.820  18.265   6.939  0.0280  0.2278 -0.0433
 1202ERGO    R515668  12.688  18.094   6.909  0.0511  0.2095 -0.0112
 1202ERGO    C115669  12.577  18.203   7.257  0.1457  0.1561  0.0356
 1202ERGO    C215670  12.444  18.248   7.511  0.0457 -0.0991  0.3004
 1203ERGO   ROH15671   5.045  15.852   6.528 -0.0295  0.2175 -0.0442
 1203ERGO    R115672   5.175  15.723   6.744 -0.0722  0.1404 -0.0650
 1203ERGO    R215673   5.396  15.559   6.708 -0.0568  0.1654 -0.0798
 1203ERGO    R315674   5.508  15.726   6.891 -0.1058  0.1005  0.0116
 1203ERGO    R415675   5.646  15.470   6.929 -0.1895  0.0630  0.0330
 1203ERGO    R515676   5.545  15.587   7.083 -0.2369  0.0560  0.0045
 1203ERGO    C115677   5.897  15.575   7.229 -0.3130 -0.0576  0.1844
 1203ERGO    C215678   6.003  15.479   7.525  0.0801  0.3203  0.1586
 1204ERGO   ROH15679  14.759   2.479   5.786  0.0628  0.2159 -0.1646
 1204ERGO    R115680  14.809   2.501   6.064 -0.1742  0.1258 -0.1163
 1204ERGO    R215681  15.006   2.665   6.168 -0.0370 -0.1773  0.0726
 1204ERGO    R315682  14.800   2.765   6.314 -0.0267  0.1252 -0.1031
 1204ERGO    R415683  15.036   2.803   6.483 -0.0466  0.0391 -0.0157
 1204ERGO    R515684  14.851   2.703   6.540 -0.1795  0.2403 -0.0225
 1204ERGO    C115685  14.859   2.977   6.805 -0.0425  0.4490 -0.2319
 1204ERGO    C215686  14.657   3.030   7.108  0.1354  0.1379 -0.1357
 1205ERGO   ROH15687  18.223   6.728   6.647 -0.1612 -0.1630  0.2069
 1205ERGO    R115688  18.413   6.850   6.818 -0.0611 -0.1339  0.0760
 1205ERGO    R215689  18.481   6.743   7.064  0.1097 -0.1122  0.0347
 1205ERGO    R315690  18.733   6.758   6.965  0.0480 -0.0895 -0.1267
 1205ERGO    R415691  18.764   6.803   7.253  0.2251 -0.1292 -0.1288
 1205ERGO    R515692  18.837   6.932   7.094  0.1205 -0.1000 -0.1627
 1205ERGO    C115693  19.166   6.851   7.271  0.2340 -0.1177 -0.3756
 1205ERGO    C215694  19.577   6.780   7.415 -0.2568  0.0608 -0.0516
 1206ERGO   ROH15695   7.412   7.539   5.989 -0.0639  0.0383  0.0798
 1206ERGO    R115696   7.492   7.564   6.260 -0.4176  0.0295  0.1924
 1206ERGO    R215697   7.378   7.415   6.462 -0.1863 -0.5396 -0.0621
 1206ERGO    R315698   7.637   7.347   6.513 -0.0023  0.2088  0.1137
 1206ERGO    R415699   7.495   7.294   6.765 -0.1552 -0.7119 -0.1436
 1206ERGO    R515700   7.673   7.417   6.740 -0.5075 -0.0697  0.2907
 1206ERGO    C115701   7.805   7.160   6.989  0.0355 -0.1097 -0.0260
 1206ERGO    C215702   7.764   7.214   7.344 -0.2621  0.1753 -0.0595
 1207ERGO   ROH15703   6.564   7.977   6.385  0.0713  0.0417  0.0380
 1207ERGO    R115704   6.756   7.983   6.593  0.1011 -0.1257  0.0186
 1207ERGO    R215705   6.729   8.144   6.816  0.4365  0.1846 -0.1469
 1207ERGO    R315706   6.763   7.910   6.949 -0.0413  0.2434  0.1013
 1207ERGO    R415707   6.914   8.107   7.105  0.5692  0.0697 -0.2459
 1207ERGO    R515708   6.990   7.918   7.027  0.0491 -0.2216 -0.0862
 1207ERGO    C115709   7.054   7.866   7.399  0.1980  0.0578 -0.0706
 1207ERGO    C215710   7.145   7.944   7.763 -0.0630 -0.0174 -0.1650
 1208ERGO   ROH15711   1.540   3.070   6.031 -0.0186 -0.0325  0.0076
 1208ERGO    R115712   1.407   3.153   6.266 -0.0173 -0.0184  0.0026
 1208ERGO    R215713   1.458   3.040   6.513 -0.0261 -0.0111  0.0034
 1208ERGO    R315714   1.502   3.298   6.587 -0.0171 -0.0110  0.0005
 1208ERGO    R415715   1.448   3.157   6.838 -0.2705  0.0341 -0.0179
 1208ERGO    R515716   1.347   3.336   6.765 -0.1630  0.0547 -0.1332
 1208ERGO    C115717   1.484   3.467   7.096 -0.4044  0.0606 -0.0330
 1208ERGO    C215718   1.377   3.655   7.307 -0.3684 -0.2742 -0.2005
 1209ERGO   ROH15719  15.465  12.315   5.668 -0.4232 -0.3494 -0.1311
 1209ERGO    R115720  15.462  12.425   5.929  0.0316 -0.2438 -0.1618
 1209ERGO    R215721  15.251  12.387   6.104  0.0816  0.2710  0.0287
 1209ERGO    R315722  15.448  12.298   6.270  0.0378 -0.0989 -0.1069
 1209ERGO    R415723  15.274  12.460   6.441  0.3336  0.0450  0.0647
 1209ERGO    R515724  15.489  12.483   6.417  0.3580 -0.2379 -0.0141
 1209ERGO    C115725  15.472  12.420   6.793  0.4393 -0.4339 -0.0416
 1209ERGO    C215726  15.609  12.443   7.222 -0.1447 -0.0813 -0.1615
 1210ERGO   ROH15727  18.178  17.823   5.409 -0.0163  0.0640  0.1868
 1210ERGO    R115728  17.961  17.828   5.590 -0.1151 -0.2390  0.0821
 1210ERGO    R215729  17.881  17.606   5.734  0.2834 -0.2953  0.2242
 1210ERGO    R315730  17.912  17.773   5.946 -0.1572 -0.0487  0.1071
 1210ERGO    R415731  17.730  17.565   6.042  0.1904 -0.3304  0.1750
 1210ERGO    R515732  17.696  17.780   6.049 -0.2348 -0.3814 -0.0211
 1210ERGO    C115733  17.671  17.698   6.421 -0.2773 -0.1198  0.0365
 1210ERGO    C215734  17.422  17.708   6.641 -0.2359 -0.0914 -0.2699
 1211ERGO   ROH15735  15.366   1.374   6.157 -0.1139  0.2425  0.1163
 1211ERGO    R115736  15.467   1.372   6.421 -0.1546  0.0795  0.1317
 1211ERGO    R215737  15.331   1.257   6.632 -0.1598 -0.1060  0.0304
 1211ERGO    R315738  15.563   1.120   6.665 -0.1308 -0.0724 -0.0330
 1211ERGO    R415739  15.439   1.118   6.930  0.0760  0.1426  0.0653
 1211ERGO    R515740  15.640   1.184   6.882  0.0373  0.1091 -0.1445
 1211ERGO    C115741  15.720   0.908   7.134  0.2404  0.3189  0.0262
 1211ERGO    C215742  15.602   0.787   7.373  0.0178  0.3018  0.1100
 1212ERGO   ROH15743   4.813   1.090   6.304  0.3165  0.3218 -0.1480
 1212ERGO    R115744   4.825   0.911   6.522  0.0630  0.4346 -0.0364
 1212ERGO    R215745   4.977   0.680   6.516 -0.3428  0.1512  0.0605
 1212ERGO    R315746   5.082   0.782   6.745 -0.0884  0.1178 -0.0392
 1212ERGO    R415747   5.051   0.495   6.799 -0.4852  0.1860  0.1210
 1212ERGO    R515748   4.974   0.659   6.920 -0.1916  0.3646  0.0735
 1212ERGO    C115749   5.194   0.484   7.178 -0.3293  0.1749  0.0626
 1212ERGO    C215750   5.247   0.237   7.513  0.1940  0.1042  0.0498
 1213ERGO   ROH15751   3.727  18.503   7.494 -0.2055 -0.1792  0.0773
 1213ERGO    R115752   3.752  18.434   7.767 -0.0706 -0.1612  0.0702
 1213ERGO    R215753   3.986  18.470   7.908 -0.0457 -0.0057 -0.0061
 1213ERGO    R315754   3.825  18.608   8.078 -0.0828 -0.1095  0.0438
 1213ERGO    R415755   3.958  18.408   8.247  0.0825 -0.0327  0.0003
 1213ERGO    R515756   3.743  18.442   8.230  0.0586 -0.1624  0.0613
 1213ERGO    C115757   3.789  18.502   8.604  0.1224 -0.1457  0.0509
 1213ERGO    C215758   3.882  18.546   9.008  0.1053  0.1566  0.0488
 1214ERGO   ROH15759   0.917  18.182   5.534  0.0185  0.0108  0.0159
 1214ERGO    R115760   0.918  18.256   5.807 -0.0563  0.0146  0.0162
 1214ERGO    R215761   0.748  18.448   5.909  0.0372  0.1517 -0.0672
 1214ERGO    R315762   0.681  18.250   6.083 -0.1980  0.1989 -0.1018
 1214ERGO    R415763   0.661  18.496   6.240  0.0505  0.1863 -0.0693
 1214ERGO    R515764   0.776  18.319   6.291 -0.1510  0.0580 -0.0822
 1214ERGO    C115765   0.548  18.338   6.596 -0.1625  0.2511 -0.1030
 1214ERGO    C215766   0.398  18.357   6.899 -0.0372  0.1521  0.1596
 1215ERGO   ROH15767   1.911   0.199   7.221  0.0600  0.0460 -0.0025
 1215ERGO    R115768   1.882   0.107   7.487  0.1329  0.0904  0.0221
 1215ERGO    R215769   1.687   0.204   7.657  0.0921  0.0242  0.0196
 1215ERGO    R315770   1.624  -0.060   7.682  0.2389 -0.0048  0.0799
 1215ERGO    R415771   1.529   0.064   7.931 -0.1764  0.0648 -0.1122
 1215ERGO    R515772   1.662  -0.108   7.914 -0.0352  0.1474  0.1582
 1215ERGO    C115773   1.378  -0.264   8.114 -0.1949  0.0614 -0.1322
 1215ERGO    C215774   1.117  -0.320   8.365  0.1500  0.2643  0.1801
 1216ERGO   ROH15775   0.586   9.509   9.302  0.1439  0.3334  0.1055
 1216ERGO    R115776   0.737   9.567   9.070  0.1936  0.0391  0.0609
 1216ERGO    R215777   0.777   9.383   8.868 -0.1665 -0.0668  0.0847
 1216ERGO    R315778   0.676   9.580   8.711  0.1333  0.0834  0.0712
 1216ERGO    R415779   0.797   9.390   8.523 -0.2035 -0.1605  0.0796
 1216ERGO    R515780   0.836   9.604   8.535  0.1561 -0.2135  0.0409
 1216ERGO    C115781   0.713   9.580   8.175  0.0565 -0.0739  0.0640
 1216ERGO    C215782   0.792   9.675   7.800 -0.1602  0.2039 -0.0745
 1217ERGO   ROH15783   6.141   3.501   6.400 -0.0334 -0.1153  0.0153
 1217ERGO    R115784   5.952   3.606   6.583 -0.0064 -0.0467  0.0046
 1217ERGO    R215785   5.780   3.446   6.728 -0.0218  0.0105  0.0519
 1217ERGO    R315786   5.886   3.580   6.940  0.0129  0.0414  0.0146
 1217ERGO    R415787   5.616   3.506   7.027  0.0216  0.0680  0.0640
 1217ERGO    R515788   5.703   3.706   7.029  0.0309  0.0641  0.0184
 1217ERGO    C115789   5.620   3.666   7.399  0.0796  0.1305  0.0360
 1217ERGO    C215790   5.609   3.408   7.769  0.3434 -0.1013  0.0406
 1218ERGO   ROH15791  11.800   2.126   6.568 -0.0343 -0.1945  0.1023
 1218ERGO    R115792  11.825   2.141   6.849  0.0154 -0.1534  0.0937
 1218ERGO    R215793  12.022   2.005   6.989  0.1283 -0.0095  0.0585
 1218ERGO    R315794  12.078   2.252   7.086 -0.0087  0.0334  0.0377
 1218ERGO    R415795  12.146   2.069   7.304  0.2805  0.0529 -0.0114
 1218ERGO    R515796  12.014   2.242   7.316  0.1405 -0.0459  0.0849
 1218ERGO    C115797  12.273   2.339   7.580  0.2404  0.1296 -0.0718
 1218ERGO    C215798  12.556   2.464   7.883 -0.2843 -0.2735  0.2280
 1219ERGO   ROH15799   3.232   8.289   8.910  0.0050 -0.2123 -0.0620
 1219ERGO    R115800   3.010   8.210   8.753  0.0240 -0.1563 -0.1176
 1219ERGO    R215801   2.815   8.387   8.670 -0.0351 -0.1499  0.0341
 1219ERGO    R315802   2.876   8.289   8.424 -0.0145  0.0680 -0.0496
 1219ERGO    R415803   2.583   8.305   8.427 -0.0241 -0.0893  0.0028
 1219ERGO    R515804   2.704   8.129   8.379  0.0635  0.0090 -0.1468
 1219ERGO    C115805   2.505   8.165   8.055  0.0016  0.1505 -0.0941
 1219ERGO    C215806   2.461   8.201   7.777  0.1001  0.0490  0.1830
 1220ERGO   ROH15807   1.111  17.279   5.974 -0.0110 -0.0508 -0.0589
 1220ERGO    R115808   1.143  17.266   6.255 -0.0233 -0.0701 -0.0592
 1220ERGO    R215809   1.050  17.463   6.424  0.0315 -0.0507 -0.0578
 1220ERGO    R315810   0.924  17.256   6.545 -0.0339 -0.0160 -0.0638
 1220ERGO    R415811   0.887  17.482   6.728  0.0301 -0.0008 -0.0608
 1220ERGO    R515812   0.969  17.287   6.779 -0.0277 -0.0294 -0.0604
 1220ERGO    C115813   0.672  17.299   7.019 -0.0320  0.0609 -0.0682
 1220ERGO    C215814   0.489  17.436   7.245 -0.0241 -0.0113 -0.0269
 1221ERGO   ROH15815   8.824   1.946   6.563  0.3459  0.1595  0.2254
 1221ERGO    R115816   8.725   1.718   6.698  0.1826  0.1787  0.1408
 1221ERGO    R215817   8.879   1.492   6.742  0.0364  0.0701  0.0989
 1221ERGO    R315818   8.808   1.534   7.001  0.0196  0.0353  0.1001
 1221ERGO    R415819   8.907   1.258   6.995 -0.1348 -0.0212  0.0349
 1221ERGO    R515820   8.714   1.325   7.072 -0.1101  0.0661  0.0242
 1221ERGO    C115821   8.856   1.161   7.386 -0.2502 -0.1071 -0.0012
 1221ERGO    C215822   8.886   1.191   7.779 -0.0672 -0.2067 -0.1304
 1222ERGO   ROH15823  13.771   2.040   6.094  0.1948  0.2035 -0.0313
 1222ERGO    R115824  13.637   2.102   6.335  0.0873  0.0963 -0.0633
 1222ERGO    R215825  13.554   1.908   6.513  0.2222  0.0317 -0.0725
 1222ERGO    R315826  13.697   2.057   6.691  0.0521  0.1691 -0.0475
 1222ERGO    R415827  13.515   1.897   6.857  0.1703 -0.0044 -0.0792
 1222ERGO    R515828  13.539   2.114   6.861 -0.0350  0.0210 -0.0757
 1222ERGO    C115829  13.626   2.030   7.223 -0.0198  0.1037 -0.0595
 1222ERGO    C215830  13.737   1.793   7.489  0.0259  0.1012  0.0895
 1223ERGO   ROH15831   6.353  12.681   5.874 -0.0614  0.1596  0.0687
 1223ERGO    R115832   6.478  12.502   6.055 -0.2772 -0.0173  0.0452
 1223ERGO    R215833   6.679  12.581   6.227 -0.0203 -0.3302 -0.1131
 1223ERGO    R315834   6.516  12.474   6.416 -0.1007  0.0295  0.0346
 1223ERGO    R415835   6.786  12.428   6.518 -0.0929 -0.3714 -0.1067
 1223ERGO    R515836   6.630  12.278   6.490 -0.3723 -0.1374  0.0517
 1223ERGO    C115837   6.695  12.239   6.864 -0.2106 -0.0578  0.0357
 1223ERGO    C215838   6.769  12.130   7.299  0.2146 -0.1442 -0.1125
 1224ERGO   ROH15839   5.967   4.404   6.019 -0.0404 -0.0506 -0.0418
 1224ERGO    R115840   6.059   4.564   6.233 -0.0354 -0.1709  0.0455
 1224ERGO    R215841   5.896   4.742   6.367  0.0227 -0.0982  0.0089
 1224ERGO    R315842   5.979   4.605   6.586 -0.1775 -0.2088  0.0199
 1224ERGO    R415843   5.883   4.860   6.692  0.2444 -0.0189 -0.0086
 1224ERGO    R515844   6.079   4.771   6.727  0.1127 -0.3387 -0.0161
 1224ERGO    C115845   5.954   4.800   7.086  0.1855 -0.0765 -0.0083
 1224ERGO    C215846   6.083   4.781   7.394 -0.2291  0.2756  0.1069
 1225ERGO   ROH15847  18.130   5.930   6.426 -0.1223  0.2745  0.1878
 1225ERGO    R115848  18.226   5.904   6.690 -0.2604 -0.0163  0.2131
 1225ERGO    R215849  18.214   5.666   6.831 -0.0777 -0.2520 -0.1563
 1225ERGO    R315850  18.481   5.707   6.861 -0.1394  0.0146  0.0708
 1225ERGO    R415851  18.441   5.423   6.923  0.1471 -0.1397 -0.4005
 1225ERGO    R515852  18.541   5.571   7.049 -0.1018 -0.2150 -0.1025
 1225ERGO    C115853  18.825   5.321   7.005  0.2202  0.1761 -0.3295
 1225ERGO    C215854  18.866   5.069   6.787 -0.0785 -0.3078  0.3307
 1226ERGO   ROH15855   7.499   0.930   6.650 -0.0559  0.1588  0.1720
 1226ERGO    R115856   7.617   0.849   6.894 -0.0255  0.1751  0.1641
 1226ERGO    R215857   7.840   0.686   6.904 -0.1755 -0.0436  0.1515
 1226ERGO    R315858   7.941   0.888   7.057  0.0894 -0.0523 -0.0070
 1226ERGO    R415859   8.080   0.648   7.150 -0.2611 -0.1700  0.2150
 1226ERGO    R515860   7.970   0.790   7.273 -0.0778  0.0911  0.0796
 1226ERGO    C115861   8.314   0.815   7.436 -0.0621 -0.2519  0.1032
 1226ERGO    C215862   8.593   0.830   7.637 -0.3640  0.0670  0.1531
 1227ERGO   ROH15863   4.444   2.235   6.461  0.0878  0.0415  0.1796
 1227ERGO    R115864   4.354   2.258   6.728  0.0261  0.0968  0.1547
 1227ERGO    R215865   4.461   2.439   6.907 -0.0022  0.1219  0.1485
 1227ERGO    R315866   4.202   2.516   6.935 -0.0033  0.1460  0.0712
 1227ERGO    R415867   4.280   2.419   7.200 -0.0796  0.1869  0.1053
 1227ERGO    R515868   4.108   2.354   7.084 -0.0539  0.1806  0.0746
 1227ERGO    C115869   3.931   2.480   7.398 -0.1257  0.2473  0.0076
 1227ERGO    C215870   3.674   2.608   7.533  0.0289 -0.0726  0.0332
 1228ERGO   ROH15871   6.024  16.125   6.465  0.2589 -0.1161  0.1136
 1228ERGO    R115872   5.954  16.210   6.726  0.1056 -0.0944  0.0665
 1228ERGO    R215873   5.739  16.105   6.864  0.0778 -0.1471 -0.0162
 1228ERGO    R315874   5.926  16.057   7.055  0.0061 -0.0461  0.0808
 1228ERGO    R415875   5.669  16.028   7.193 -0.0528 -0.2766 -0.0729
 1228ERGO    R515876   5.835  16.155   7.253 -0.1849 -0.1611  0.0530
 1228ERGO    C115877   5.804  15.937   7.564 -0.1960 -0.2572 -0.0148
 1228ERGO    C215878   5.883  15.823   7.867 -0.1723 -0.0070 -0.3273
 1229ERGO   ROH15879   1.868   6.520   6.046 -0.1203 -0.1334 -0.0307
 1229ERGO    R115880   1.916   6.312   6.232 -0.1286 -0.0390  0.0775
 1229ERGO    R215881   2.132   6.312   6.403 -0.0868  0.0030  0.0197
 1229ERGO    R315882   1.941   6.280   6.594 -0.0443  0.1610  0.0911
 1229ERGO    R415883   2.157   6.100   6.675 -0.1663 -0.0410 -0.0062
 1229ERGO    R515884   1.947   6.047   6.647 -0.2296  0.1467  0.0693
 1229ERGO    C115885   1.992   5.947   7.012 -0.1727  0.0818  0.0456
 1229ERGO    C215886   1.938   5.575   7.297 -0.1240 -0.1486 -0.2374
 1230ERGO   ROH15887  10.727  16.070   5.865 -0.4962  0.1753  0.0906
 1230ERGO    R115888  10.827  16.134   6.122 -0.1548  0.1017 -0.0197
 1230ERGO    R215889  10.670  16.128   6.349  0.0780  0.2911  0.1488
 1230ERGO    R315890  10.865  15.963   6.441  0.0087  0.0987 -0.0389
 1230ERGO    R415891  10.720  16.048   6.681  0.3005  0.2292  0.1021
 1230ERGO    R515892  10.935  16.063   6.647  0.2906  0.0269 -0.0927
 1230ERGO    C115893  10.933  15.846   6.961  0.3649  0.0125 -0.1013
 1230ERGO    C215894  11.082  15.821   7.274  0.0322 -0.0667  0.1727
 1231ERGO   ROH15895  10.629  17.149   8.156  0.2569 -0.2080  0.0424
 1231ERGO    R115896  10.593  17.106   7.879  0.0256 -0.0568  0.0461
 1231ERGO    R215897  10.566  17.313   7.698  0.1430  0.0494  0.1480
 1231ERGO    R315898  10.772  17.188   7.573 -0.0778 -0.1386 -0.0372
 1231ERGO    R415899  10.729  17.433   7.417  0.1135 -0.0093  0.1059
 1231ERGO    R515900  10.734  17.229   7.340 -0.1737  0.0162  0.0037
 1231ERGO    C115901  11.017  17.385   7.137 -0.1108 -0.2197 -0.0924
 1231ERGO    C215902  11.299  17.596   7.116 -0.1669  0.1286 -0.1017
 1232ERGO   ROH15903   8.638  14.081   6.087 -0.0679  0.1197 -0.0396
 1232ERGO    R115904   8.710  14.073   6.361 -0.2248 -0.2531 -0.0040
 1232ERGO    R215905   8.750  14.302   6.511  0.2925 -0.4481  0.1677
 1232ERGO    R315906   8.566  14.188   6.675 -0.0973 -0.0900 -0.0022
 1232ERGO    R415907   8.716  14.371   6.848  0.1935 -0.4550  0.1598
 1232ERGO    R515908   8.681  14.159   6.883 -0.3079 -0.4031  0.0816
 1232ERGO    C115909   8.523  14.304   7.198 -0.2301 -0.1229 -0.0043
 1232ERGO    C215910   8.267  14.454   7.430  0.1774 -0.3286 -0.3813
 1233ERGO   ROH15911   7.256   8.661   6.193  0.1699 -0.0940 -0.2075
 1233ERGO    R115912   7.215   8.810   6.430  0.0428 -0.0006 -0.2860
 1233ERGO    R215913   7.375   8.780   6.654 -0.2089 -0.0742 -0.1094
 1233ERGO    R315914   7.406   9.049   6.628  0.0339 -0.1036 -0.1524
 1233ERGO    R415915   7.298   9.011   6.898 -0.3424  0.0603 -0.2764
 1233ERGO    R515916   7.217   9.141   6.743 -0.0435  0.0799 -0.4204
 1233ERGO    C115917   7.281   9.398   7.017 -0.1923  0.1110 -0.4140
 1233ERGO    C215918   7.456   9.701   7.120  0.0628  0.0843  0.1178
 1234ERGO   ROH15919  10.165  13.357   5.850 -0.1233  0.1504 -0.0012
 1234ERGO    R115920   9.988  13.489   6.027 -0.1311  0.0379  0.0749
 1234ERGO    R215921   9.783  13.357   6.158 -0.0086 -0.0851  0.1390
 1234ERGO    R315922   9.899  13.464   6.379  0.0106 -0.0386  0.1071
 1234ERGO    R415923   9.614  13.447   6.445  0.0287 -0.1674  0.1875
 1234ERGO    R515924   9.740  13.625   6.457 -0.0424 -0.1087  0.1537
 1234ERGO    C115925   9.624  13.601   6.820  0.0684 -0.1717  0.1857
 1234ERGO    C215926   9.420  13.663   7.076 -0.1774  0.0467  0.1586
 1235ERGO   ROH15927   5.866   6.959   5.923  0.0089  0.1643  0.0080
 1235ERGO    R115928   5.842   6.912   6.201  0.0100  0.0420 -0.0118
 1235ERGO    R215929   5.998   6.727   6.335  0.0553  0.0271 -0.0812
 1235ERGO    R315930   6.057   6.940   6.494 -0.0090 -0.0210  0.0078
 1235ERGO    R415931   6.163   6.709   6.639  0.1913 -0.0304 -0.1575
 1235ERGO    R515932   6.025   6.859   6.717  0.1328 -0.1556 -0.0218
 1235ERGO    C115933   6.313   6.898   6.964  0.2101 -0.1091 -0.1184
 1235ERGO    C215934   6.415   6.950   7.285 -0.0428 -0.0264  0.1552
 1236ERGO   ROH15935  10.840   4.963   6.166  0.3555  0.1834 -0.0348
 1236ERGO    R115936  10.965   4.888   6.408  0.0532  0.0870  0.0960
 1236ERGO    R215937  11.186   5.020   6.510  0.1610 -0.1860  0.2298
 1236ERGO    R315938  11.030   5.042   6.731  0.0041  0.1068  0.0964
 1236ERGO    R415939  11.299   5.121   6.820 -0.0398  0.1347  0.2030
 1236ERGO    R515940  11.171   4.969   6.910 -0.1450  0.2695  0.2852
 1236ERGO    C115941  11.218   5.201   7.209 -0.3040  0.5964  0.0621
 1236ERGO    C215942  11.216   5.297   7.550  0.3814  0.3003 -0.0624
 1237ERGO   ROH15943  15.836  13.162   6.118  0.2471  0.1061 -0.1887
 1237ERGO    R115944  16.096  13.171   6.230  0.2332 -0.0349 -0.1419
 1237ERGO    R215945  16.142  13.192   6.502  0.1960 -0.0177 -0.1356
 1237ERGO    R315946  16.292  12.969   6.460  0.0668 -0.1172 -0.0719
 1237ERGO    R415947  16.339  13.038   6.741  0.0878 -0.0800 -0.0862
 1237ERGO    R515948  16.491  13.006   6.589  0.0794 -0.2064 -0.0671
 1237ERGO    C115949  16.594  12.739   6.841 -0.0965 -0.2099  0.0023
 1237ERGO    C215950  16.739  12.515   7.054  0.0966 -0.1824  0.3082
 1238ERGO   ROH15951   3.930   8.801   5.957  0.0049  0.1111 -0.0465
 1238ERGO    R115952   3.953   8.699   6.221  0.2534  0.0581 -0.0870
 1238ERGO    R215953   4.164   8.764   6.388  0.1170  0.4882 -0.0790
 1238ERGO    R315954   3.964   8.837   6.557 -0.0545 -0.0389 -0.0311
 1238ERGO    R415955   4.170   8.721   6.731  0.3950  0.6210 -0.0637
 1238ERGO    R515956   3.960   8.664   6.722  0.5344 -0.0175  0.0377
 1238ERGO    C115957   3.986   8.765   7.089  0.3959  0.2036 -0.0099
 1238ERGO    C215958   3.979   8.803   7.432 -0.1058  0.2020 -0.0676
 1239ERGO   ROH15959   9.751  15.310   6.075 -0.1505 -0.0457 -0.0605
 1239ERGO    R115960   9.911  15.347   6.306 -0.1359 -0.0324 -0.0716
 1239ERGO    R215961   9.863  15.549   6.488 -0.0549  0.0540 -0.1361
 1239ERGO    R315962   9.858  15.344   6.666 -0.1443  0.1112 -0.0728
 1239ERGO    R415963   9.939  15.577   6.824 -0.0649  0.1142 -0.1392
 1239ERGO    R515964  10.044  15.386   6.811 -0.1418  0.0754 -0.0742
 1239ERGO    C115965   9.980  15.400   7.187 -0.1549  0.2028 -0.0816
 1239ERGO    C215966   9.934  15.311   7.599 -0.0244 -0.3075 -0.0812
 1240ERGO   ROH15967   1.635   4.171   5.939 -0.2702 -0.0006 -0.1150
 1240ERGO    R115968   1.412   4.326   6.016 -0.1718  0.1018 -0.0307
 1240ERGO    R215969   1.317   4.332   6.276 -0.2209 -0.0488 -0.0421
 1240ERGO    R315970   1.347   4.600   6.246 -0.0125 -0.0429  0.1902
 1240ERGO    R415971   1.124   4.570   6.435 -0.2543 -0.0436 -0.0912
 1240ERGO    R515972   1.123   4.686   6.250  0.0361  0.0969 -0.0101
 1240ERGO    C115973   1.040   4.962   6.499 -0.0780 -0.0349  0.0985
 1240ERGO    C215974   0.770   5.100   6.688  0.0794  0.5308 -0.0602
 1241ERGO   ROH15975   2.350   8.741   5.863  0.0160  0.1690  0.0444
 1241ERGO    R115976   2.531   8.701   6.077 -0.0193  0.0032  0.0446
 1241ERGO    R215977   2.527   8.857   6.306  0.0964 -0.0188  0.0603
 1241ERGO    R315978   2.508   8.616   6.430 -0.0946 -0.0189  0.0348
 1241ERGO    R415979   2.548   8.808   6.647 -0.0135 -0.0633  0.0616
 1241ERGO    R515980   2.666   8.628   6.609 -0.1249 -0.1409  0.0722
 1241ERGO    C115981   2.543   8.553   6.962 -0.2568 -0.0894  0.0383
 1241ERGO    C215982   2.306   8.636   7.196  0.1974 -0.1043 -0.0636
 1242ERGO   ROH15983  12.449   2.307   6.262 -0.1321 -0.1848 -0.0465
 1242ERGO    R115984  12.677   2.406   6.398 -0.1313 -0.0635 -0.1312
 1242ERGO    R215985  12.678   2.649   6.531 -0.1982 -0.0379 -0.1560
 1242ERGO    R315986  12.762   2.497   6.740 -0.0703  0.0151 -0.1706
 1242ERGO    R415987  12.754   2.770   6.845 -0.3175 -0.0268 -0.1320
 1242ERGO    R515988  12.924   2.634   6.851 -0.2032  0.1335 -0.1406
 1242ERGO    C115989  12.878   2.698   7.225 -0.2671  0.0295 -0.1318
 1242ERGO    C215990  12.805   2.793   7.605 -0.1596  0.2280  0.2203
 1243ERGO   ROH15991   2.951   1.153   6.576 -0.0904  0.0626  0.1008
 1243ERGO    R115992   2.876   1.393   6.706  0.1181  0.1194  0.1188
 1243ERGO    R215993   2.739   1.395   6.946 -0.0124  0.2166  0.0407
 1243ERGO    R315994   2.946   1.554   7.025  0.1303 -0.0407  0.1991
 1243ERGO    R415995   2.741   1.587   7.233 -0.1030  0.3921 -0.0736
 1243ERGO    R515996   2.839   1.746   7.120  0.2841  0.1832 -0.0586
 1243ERGO    C115997   2.936   1.848   7.475 -0.0218  0.2528  0.0084
 1243ERGO    C215998   3.022   1.857   7.786 -0.1215  0.2604 -0.0530
 1244ERGO   ROH15999  12.533   8.529   5.867 -0.0341  0.0479 -0.0893
 1244ERGO    R116000  12.616   8.440   6.122  0.0492  0.0183 -0.1244
 1244ERGO    R216001  12.499   8.530   6.356  0.0442 -0.0822 -0.0829
 1244ERGO    R316002  12.463   8.265   6.403  0.1626 -0.1198 -0.1437
 1244ERGO    R416003  12.554   8.374   6.659 -0.0708 -0.0854 -0.0643
 1244ERGO    R516004  12.641   8.206   6.552  0.1047 -0.0320 -0.0308
 1244ERGO    C116005  12.551   8.033   6.880 -0.0264 -0.1226 -0.1106
 1244ERGO    C216006  12.695   7.886   7.140 -0.1891 -0.2519  0.0542
 1245ERGO   ROH16007   4.415  10.478   6.025  0.1635  0.3188 -0.1599
 1245ERGO    R116008   4.268  10.516   6.264  0.0137  0.2815 -0.2445
 1245ERGO    R216009   4.379  10.478   6.514 -0.2278 -0.0646 -0.1815
 1245ERGO    R316010   4.290  10.731   6.556  0.0330  0.0070 -0.0400
 1245ERGO    R416011   4.258  10.598   6.815 -0.0702 -0.0921 -0.1059
 1245ERGO    R516012   4.104  10.705   6.704  0.0243  0.1210 -0.0320
 1245ERGO    C116013   4.104  10.906   7.029  0.2663 -0.0408  0.0708
 1245ERGO    C216014   4.022  11.187   7.228 -0.1399  0.1908  0.0904
 1246ERGO   ROH16015   8.951  16.452   6.055 -0.1460  0.2515 -0.0330
 1246ERGO    R116016   9.031  16.408   6.323 -0.1151  0.1097 -0.0653
 1246ERGO    R216017   9.143  16.606   6.479 -0.1363  0.0362  0.0367
 1246ERGO    R316018   8.942  16.541   6.650 -0.1069 -0.0954  0.0234
 1246ERGO    R416019   9.155  16.649   6.822 -0.1146 -0.1074  0.0547
 1246ERGO    R516020   9.055  16.456   6.844 -0.0618 -0.1502 -0.0218
 1246ERGO    C116021   8.973  16.612   7.182 -0.0745 -0.3146  0.0528
 1246ERGO    C216022   9.065  16.926   7.332  0.0543  0.1702 -0.0112
 1247ERGO   ROH16023   7.539   2.864   6.723  0.1645  0.1456  0.2038
 1247ERGO    R116024   7.715   2.675   6.839  0.1285  0.0942  0.1770
 1247ERGO    R216025   7.767   2.667   7.110  0.1792  0.0877  0.1708
 1247ERGO    R316026   7.692   2.407   7.084  0.0896  0.1121  0.1914
 1247ERGO    R416027   7.868   2.410   7.319  0.2689  0.0273  0.0534
 1247ERGO    R516028   7.887   2.282   7.143  0.0989  0.0487  0.0215
 1247ERGO    C116029   7.855   2.017   7.416  0.2370  0.0149  0.0044
 1247ERGO    C216030   8.002   1.708   7.502  0.1900  0.0509 -0.0629
 1248ERGO   ROH16031   5.451   2.072   6.698  0.0699 -0.4086  0.1493
 1248ERGO    R116032   5.406   2.200   6.947  0.3466 -0.1030  0.0483
 1248ERGO    R216033   5.252   2.087   7.147 -0.1436  0.5034  0.0413
 1248ERGO    R316034   5.475   2.129   7.297 -0.0661 -0.1277  0.1300
 1248ERGO    R416035   5.253   2.148   7.487 -0.1088  0.5336  0.0364
 1248ERGO    R516036   5.410   2.296   7.455  0.3470  0.0889  0.0863
 1248ERGO    C116037   5.462   2.223   7.826 -0.0159 -0.0411  0.1168
 1248ERGO    C216038   5.604   2.289   8.115  0.1089  0.0605 -0.1347
 1249ERGO   ROH16039  12.885   4.677   6.010 -0.0026 -0.1090  0.0176
 1249ERGO    R116040  13.064   4.523   6.166  0.0627 -0.0198  0.0321
 1249ERGO    R216041  13.268   4.374   6.054  0.0703 -0.0163  0.0387
 1249ERGO    R316042  13.422   4.516   6.227  0.0775  0.0752 -0.0424
 1249ERGO    R416043  13.497   4.237   6.273 -0.0032  0.0897  0.1836
 1249ERGO    R516044  13.432   4.380   6.424  0.0085  0.2219  0.0639
 1249ERGO    C116045  13.776   4.289   6.563 -0.0392  0.2373  0.1919
 1249ERGO    C216046  13.969   4.328   6.806 -0.0309  0.0045 -0.3199
 1250ERGO   ROH16047  16.495  16.309   5.919 -0.0255  0.0100  0.1875
 1250ERGO    R116048  16.407  16.254   6.183 -0.1171  0.2057  0.1998
 1250ERGO    R216049  16.555  16.102   6.361 -0.3642 -0.0120  0.2282
 1250ERGO    R316050  16.526  16.320   6.520  0.0007  0.0739  0.1842
 1250ERGO    R416051  16.521  16.093   6.704 -0.1972  0.1342  0.2495
 1250ERGO    R516052  16.372  16.251   6.689 -0.0021  0.3231  0.2856
 1250ERGO    C116053  16.475  16.292   7.054  0.2427  0.2998  0.2205
 1250ERGO    C216054  16.587  16.151   7.289 -0.0815  0.0403 -0.1352
 1251ERGO   ROH16055  11.230  15.277   6.259 -0.0504  0.2658  0.1016
 1251ERGO    R116056  11.183  15.163   6.513  0.0403  0.1516  0.0681
 1251ERGO    R216057  11.058  14.918   6.546  0.0305  0.1467  0.0044
 1251ERGO    R316058  11.282  14.860   6.689  0.0830  0.0598 -0.1120
 1251ERGO    R416059  11.073  14.686   6.801  0.1172  0.0138 -0.1204
 1251ERGO    R516060  11.201  14.824   6.912  0.1675 -0.0505 -0.0988
 1251ERGO    C116061  11.292  14.496   7.085  0.2168 -0.1452 -0.3022
 1251ERGO    C216062  11.416  14.185   7.300  0.1232 -0.0837  0.2424
 1252ERGO   ROH16063  12.993   9.503   6.028 -0.2056  0.1236  0.0535
 1252ERGO    R116064  13.115   9.416   6.268 -0.1176  0.0787 -0.0062
 1252ERGO    R216065  13.099   9.560   6.504 -0.0208  0.0420  0.0251
 1252ERGO    R316066  13.004   9.325   6.603  0.0049  0.0306  0.0212
 1252ERGO    R416067  13.073   9.484   6.840  0.0263  0.0172  0.0227
 1252ERGO    R516068  13.142   9.282   6.794  0.0310  0.0247  0.0002
 1252ERGO    C116069  12.970   9.219   7.129  0.0780 -0.0081  0.0175
 1252ERGO    C216070  12.799   9.048   7.272 -0.1504  0.3091  0.2255
 1253ERGO   ROH16071  12.340   1.285   6.347  0.2116 -0.1202 -0.0001
 1253ERGO    R116072  12.285   1.290   6.624 -0.0097 -0.1574 -0.0421
 1253ERGO    R216073  12.388   1.482   6.794  0.0577 -0.3242  0.1066
 1253ERGO    R316074  12.127   1.520   6.858  0.0410 -0.0698 -0.0923
 1253ERGO    R416075  12.272   1.563   7.109 -0.1130 -0.4203  0.0698
 1253ERGO    R516076  12.106   1.426   7.078 -0.2513 -0.2097 -0.1730
 1253ERGO    C116077  11.960   1.645   7.353 -0.2279 -0.2376 -0.1384
 1253ERGO    C216078  11.981   1.814   7.681 -0.0495 -0.1325  0.1027
 1254ERGO   ROH16079  10.505   6.348   6.048  0.1461 -0.0657  0.1953
 1254ERGO    R116080  10.581   6.451   6.300  0.0826 -0.0691  0.2157
 1254ERGO    R216081  10.427   6.633   6.439  0.1178  0.0388  0.1112
 1254ERGO    R316082  10.447   6.449   6.639 -0.0816  0.0600  0.1535
 1254ERGO    R416083  10.298   6.673   6.757 -0.0991  0.1283  0.0141
 1254ERGO    R516084  10.479   6.581   6.837 -0.1815  0.0813  0.1580
 1254ERGO    C116085  10.242   6.524   7.130 -0.4127  0.2002 -0.0027
 1254ERGO    C216086   9.867   6.334   7.232 -0.1386  0.1369  0.1218
 1255ERGO   ROH16087   5.322  17.784   6.380  0.1222  0.2193  0.0956
 1255ERGO    R116088   5.270  17.732   6.654  0.4044  0.2334  0.1550
 1255ERGO    R216089   5.126  17.511   6.738  0.0510  0.4953  0.2756
 1255ERGO    R316090   5.347  17.467   6.891  0.1964 -0.0229 -0.0601
 1255ERGO    R416091   5.126  17.346   7.042  0.1613  0.4062  0.2280
 1255ERGO    R516092   5.269  17.492   7.116  0.5906  0.0800  0.0669
 1255ERGO    C116093   5.333  17.208   7.362  0.3622 -0.1322 -0.1149
 1255ERGO    C216094   5.322  16.936   7.610  0.1642  0.2603  0.0959
 1256ERGO   ROH16095  15.766   8.858   6.243 -0.1384  0.0001 -0.0637
 1256ERGO    R116096  15.733   8.924   6.517 -0.1763  0.0331 -0.0754
 1256ERGO    R216097  15.510   8.850   6.661 -0.0873 -0.1641 -0.0313
 1256ERGO    R316098  15.694   8.743   6.830  0.0460  0.0661 -0.0275
 1256ERGO    R416099  15.444   8.744   6.984  0.0744 -0.1096  0.0196
 1256ERGO    R516100  15.635   8.829   7.045  0.0084  0.0892 -0.0480
 1256ERGO    C116101  15.579   8.581   7.329  0.2937  0.1383  0.0529
 1256ERGO    C216102  15.323   8.472   7.643 -0.0827 -0.1577 -0.0195
 1257ERGO   ROH16103   8.027  15.769   5.867  0.0460 -0.2889 -0.0705
 1257ERGO    R116104   8.048  15.818   6.145  0.1238 -0.0478 -0.1177
 1257ERGO    R216105   8.078  15.616   6.330 -0.0759  0.0937  0.0696
 1257ERGO    R316106   8.296  15.761   6.406  0.0875 -0.0644 -0.0856
 1257ERGO    R416107   8.209  15.624   6.650  0.0010  0.1905  0.0367
 1257ERGO    R516108   8.242  15.838   6.626  0.2088  0.1471 -0.1246
 1257ERGO    C116109   8.489  15.765   6.908  0.1993  0.0984 -0.1282
 1257ERGO    C216110   8.583  15.610   7.248 -0.2278 -0.1034  0.0344
 1258ERGO   ROH16111  12.756  17.032   6.450  0.0331  0.2093 -0.2206
 1258ERGO    R116112  12.687  16.909   6.695  0.0706  0.0195 -0.3037
 1258ERGO    R216113  12.817  16.966   6.932  0.0305 -0.0774 -0.2600
 1258ERGO    R316114  12.565  17.018   7.020  0.0018 -0.2444 -0.2381
 1258ERGO    R416115  12.739  17.092   7.245 -0.0304 -0.1865 -0.2300
 1258ERGO    R516116  12.569  16.956   7.252  0.0491 -0.2901 -0.2500
 1258ERGO    C116117  12.457  17.214   7.509 -0.0928 -0.4067 -0.1920
 1258ERGO    C216118  12.172  17.428   7.539 -0.0072  0.3074 -0.2992
 1259ERGO   ROH16119   2.197   1.317   6.057  0.0035 -0.0460 -0.0557
 1259ERGO    R116120   2.016   1.259   6.266  0.2289  0.0010  0.1555
 1259ERGO    R216121   1.882   1.018   6.286 -0.2145  0.2272 -0.0048
 1259ERGO    R316122   1.991   1.015   6.535  0.1957 -0.3636 -0.1677
 1259ERGO    R416123   1.747   0.852   6.557 -0.3254  0.3743  0.0321
 1259ERGO    R516124   1.801   1.023   6.682  0.4286  0.1029  0.1388
 1259ERGO    C116125   1.770   0.752   6.949 -0.0048 -0.0946 -0.0994
 1259ERGO    C216126   1.657   0.651   7.298  0.4520  0.2686  0.2619
 1260ERGO   ROH16127   9.396   4.012   6.310 -0.2072 -0.0623 -0.0989
 1260ERGO    R116128   9.534   4.050   6.554 -0.1800 -0.0077 -0.1240
 1260ERGO    R216129   9.468   4.250   6.733 -0.2845 -0.0915 -0.0775
 1260ERGO    R316130   9.451   4.043   6.908 -0.0927 -0.1331 -0.1036
 1260ERGO    R416131   9.499   4.278   7.076 -0.2012 -0.1138 -0.0818
 1260ERGO    R516132   9.614   4.093   7.076 -0.0712 -0.0421 -0.1441
 1260ERGO    C116133   9.500   4.100   7.440  0.0273 -0.1659 -0.1088
 1260ERGO    C216134   9.398   4.223   7.662  0.3234 -0.0674  0.3980
 1261ERGO   ROH16135  16.304  10.797   6.097 -0.0311 -0.0976  0.0439
 1261ERGO    R116136  16.387  10.659   6.329  0.0373 -0.0324  0.0583
 1261ERGO    R216137  16.561  10.768   6.513  0.0040  0.0619  0.0321
 1261ERGO    R316138  16.363  10.707   6.689  0.0389  0.0075  0.0534
 1261ERGO    R416139  16.586  10.796   6.857 -0.0212  0.2291  0.0216
 1261ERGO    R516140  16.477  10.608   6.875  0.1012  0.1629  0.1004
 1261ERGO    C116141  16.415  10.755   7.222 -0.0031  0.2755  0.0355
 1261ERGO    C216142  16.520  10.906   7.528 -0.0855 -0.0892  0.1202
 1262ERGO   ROH16143  15.200  18.046   6.058  0.0634 -0.0967  0.1832
 1262ERGO    R116144  15.201  17.892   6.296  0.0386 -0.1522  0.1476
 1262ERGO    R216145  15.287  17.992   6.538  0.0323 -0.2150  0.1763
 1262ERGO    R316146  15.043  17.909   6.623  0.0214 -0.2166  0.1428
 1262ERGO    R416147  15.220  17.860   6.850 -0.0178 -0.1747  0.1826
 1262ERGO    R516148  15.088  17.715   6.756  0.0079 -0.1955  0.1785
 1262ERGO    C116149  14.952  17.705   7.111 -0.0571 -0.1530  0.1547
 1262ERGO    C216150  14.777  17.577   7.383  0.3504  0.3818  0.2053
 1263ERGO   ROH16151   0.552  15.272   5.679 -0.0529  0.3717  0.0717
 1263ERGO    R116152   0.449  15.377   5.921 -0.0678  0.2712  0.1101
 1263ERGO    R216153   0.216  15.283   6.037 -0.0520  0.1873  0.0864
 1263ERGO    R316154   0.376  15.248   6.254 -0.0365  0.1425  0.0660
 1263ERGO    R416155   0.111  15.165   6.345 -0.0238  0.1567  0.0837
 1263ERGO    R516156   0.241  15.311   6.440 -0.0048  0.1268  0.0884
 1263ERGO    C116157   0.201  15.063   6.727  0.0073  0.0969  0.0628
 1263ERGO    C216158   0.282  14.950   6.971 -0.0461 -0.4386  0.2210
 1264ERGO   ROH16159  10.975  14.932   6.116  0.2418  0.1019  0.3589
 1264ERGO    R116160  11.019  14.655   6.155  0.1856  0.0597  0.1415
 1264ERGO    R216161  11.225  14.557   6.311  0.1777 -0.1085  0.0566
 1264ERGO    R316162  11.023  14.425   6.437  0.1544 -0.1585 -0.0346
 1264ERGO    R416163  11.268  14.315   6.554  0.1198 -0.0706  0.1036
 1264ERGO    R516164  11.105  14.202   6.464  0.2050 -0.1282  0.0327
 1264ERGO    C116165  11.103  14.051   6.814  0.0642 -0.0955  0.0454
 1264ERGO    C216166  10.887  13.881   7.086 -0.2729 -0.1839  0.0119
 1265ERGO   ROH16167   3.420   2.973   6.376  0.1012 -0.1026  0.0790
 1265ERGO    R116168   3.352   2.838   6.616 -0.0972 -0.0343  0.0636
 1265ERGO    R216169   3.505   2.856   6.845 -0.0634 -0.2913  0.0672
 1265ERGO    R316170   3.270   2.933   6.958  0.0472  0.0485  0.0751
 1265ERGO    R416171   3.425   2.819   7.179 -0.1649 -0.3140  0.0399
 1265ERGO    R516172   3.223   2.762   7.119 -0.2558  0.0487 -0.0100
 1265ERGO    C116173   3.157   2.870   7.480 -0.1203 -0.0083  0.0314
 1265ERGO    C216174   3.139   2.777   7.927 -0.1294 -0.2515 -0.1316
 1266ERGO   ROH16175  18.175  15.494   6.054  0.2561  0.0866 -0.0830
 1266ERGO    R116176  18.244  15.640   6.287  0.1217  0.0378 -0.0118
 1266ERGO    R216177  18.176  15.554   6.541  0.0742 -0.0745 -0.0599
 1266ERGO    R316178  18.443  15.582   6.586  0.0489  0.0192  0.0328
 1266ERGO    R416179  18.324  15.548   6.853 -0.0189 -0.1151 -0.0164
 1266ERGO    R516180  18.455  15.711   6.788 -0.0648 -0.0419  0.0780
 1266ERGO    C116181  18.661  15.571   7.078 -0.0968 -0.0508  0.0960
 1266ERGO    C216182  18.716  15.465   7.429  0.0971  0.0398  0.1941
 1267ERGO   ROH16183  14.077   0.774   6.027  0.0740  0.0688  0.0735
 1267ERGO    R116184  14.023   0.607   6.249 -0.1156  0.0500  0.0156
 1267ERGO    R216185  14.150   0.638   6.493  0.0080 -0.2493 -0.0046
 1267ERGO    R316186  13.895   0.650   6.587  0.0484  0.1003  0.0718
 1267ERGO    R416187  14.056   0.572   6.819  0.0192 -0.0637  0.0366
 1267ERGO    R516188  13.881   0.468   6.743 -0.1409  0.1482  0.1111
 1267ERGO    C116189  13.763   0.545   7.097  0.0635  0.3726  0.1325
 1267ERGO    C216190  13.869   0.461   7.399 -0.0166  0.0370 -0.1882
 1268ERGO   ROH16191   3.461  16.546   6.322 -0.0765 -0.0170  0.0269
 1268ERGO    R116192   3.376  16.309   6.451 -0.1193 -0.0336 -0.0307
 1268ERGO    R216193   3.464  16.237   6.703 -0.0599 -0.1571 -0.0851
 1268ERGO    R316194   3.198  16.223   6.757 -0.0475 -0.0786 -0.0016
 1268ERGO    R416195   3.328  16.096   6.987 -0.0141 -0.0886 -0.0286
 1268ERGO    R516196   3.170  16.010   6.863 -0.0751 -0.0584  0.0295
 1268ERGO    C116197   2.999  16.000   7.203  0.0243  0.0251  0.0826
 1268ERGO    C216198   3.121  15.866   7.528  0.1523 -0.1473 -0.1093
 1269ERGO   ROH16199   9.171   9.323   8.538 -0.0084 -0.0063 -0.3682
 1269ERGO    R116200   9.192   9.596   8.469 -0.0073  0.0526 -0.1420
 1269ERGO    R216201   9.379   9.765   8.583  0.0622 -0.0680 -0.0760
 1269ERGO    R316202   9.446   9.814   8.325 -0.0448  0.1467 -0.0661
 1269ERGO    R416203   9.542  10.049   8.473  0.1804 -0.0593  0.1134
 1269ERGO    R516204   9.411  10.049   8.298  0.0882  0.1963  0.1824
 1269ERGO    C116205   9.700  10.260   8.165  0.1487  0.1473  0.2331
 1269ERGO    C216206   9.836  10.562   8.000 -0.0323  0.1425  0.0123
 1270ERGO   ROH16207  10.093   3.313   6.333  0.1549 -0.1171  0.0758
 1270ERGO    R116208  10.139   3.199   6.587  0.0707 -0.2022  0.0538
 1270ERGO    R216209  10.147   3.349   6.819  0.2491 -0.2417  0.0755
 1270ERGO    R316210   9.959   3.172   6.902  0.0786 -0.0667  0.0707
 1270ERGO    R416211  10.006   3.345   7.134  0.3772 -0.2232  0.1334
 1270ERGO    R516212  10.017   3.127   7.131  0.1265 -0.2376  0.0272
 1270ERGO    C116213   9.747   3.176   7.396  0.2918 -0.0482  0.1627
 1270ERGO    C216214   9.728   3.178   7.808  0.0329  0.1940  0.1926
 1271ERGO   ROH16215  13.389  10.608   6.142 -0.1366 -0.3052 -0.0473
 1271ERGO    R116216  13.350  10.457   6.378 -0.0620 -0.2509  0.0005
 1271ERGO    R216217  13.542  10.440   6.578 -0.0681 -0.0599  0.0281
 1271ERGO    R316218  13.338  10.525   6.736 -0.1398 -0.1359 -0.0243
 1271ERGO    R416219  13.479  10.327   6.898  0.1022  0.1760  0.1466
 1271ERGO    R516220  13.267  10.328   6.852  0.0943 -0.1044  0.1740
 1271ERGO    C116221  13.251  10.341   7.233  0.1340  0.2420  0.1665
 1271ERGO    C216222  13.322  10.565   7.599  0.1130  0.1393  0.2517
 1272ERGO   ROH16223  16.590   8.481   6.240  0.1223  0.1454 -0.1034
 1272ERGO    R116224  16.719   8.446   6.489  0.0787  0.2137 -0.0714
 1272ERGO    R216225  16.702   8.633   6.693 -0.1950  0.1369 -0.0220
 1272ERGO    R316226  16.617   8.419   6.838 -0.0081 -0.0018 -0.1109
 1272ERGO    R416227  16.656   8.632   7.035 -0.3130 -0.0012 -0.0371
 1272ERGO    R516228  16.742   8.432   7.041 -0.0880  0.0871 -0.0634
 1272ERGO    C116229  16.549   8.431   7.371 -0.2061 -0.2118 -0.1292
 1272ERGO    C216230  16.457   8.337   7.658  0.2947  0.3440 -0.0437
 1273ERGO   ROH16231   7.525  18.186   6.576 -0.0206 -0.2574  0.0034
 1273ERGO    R116232   7.605  18.225   6.845 -0.0282 -0.0521 -0.0226
 1273ERGO    R216233   7.528  18.446   6.993 -0.1254  0.0062 -0.1575
 1273ERGO    R316234   7.439  18.257   7.168 -0.0314  0.0731 -0.0365
 1273ERGO    R416235   7.480  18.498   7.331 -0.3337  0.2532 -0.2219
 1273ERGO    R516236   7.564  18.300   7.368 -0.1648  0.3617 -0.0113
 1273ERGO    C116237   7.369  18.352   7.692 -0.3668  0.4601 -0.1457
 1273ERGO    C216238   7.327  18.396   8.053 -0.0031  0.1118  0.2963
 1274ERGO   ROH16239  17.859  17.927   6.922  0.2266  0.1827  0.1487
 1274ERGO    R116240  17.650  18.026   7.084  0.1481  0.0827  0.1113
 1274ERGO    R216241  17.691  18.116   7.342  0.0654  0.1400  0.1103
 1274ERGO    R316242  17.569  18.340   7.249 -0.0491  0.0575  0.0618
 1274ERGO    R416243  17.603  18.388   7.536  0.1213  0.2320  0.0062
 1274ERGO    R516244  17.417  18.402   7.423  0.0491  0.1221  0.1196
 1274ERGO    C116245  17.438  18.757   7.562  0.0463  0.2080 -0.0998
 1274ERGO    C216246  17.326  19.160   7.740  0.0232  0.2179 -0.3051
 1275ERGO   ROH16247   2.662   3.569   6.012  0.0259 -0.0883 -0.0905
 1275ERGO    R116248   2.535   3.562   6.265 -0.0446 -0.0888 -0.1264
 1275ERGO    R216249   2.556   3.346   6.436  0.0608 -0.0119 -0.0452
 1275ERGO    R316250   2.640   3.535   6.613 -0.1292  0.1116 -0.0828
 1275ERGO    R416251   2.520   3.325   6.779  0.0817  0.0155 -0.0408
 1275ERGO    R516252   2.470   3.537   6.782 -0.1359 -0.0294 -0.0830
 1275ERGO    C116253   2.578   3.490   7.145 -0.0844  0.1474 -0.0735
 1275ERGO    C216254   2.413   3.400   7.510 -0.1604 -0.1790 -0.0166
 1276ERGO   ROH16255   5.133   8.858   6.026  0.0790 -0.1477 -0.2022
 1276ERGO    R116256   5.028   8.752   6.266  0.0023  0.0577 -0.1427
 1276ERGO    R216257   5.146   8.541   6.401 -0.1991 -0.0202 -0.0791
 1276ERGO    R316258   5.140   8.715   6.610  0.0192  0.0731 -0.1473
 1276ERGO    R416259   5.232   8.462   6.726 -0.1594  0.0457 -0.0735
 1276ERGO    R516260   5.065   8.582   6.795 -0.0322  0.2171 -0.0663
 1276ERGO    C116261   5.277   8.578   7.112  0.0685  0.1716 -0.1342
 1276ERGO    C216262   5.543   8.441   7.442  0.0107 -0.2562  0.0051
 1277ERGO   ROH16263   9.498  10.511   5.935  0.1162 -0.1474 -0.0636
 1277ERGO    R116264   9.609  10.736   6.066  0.0454 -0.0526 -0.1643
 1277ERGO    R216265   9.453  10.924   6.196 -0.0090 -0.0877 -0.1785
 1277ERGO    R316266   9.616  10.866   6.406  0.0793  0.0555 -0.2062
 1277ERGO    R416267   9.413  11.046   6.517  0.1020  0.0959 -0.2329
 1277ERGO    R516268   9.629  11.071   6.529  0.1036  0.1295 -0.3310
 1277ERGO    C116269   9.543  11.063   6.901  0.2495  0.3373 -0.2906
 1277ERGO    C216270   9.339  11.114   7.233 -0.0438 -0.2436  0.0381
 1278ERGO   ROH16271   1.654   9.274   6.037 -0.2789  0.1425 -0.0704
 1278ERGO    R116272   1.606   9.277   6.316 -0.0612 -0.0504 -0.0272
 1278ERGO    R216273   1.794   9.191   6.500  0.1939  0.0783 -0.2156
 1278ERGO    R316274   1.754   9.437   6.608 -0.0143 -0.0161 -0.0704
 1278ERGO    R416275   1.906   9.291   6.811  0.2575  0.0477 -0.2290
 1278ERGO    R516276   1.717   9.395   6.841  0.1602 -0.1713 -0.0705
 1278ERGO    C116277   1.934   9.581   7.093  0.0991 -0.0588 -0.1005
 1278ERGO    C216278   1.927   9.628   7.402  0.0644  0.1940 -0.2218
 1279ERGO   ROH16279  13.561   3.143   5.841 -0.0620  0.1171  0.0503
 1279ERGO    R116280  13.577   3.015   6.094 -0.1059  0.0347  0.0125
 1279ERGO    R216281  13.810   3.009   6.243 -0.0994 -0.1109  0.0027
 1279ERGO    R316282  13.650   3.115   6.436 -0.0465 -0.0969  0.0379
 1279ERGO    R416283  13.896   3.038   6.576 -0.0317 -0.1290 -0.0135
 1279ERGO    R516284  13.693   2.979   6.629 -0.0258 -0.1046  0.0255
 1279ERGO    C116285  13.796   3.154   6.952  0.0573 -0.1264  0.0100
 1279ERGO    C216286  13.779   3.103   7.212  0.1007  0.2007  0.1479
 1280ERGO   ROH16287   5.531  12.285   5.758 -0.0769 -0.0180 -0.1175
 1280ERGO    R116288   5.580  12.386   6.018  0.0882 -0.0734 -0.1254
 1280ERGO    R216289   5.380  12.417   6.207  0.1615  0.1288 -0.0760
 1280ERGO    R316290   5.545  12.265   6.360  0.0430 -0.0463 -0.1212
 1280ERGO    R416291   5.366  12.395   6.551  0.1857  0.0841 -0.0781
 1280ERGO    R516292   5.583  12.397   6.555  0.1876 -0.1141 -0.1040
 1280ERGO    C116293   5.512  12.240   6.895  0.0886 -0.1063 -0.1218
 1280ERGO    C216294   5.705  12.174   7.156  0.2144  0.0862  0.1498
 1281ERGO   ROH16295  12.529  10.578   5.880  0.0402  0.1811  0.0571
 1281ERGO    R116296  12.415  10.564   6.138  0.0661  0.0577  0.0621
 1281ERGO    R216297  12.257  10.352   6.221  0.1159 -0.0042 -0.0073
 1281ERGO    R316298  12.436  10.341   6.425  0.1348 -0.0500 -0.0255
 1281ERGO    R416299  12.211  10.179   6.516  0.2030 -0.1951 -0.1033
 1281ERGO    R516300  12.302  10.345   6.623  0.1441 -0.2177 -0.0128
 1281ERGO    C116301  12.351  10.068   6.880  0.2717 -0.3494 -0.1761
 1281ERGO    C216302  12.362   9.872   7.203  0.0331 -0.0563  0.1692
 1282ERGO   ROH16303   6.443   1.053   6.419 -0.2506  0.2048 -0.2248
 1282ERGO    R116304   6.514   1.039   6.693 -0.0098  0.1389 -0.2870
 1282ERGO    R216305   6.478   1.250   6.867  0.0321  0.0614 -0.1731
 1282ERGO    R316306   6.342   1.065   7.012  0.2451 -0.0625 -0.1317
 1282ERGO    R416307   6.381   1.291   7.196  0.0372 -0.0102 -0.1639
 1282ERGO    R516308   6.436   1.082   7.232  0.2560  0.0540 -0.1501
 1282ERGO    C116309   6.198   1.140   7.525  0.2402 -0.1683 -0.1197
 1282ERGO    C216310   6.278   1.300   7.874  0.1019 -0.1026 -0.1951
 1283ERGO   ROH16311  11.417  13.852   9.351 -0.0318 -0.1526  0.0106
 1283ERGO    R116312  11.269  13.735   9.140 -0.1705 -0.0245  0.0360
 1283ERGO    R216313  11.118  13.884   8.963  0.0812  0.1248 -0.0512
 1283ERGO    R316314  11.266  13.752   8.777 -0.0809 -0.1765  0.0257
 1283ERGO    R416315  11.027  13.844   8.632  0.0742  0.1482 -0.0524
 1283ERGO    R516316  11.103  13.640   8.642 -0.2400  0.0232  0.0391
 1283ERGO    C116317  11.112  13.697   8.265 -0.0819 -0.1211  0.0191
 1283ERGO    C216318  11.090  13.769   7.958 -0.0741  0.0842  0.0988
 1284ERGO   ROH16319  12.658   3.256   6.008  0.2249 -0.0584 -0.0851
 1284ERGO    R116320  12.592   3.300   6.280  0.2661  0.0957 -0.0998
 1284ERGO    R216321  12.470   3.108   6.436  0.0561  0.2731 -0.0436
 1284ERGO    R316322  12.682   3.154   6.601  0.1032  0.0966 -0.0526
 1284ERGO    R416323  12.464   3.072   6.780  0.1023  0.0788 -0.0614
 1284ERGO    R516324  12.585   3.253   6.796  0.1758  0.0238  0.0221
 1284ERGO    C116325  12.659   3.094   7.134  0.1734 -0.1999 -0.0803
 1284ERGO    C216326  12.768   3.269   7.482 -0.0453  0.1273 -0.2080
 1285ERGO   ROH16327  14.170  12.866   5.874  0.0081 -0.0785  0.0112
 1285ERGO    R116328  14.171  12.866   6.157  0.0184 -0.0909  0.0088
 1285ERGO    R216329  14.076  13.078   6.306  0.0051 -0.1151  0.0140
 1285ERGO    R316330  13.922  12.886   6.422  0.0292 -0.1307  0.0264
 1285ERGO    R416331  13.949  13.094   6.627 -0.3323  0.0964 -0.1225
 1285ERGO    R516332  13.994  12.882   6.650 -0.1899  0.1374  0.1148
 1285ERGO    C116333  13.731  12.924   6.923 -0.5060  0.2049 -0.1901
 1285ERGO    C216334  13.678  12.829   7.109  0.1696 -0.0008 -0.2158
 1286ERGO   ROH16335   1.879  17.737   5.909 -0.0778  0.1580 -0.0149
 1286ERGO    R116336   1.947  17.841   6.164 -0.1238  0.1545 -0.0011
 1286ERGO    R216337   1.799  18.038   6.288 -0.2632  0.0091  0.0648
 1286ERGO    R316338   1.792  17.858   6.492 -0.0916 -0.0437  0.0264
 1286ERGO    R416339   1.690  18.108   6.608 -0.1132 -0.1027  0.1414
 1286ERGO    R516340   1.854  17.986   6.685 -0.0285 -0.0678  0.0236
 1286ERGO    C116341   1.620  17.980   6.987  0.1352 -0.2171  0.1501
 1286ERGO    C216342   1.349  18.016   7.282 -0.1491 -0.1272  0.1646
 1287ERGO   ROH16343  14.357   3.506   7.292  0.0753  0.0076  0.0214
 1287ERGO    R116344  14.562   3.701   7.314  0.0349  0.0341  0.2004
 1287ERGO    R216345  14.686   3.760   7.552  0.0144 -0.1458  0.2636
 1287ERGO    R316346  14.913   3.707   7.411  0.0273  0.0186  0.2234
 1287ERGO    R416347  15.003   3.863   7.644 -0.0264 -0.0195  0.2604
 1287ERGO    R516348  15.043   3.907   7.433 -0.0702  0.0726  0.2762
 1287ERGO    C116349  15.400   3.874   7.564 -0.0380  0.2084  0.2208
 1287ERGO    C216350  15.684   4.008   7.497  0.0172  0.0699  0.0611
 1288ERGO   ROH16351   8.120   3.975   6.257  0.1927  0.2702  0.0711
 1288ERGO    R116352   8.102   3.992   6.539  0.0013  0.2644  0.0620
 1288ERGO    R216353   7.862   4.028   6.670 -0.1147  0.1048 -0.0866
 1288ERGO    R316354   7.940   3.804   6.805 -0.0441  0.1573 -0.0429
 1288ERGO    R416355   7.745   3.934   6.982  0.1512  0.2810  0.0684
 1288ERGO    R516356   7.948   3.873   7.034  0.1800  0.2648 -0.0856
 1288ERGO    C116357   7.750   3.671   7.289  0.3722  0.4329  0.1997
 1288ERGO    C216358   7.513   3.783   7.529  0.0158  0.0417 -0.1644
 1289ERGO   ROH16359  11.235   1.049   6.237  0.1050  0.1837 -0.1289
 1289ERGO    R116360  11.459   1.175   6.356  0.0703  0.1207  0.0071
 1289ERGO    R216361  11.481   1.215   6.629  0.0332 -0.1141  0.0484
 1289ERGO    R316362  11.717   1.084   6.596  0.0584 -0.0460 -0.0427
 1289ERGO    R416363  11.715   1.164   6.878  0.1589 -0.0225 -0.0503
 1289ERGO    R516364  11.872   1.205   6.732  0.0824  0.0113 -0.1219
 1289ERGO    C116365  12.073   1.011   6.992  0.2557  0.0946 -0.1932
 1289ERGO    C216366  12.339   0.969   7.065  0.0063  0.1823 -0.0411
 1290ERGO   ROH16367  10.347   0.845   6.316  0.0678 -0.0258 -0.0725
 1290ERGO    R116368  10.324   0.752   6.582 -0.0494 -0.0724 -0.0988
 1290ERGO    R216369  10.427   0.890   6.798 -0.1099 -0.1303 -0.0336
 1290ERGO    R316370  10.172   0.870   6.891 -0.1488 -0.1071 -0.1332
 1290ERGO    R416371  10.338   0.901   7.131 -0.2359 -0.1304 -0.0667
 1290ERGO    R516372  10.193   0.742   7.093 -0.2382 -0.1158 -0.1278
 1290ERGO    C116373  10.047   0.888   7.414 -0.3460 -0.1087 -0.1795
 1290ERGO    C216374   9.952   1.081   7.666 -0.1750 -0.0659 -0.1306
 1291ERGO   ROH16375  12.428  13.601   5.581  0.1136  0.2358  0.0617
 1291ERGO    R116376  12.344  13.694   5.835  0.0139  0.1858  0.0474
 1291ERGO    R216377  12.123  13.591   5.965 -0.1043  0.2373 -0.1096
 1291ERGO    R316378  12.300  13.552   6.167 -0.2319  0.0903 -0.0240
 1291ERGO    R416379  12.059  13.407   6.250 -0.1730 -0.2581 -0.4330
 1291ERGO    R516380  12.166  13.557   6.366 -0.3993 -0.3321 -0.1148
 1291ERGO    C116381  12.188  13.262   6.606 -0.3328 -0.6846 -0.5410
 1291ERGO    C216382  12.161  12.948   6.655 -0.1406  0.3478 -0.1388
 1292ERGO   ROH16383  10.837  13.061   5.540 -0.0954 -0.1448 -0.2179
 1292ERGO    R116384  10.865  13.144   5.809  0.1109 -0.1667 -0.2279
 1292ERGO    R216385  10.647  13.204   5.969  0.2377  0.2797 -0.1908
 1292ERGO    R316386  10.761  13.021   6.135 -0.0865  0.0618 -0.2047
 1292ERGO    R416387  10.592  13.186   6.310  0.3524  0.4689 -0.1627
 1292ERGO    R516388  10.804  13.143   6.337  0.2729  0.0087 -0.2501
 1292ERGO    C116389  10.665  13.004   6.664  0.1150  0.3747 -0.1593
 1292ERGO    C216390  10.516  13.094   6.981  0.2531 -0.0523  0.0909
 1293ERGO   ROH16391  11.052   7.531   5.724  0.2334 -0.0268 -0.0934
 1293ERGO    R116392  11.179   7.497   5.975 -0.0042  0.1010  0.0493
 1293ERGO    R216393  11.407   7.636   6.047  0.1064 -0.0771  0.0744
 1293ERGO    R316394  11.257   7.706   6.263  0.0028  0.3356 -0.1222
 1293ERGO    R416395  11.531   7.785   6.334  0.0937 -0.2098  0.1485
 1293ERGO    R516396  11.398   7.658   6.451 -0.3095  0.1198  0.0600
 1293ERGO    C116397  11.462   7.937   6.703 -0.0107  0.1002  0.0071
 1293ERGO    C216398  11.210   8.144   6.867 -0.1106  0.1665  0.0876
 1294ERGO   ROH16399  10.815  11.940   5.609 -0.2064 -0.1995 -0.0754
 1294ERGO    R116400  10.670  12.049   5.826 -0.1314 -0.0469 -0.0995
 1294ERGO    R216401  10.531  11.891   6.006 -0.2271  0.0891 -0.0493
 1294ERGO    R316402  10.681  12.025   6.189 -0.1337  0.0450 -0.0936
 1294ERGO    R416403  10.439  11.946   6.335 -0.0544  0.0045  0.0136
 1294ERGO    R516404  10.521  12.147   6.319 -0.0669  0.0089  0.0219
 1294ERGO    C116405  10.527  12.104   6.698  0.1340 -0.0862  0.0087
 1294ERGO    C216406  10.409  12.180   6.978 -0.1654  0.1544  0.0141
 1295ERGO   ROH16407  14.372   9.539   6.407  0.2247 -0.0854 -0.0420
 1295ERGO    R116408  14.296   9.754   6.575 -0.1169 -0.0484 -0.2339
 1295ERGO    R216409  14.034   9.796   6.652 -0.1658 -0.5392 -0.0796
 1295ERGO    R316410  14.141   9.792   6.902  0.0596 -0.0179 -0.1541
 1295ERGO    R416411  13.868   9.896   6.938 -0.1060 -0.4763 -0.0677
 1295ERGO    R516412  14.054   9.989   7.007 -0.2156 -0.0393 -0.3394
 1295ERGO    C116413  13.872   9.949   7.340  0.1404  0.0498 -0.1307
 1295ERGO    C216414  13.622  10.037   7.652 -0.0020 -0.2457  0.0404
 1296ERGO   ROH16415  10.355   8.630   7.589  0.0915  0.1619  0.1931
 1296ERGO    R116416  10.363   8.355   7.523 -0.1585  0.1161  0.3354
 1296ERGO    R216417  10.590   8.232   7.426 -0.3855 -0.0453 -0.0339
 1296ERGO    R316418  10.548   8.062   7.634 -0.0710  0.1060  0.1589
 1296ERGO    R416419  10.779   7.950   7.494 -0.1187  0.1550  0.0660
 1296ERGO    R516420  10.596   7.845   7.545  0.0112  0.0619  0.3224
 1296ERGO    C116421  10.849   7.627   7.729  0.3320  0.4137  0.3052
 1296ERGO    C216422  11.253   7.430   7.799 -0.2076 -0.0035 -0.0159
 1297ERGO   ROH16423   6.992  13.481   5.997 -0.0707  0.1663  0.0706
 1297ERGO    R116424   7.184  13.545   6.195  0.0018  0.0916  0.0243
 1297ERGO    R216425   7.117  13.587   6.460  0.0979  0.0014  0.0614
 1297ERGO    R316426   7.305  13.396   6.504  0.1096 -0.0189 -0.0694
 1297ERGO    R416427   7.323  13.572   6.737  0.2888 -0.0185 -0.0792
 1297ERGO    R516428   7.487  13.513   6.606  0.1939 -0.0359 -0.1947
 1297ERGO    C116429   7.620  13.384   6.940  0.4109 -0.0491 -0.2840
 1297ERGO    C216430   7.652  13.249   7.237 -0.0030 -0.0867  0.1458
 1298ERGO   ROH16431   0.562  14.253   6.066 -0.1958 -0.3879 -0.0755
 1298ERGO    R116432   0.615  14.234   6.344 -0.2158 -0.2584 -0.0617
 1298ERGO    R216433   0.416  14.185   6.530 -0.2200 -0.2444 -0.0593
 1298ERGO    R316434   0.579  13.980   6.602 -0.1623 -0.1650  0.0370
 1298ERGO    R416435   0.402  14.018   6.832 -0.2492 -0.1918 -0.0317
 1298ERGO    R516436   0.619  14.015   6.835 -0.2518 -0.1048  0.0415
 1298ERGO    C116437   0.546  13.728   7.076 -0.2120 -0.0868  0.0747
 1298ERGO    C216438   0.332  13.597   7.300 -0.0785  0.0888 -0.4187
 1299ERGO   ROH16439   8.133  13.225   5.932  0.1862  0.0283  0.0689
 1299ERGO    R116440   8.266  13.097   6.146  0.1190 -0.0452  0.0674
 1299ERGO    R216441   8.488  13.206   6.271  0.0545 -0.0652  0.2056
 1299ERGO    R316442   8.338  13.171   6.495 -0.0335 -0.1847  0.1291
 1299ERGO    R416443   8.611  13.210   6.594 -0.1349  0.1577  0.2777
 1299ERGO    R516444   8.478  13.044   6.641  0.0315  0.0146  0.2406
 1299ERGO    C116445   8.542  13.180   6.992 -0.3281  0.1753  0.2479
 1299ERGO    C216446   8.527  13.385   7.305  0.0865 -0.1105  0.1792
 1300ERGO   ROH16447  15.777  19.004   5.792 -0.3005  0.2568 -0.2886
 1300ERGO    R116448  15.576  19.074   5.977 -0.1906  0.1796 -0.1384
 1300ERGO    R216449  15.454  18.889   6.142 -0.1505  0.0972 -0.2040
 1300ERGO    R316450  15.532  19.060   6.339 -0.0132 -0.0546 -0.1230
 1300ERGO    R416451  15.366  18.861   6.475 -0.2337  0.0477 -0.2296
 1300ERGO    R516452  15.341  19.077   6.482 -0.0235  0.0743 -0.1485
 1300ERGO    C116453  15.388  19.005   6.853 -0.1533 -0.1235 -0.1686
 1300ERGO    C216454  15.543  18.990   7.143  0.3833  0.2901 -0.0526
 1301ERGO   ROH16455   8.945  14.736   6.285 -0.0192 -0.0517  0.0419
 1301ERGO    R116456   8.984  14.871   6.531 -0.0772 -0.1437  0.1019
 1301ERGO    R216457   8.887  14.773   6.770 -0.0156 -0.3033  0.0620
 1301ERGO    R316458   9.146  14.800   6.849 -0.0255 -0.2048  0.0624
 1301ERGO    R416459   9.000  14.736   7.095 -0.0121 -0.2049  0.0724
 1301ERGO    R516460   9.132  14.907   7.063 -0.0654 -0.1674  0.0422
 1301ERGO    C116461   9.308  14.740   7.358 -0.0193 -0.0554  0.0789
 1301ERGO    C216462   9.307  14.498   7.546 -0.0376 -0.1826 -0.1045
 1302ERGO   ROH16463  13.532  11.349   5.829  0.3470  0.0719  0.0820
 1302ERGO    R116464  13.415  11.199   6.038  0.1928  0.2006  0.0907
 1302ERGO    R216465  13.550  10.999   6.171 -0.0680 -0.0644 -0.0238
 1302ERGO    R316466  13.480  11.142   6.392  0.2613 -0.0036  0.0457
 1302ERGO    R416467  13.544  10.874   6.494 -0.2553 -0.1786 -0.0703
 1302ERGO    R516468  13.360  10.986   6.528 -0.0292  0.1825  0.0073
 1302ERGO    C116469  13.475  10.937   6.888 -0.0552 -0.1879 -0.0321
 1302ERGO    C216470  13.419  10.792   7.185 -0.1534 -0.0188 -0.0842
 1303ERGO   ROH16471   2.098   2.457   6.389  0.0323  0.0036 -0.0531
 1303ERGO    R116472   1.938   2.380   6.609  0.0551  0.1526  0.0158
 1303ERGO    R216473   1.966   2.137   6.737 -0.1025  0.1353  0.0120
 1303ERGO    R316474   1.991   2.293   6.959  0.1203  0.1222 -0.0005
 1303ERGO    R416475   1.930   2.025   7.062 -0.2197  0.1960  0.0211
 1303ERGO    R516476   1.823   2.209   7.108  0.0198  0.3440  0.0198
 1303ERGO    C116477   1.932   2.105   7.459 -0.0789  0.2189  0.0147
 1303ERGO    C216478   1.969   1.945   7.741  0.0083 -0.0475  0.0363
 1304ERGO   ROH16479  10.289   4.355   6.098  0.1238  0.1772 -0.0128
 1304ERGO    R116480  10.274   4.454   6.363 -0.0788  0.1649 -0.0186
 1304ERGO    R216481  10.474   4.413   6.549 -0.2226  0.1507  0.1353
 1304ERGO    R316482  10.465   4.683   6.571 -0.2327  0.1503  0.1408
 1304ERGO    R416483  10.612   4.595   6.809 -0.1506  0.1611  0.0907
 1304ERGO    R516484  10.436   4.723   6.805 -0.1588  0.1489  0.1494
 1304ERGO    C116485  10.683   4.955   6.980 -0.1181  0.1668  0.0700
 1304ERGO    C216486  10.722   5.177   7.171  0.3497 -0.2473  0.0521
 1305ERGO   ROH16487   8.205   4.410   6.416 -0.2458 -0.1254  0.0948
 1305ERGO    R116488   8.167   4.460   6.692 -0.2697  0.0308  0.0640
 1305ERGO    R216489   7.923   4.423   6.817 -0.2311 -0.0899  0.1038
 1305ERGO    R316490   8.070   4.267   6.985 -0.0872  0.1467  0.2034
 1305ERGO    R416491   7.849   4.367   7.150 -0.1800  0.0534  0.1399
 1305ERGO    R516492   8.062   4.382   7.195 -0.1905  0.2748  0.1317
 1305ERGO    C116493   7.944   4.188   7.501 -0.0152  0.3590  0.2544
 1305ERGO    C216494   7.973   3.908   7.680 -0.1935 -0.0145 -0.0152
 1306ERGO   ROH16495  11.211  12.852   5.793  0.3319 -0.1321  0.0596
 1306ERGO    R116496  11.302  12.874   6.061  0.0927  0.0865  0.1273
 1306ERGO    R216497  11.220  13.077   6.229 -0.2296  0.1051 -0.0402
 1306ERGO    R316498  11.151  12.870   6.392 -0.1811  0.1248  0.0052
 1306ERGO    R416499  11.137  13.107   6.564 -0.3757  0.1730 -0.0816
 1306ERGO    R516500  11.250  12.925   6.603 -0.2937  0.2487  0.0250
 1306ERGO    C116501  11.025  12.930   6.911 -0.4152  0.2314 -0.0631
 1306ERGO    C216502  11.029  12.931   7.286  0.0792  0.1351 -0.2716
 1307ERGO   ROH16503  13.666   5.716   5.805 -0.0653  0.1482  0.0254
 1307ERGO    R116504  13.596   5.736   6.079 -0.0309  0.0877  0.0387
 1307ERGO    R216505  13.369   5.615   6.183 -0.0121  0.0579  0.0420
 1307ERGO    R316506  13.548   5.505   6.356  0.0127  0.0277 -0.0027
 1307ERGO    R416507  13.287   5.449   6.475  0.0297  0.1106  0.0841
 1307ERGO    R516508  13.455   5.546   6.572  0.0883  0.0766  0.0227
 1307ERGO    C116509  13.407   5.248   6.806  0.0772  0.1128  0.0666
 1307ERGO    C216510  13.232   5.111   6.987  0.0047  0.1360 -0.0336
 1308ERGO   ROH16511  11.652   3.742   6.333 -0.0678  0.0666 -0.1250
 1308ERGO    R116512  11.758   3.668   6.585  0.0685  0.2430 -0.1299
 1308ERGO    R216513  11.847   3.853   6.770 -0.4146  0.4089 -0.0596
 1308ERGO    R316514  11.674   3.723   6.935 -0.1387 -0.0688 -0.1240
 1308ERGO    R416515  11.919   3.755   7.093 -0.2123  0.4810 -0.0804
 1308ERGO    R516516  11.812   3.569   7.055  0.2335  0.2162 -0.1556
 1308ERGO    C116517  11.798   3.577   7.437  0.1645  0.0747 -0.1530
 1308ERGO    C216518  11.906   3.274   7.599  0.0375  0.0071  0.0010
 1309ERGO   ROH16519  14.406   9.221   6.074  0.1547  0.1774 -0.0490
 1309ERGO    R116520  14.383   9.090   6.324  0.0934  0.0591 -0.1134
 1309ERGO    R216521  14.496   8.842   6.374  0.0826  0.0223 -0.1989
 1309ERGO    R316522  14.610   8.972   6.583  0.0357 -0.0629 -0.1231
 1309ERGO    R416523  14.558   8.702   6.683 -0.2909  0.0216 -0.1205
 1309ERGO    R516524  14.495   8.889   6.775 -0.1859  0.0813 -0.2029
 1309ERGO    C116525  14.702   8.743   7.060 -0.5526 -0.0586 -0.0037
 1309ERGO    C216526  14.775   8.622   7.371  0.1780  0.0251 -0.1731
 1310ERGO   ROH16527  10.929   2.571   6.174  0.1846 -0.2900  0.0208
 1310ERGO    R116528  10.955   2.480   6.441  0.0611 -0.1680  0.0762
 1310ERGO    R216529  10.992   2.651   6.654  0.0830 -0.0773  0.0020
 1310ERGO    R316530  10.774   2.524   6.754 -0.0102  0.0812  0.0023
 1310ERGO    R416531  10.920   2.617   6.991  0.2045 -0.2556  0.0111
 1310ERGO    R516532  10.854   2.413   6.951 -0.0349 -0.1579 -0.1179
 1310ERGO    C116533  10.672   2.478   7.280  0.1878 -0.2107  0.0168
 1310ERGO    C216534  10.486   2.642   7.448  0.0330 -0.0854 -0.2337
 1311ERGO   ROH16535  16.220  11.272   6.191 -0.0762 -0.0079  0.0397
 1311ERGO    R116536  16.187  11.159   6.448 -0.1390  0.0731  0.0672
 1311ERGO    R216537  16.387  11.163   6.639 -0.0782 -0.1343  0.0055
 1311ERGO    R316538  16.193  11.277   6.792  0.1017  0.1233  0.0487
 1311ERGO    R416539  16.388  11.172   6.984 -0.1372 -0.4336  0.0170
 1311ERGO    R516540  16.174  11.132   6.982 -0.2295 -0.0113 -0.0764
 1311ERGO    C116541  16.208  11.285   7.329 -0.0029 -0.3661  0.0641
 1311ERGO    C216542  16.213  11.314   7.655  0.0885  0.2443  0.2118
 1312ERGO   ROH16543  12.707  12.392   7.808 -0.1014  0.1905 -0.1538
 1312ERGO    R116544  12.463  12.265   7.871 -0.0944  0.1426 -0.2261
 1312ERGO    R216545  12.416  12.147   8.117 -0.1051  0.0460 -0.2792
 1312ERGO    R316546  12.197  12.309   8.117 -0.1248  0.0211 -0.2349
 1312ERGO    R416547  12.119  12.078   8.281  0.0642  0.1755  0.0937
 1312ERGO    R516548  12.012  12.158   8.108 -0.1186 -0.0181  0.1091
 1312ERGO    C116549  11.742  12.191   8.376  0.1443  0.2277  0.3525
 1312ERGO    C216550  11.587  12.333   8.558  0.2836  0.1348  0.0938
 1313ERGO   ROH16551  11.256  10.712   6.059  0.0797 -0.0390  0.1157
 1313ERGO    R116552  11.389  10.737   6.308  0.0065  0.0431  0.1478
 1313ERGO    R216553  11.580  10.932   6.355  0.1024 -0.0333  0.0908
 1313ERGO    R316554  11.420  10.991   6.567  0.0586  0.1930 -0.0039
 1313ERGO    R416555  11.657  11.159   6.604  0.2993 -0.1736  0.1600
 1313ERGO    R516556  11.571  11.022   6.750 -0.0056 -0.0589  0.0942
 1313ERGO    C116557  11.552  11.348   6.947  0.3729 -0.0429  0.1113
 1313ERGO    C216558  11.742  11.546   7.146 -0.4669 -0.0734  0.1540
 1314ERGO   ROH16559   0.900   2.242   5.525 -0.0937  0.0427  0.0522
 1314ERGO    R116560   0.767   2.342   5.754 -0.2833 -0.2320  0.0675
 1314ERGO    R216561   0.605   2.185   5.913  0.0995 -0.5926  0.1133
 1314ERGO    R316562   0.769   2.274   6.111 -0.0575 -0.1977  0.0759
 1314ERGO    R416563   0.508   2.235   6.241  0.0391 -0.8058  0.1296
 1314ERGO    R516564   0.628   2.417   6.244 -0.3765 -0.5103  0.0956
 1314ERGO    C116565   0.604   2.347   6.618 -0.1435 -0.5592  0.1040
 1314ERGO    C216566   0.502   2.394   7.018  0.1343 -0.2907  0.1427
 1315ERGO   ROH16567   1.301   0.188   6.030  0.0895  0.1279 -0.0151
 1315ERGO    R116568   1.092   0.234   6.215  0.0809  0.0997 -0.0194
 1315ERGO    R216569   1.090   0.122   6.468  0.0776  0.0766 -0.0349
 1315ERGO    R316570   1.061   0.380   6.547  0.0578  0.0670 -0.0058
 1315ERGO    R416571   0.899   0.225   6.737 -0.1499  0.0520 -0.1827
 1315ERGO    R516572   0.832   0.395   6.617 -0.0087  0.0943 -0.2108
 1315ERGO    C116573   0.761   0.528   6.968 -0.3009  0.0287 -0.2414
 1315ERGO    C216574   0.565   0.766   7.110  0.0614  0.0234  0.1452
 1316ERGO   ROH16575   8.524   7.776   5.723  0.1120 -0.1634  0.1256
 1316ERGO    R116576   8.370   7.847   5.950  0.1164 -0.2578  0.1596
 1316ERGO    R216577   8.476   7.855   6.205  0.1929 -0.0999  0.1287
 1316ERGO    R316578   8.376   8.108   6.203 -0.0464 -0.1926  0.0962
 1316ERGO    R416579   8.346   8.018   6.481 -0.0110 -0.1987  0.0920
 1316ERGO    R516580   8.189   8.100   6.352 -0.0641 -0.3553  0.0622
 1316ERGO    C116581   8.177   8.351   6.639 -0.3544 -0.3432  0.0401
 1316ERGO    C216582   8.141   8.475   6.872 -0.0534 -0.0191  0.0063
 1317ERGO   ROH16583  12.064  16.191   6.338  0.0835  0.3384  0.0286
 1317ERGO    R116584  12.019  16.193   6.618  0.0965  0.2229  0.0314
 1317ERGO    R216585  11.886  15.990   6.749  0.0442  0.2048 -0.0602
 1317ERGO    R316586  12.110  15.986   6.902  0.0463  0.0659 -0.0634
 1317ERGO    R416587  11.918  15.820   7.049 -0.1196  0.3054  0.0168
 1317ERGO    R516588  12.029  15.990   7.128  0.0443  0.2453 -0.0610
 1317ERGO    C116589  12.147  15.718   7.367 -0.2130  0.2336  0.0585
 1317ERGO    C216590  12.239  15.560   7.674 -0.1185  0.0221 -0.1745
 1318ERGO   ROH16591   4.907  14.863   6.113 -0.3134  0.1322 -0.2222
 1318ERGO    R116592   4.821  14.994   6.349 -0.4065  0.1500 -0.2699
 1318ERGO    R216593   4.553  15.014   6.419 -0.3971 -0.1880 -0.1885
 1318ERGO    R316594   4.639  14.902   6.651 -0.1631  0.0798 -0.1355
 1318ERGO    R416595   4.439  15.098   6.734 -0.5100 -0.1775 -0.2288
 1318ERGO    R516596   4.643  15.083   6.807 -0.4461  0.2058 -0.2441
 1318ERGO    C116597   4.453  15.041   7.135 -0.3561  0.0800 -0.2026
 1318ERGO    C216598   4.298  15.036   7.312  0.2351  0.0015 -0.1038
 1319ERGO   ROH16599  13.245   1.611   6.333  0.3902 -0.1991 -0.1268
 1319ERGO    R116600  13.332   1.442   6.542  0.2554  0.0298  0.1209
 1319ERGO    R216601  13.272   1.491   6.808 -0.3514  0.0549 -0.0058
 1319ERGO    R316602  13.175   1.237   6.798  0.0700 -0.1102 -0.1007
 1319ERGO    R416603  13.211   1.292   7.084 -0.3970  0.0001 -0.0552
 1319ERGO    R516604  13.292   1.122   6.973  0.0292  0.1067  0.0728
 1319ERGO    C116605  13.085   0.937   7.236 -0.0278 -0.1868 -0.1731
 1319ERGO    C216606  13.095   0.918   7.524  0.1367  0.4611  0.0330
 1320ERGO   ROH16607   6.034  14.069   5.947 -0.3414 -0.2268 -0.0881
 1320ERGO    R116608   6.135  14.047   6.210 -0.3453 -0.0117 -0.0660
 1320ERGO    R216609   5.972  14.051   6.433 -0.4004 -0.2951 -0.0944
 1320ERGO    R316610   6.099  13.816   6.489  0.0321 -0.0613 -0.0538
 1320ERGO    R416611   6.065  13.948   6.750 -0.3114 -0.1272 -0.0656
 1320ERGO    R516612   6.252  13.873   6.665 -0.1330  0.2289  0.0001
 1320ERGO    C116613   6.238  13.669   6.987  0.1465  0.1901 -0.0108
 1320ERGO    C216614   6.172  13.544   7.215  0.3790 -0.0665  0.1119
 1321ERGO   ROH16615  16.063  14.937   6.244 -0.0249 -0.0926 -0.0913
 1321ERGO    R116616  16.052  14.721   6.426  0.0670 -0.0973 -0.0888
 1321ERGO    R216617  16.278  14.615   6.545  0.0986  0.1214  0.0623
 1321ERGO    R316618  16.141  14.664   6.775 -0.0970  0.0058 -0.0297
 1321ERGO    R416619  16.348  14.470   6.852  0.0954  0.2716  0.1330
 1321ERGO    R516620  16.133  14.451   6.886  0.0958  0.0193  0.0095
 1321ERGO    C116621  16.259  14.432   7.245 -0.0907  0.2503  0.0879
 1321ERGO    C216622  16.439  14.390   7.518  0.1671 -0.2085  0.1778
 1322ERGO   ROH16623   6.669  18.849   6.200  0.0847 -0.1043  0.0442
 1322ERGO    R116624   6.713  18.886   6.477  0.0613 -0.0301  0.0387
 1322ERGO    R216625   6.602  19.096   6.619  0.1033  0.0475 -0.0386
 1322ERGO    R316626   6.508  18.896   6.778  0.0264  0.1228  0.0104
 1322ERGO    R416627   6.589  19.107   6.964 -0.0841  0.2177 -0.0499
 1322ERGO    R516628   6.653  18.899   6.968 -0.0773  0.2231  0.0879
 1322ERGO    C116629   6.494  18.926   7.314 -0.2654  0.3874 -0.0105
 1322ERGO    C216630   6.316  18.839   7.691 -0.0579 -0.0229  0.3294
 1323ERGO   ROH16631  12.989   0.178   6.216  0.0518 -0.3025  0.0760
 1323ERGO    R116632  12.994   0.275   6.482  0.0151 -0.1945  0.0378
 1323ERGO    R216633  12.806   0.202   6.671 -0.0007 -0.1309  0.0459
 1323ERGO    R316634  13.025   0.131   6.815 -0.0127 -0.0574  0.1004
 1323ERGO    R416635  12.814   0.172   7.015 -0.0081  0.1319  0.0706
 1323ERGO    R516636  13.011   0.266   7.013  0.0085  0.0986 -0.0013
 1323ERGO    C116637  13.024   0.089   7.351 -0.0235  0.3541  0.1362
 1323ERGO    C216638  13.048  -0.083   7.692  0.0300  0.0279  0.3048
 1324ERGO   ROH16639   6.115  15.152   6.179  0.0287  0.0986  0.0066
 1324ERGO    R116640   6.306  15.015   6.335 -0.0486 -0.0323 -0.0133
 1324ERGO    R216641   6.476  15.145   6.511  0.0786 -0.1444 -0.0572
 1324ERGO    R316642   6.373  14.968   6.690 -0.0217 -0.0505 -0.0196
 1324ERGO    R416643   6.626  15.058   6.810  0.0803 -0.2277 -0.0816
 1324ERGO    R516644   6.565  14.851   6.774 -0.0874 -0.1897 -0.0509
 1324ERGO    C116645   6.618  14.841   7.152 -0.0130 -0.1881 -0.0603
 1324ERGO    C216646   6.816  14.931   7.422 -0.2777  0.3214  0.1368
 1325ERGO   ROH16647  15.816   3.581   5.571  0.1409 -0.0538  0.0998
 1325ERGO    R116648  15.871   3.796   5.748  0.0308  0.0494  0.0099
 1325ERGO    R216649  15.677   3.910   5.908  0.0181 -0.1355  0.1271
 1325ERGO    R316650  15.853   3.854   6.107  0.2331  0.1092  0.0118
 1325ERGO    R416651  15.636   3.999   6.239  0.0069 -0.3660  0.1900
 1325ERGO    R516652  15.848   4.048   6.247 -0.0732  0.0424  0.1022
 1325ERGO    C116653  15.778   3.999   6.619  0.2023 -0.2704  0.1183
 1325ERGO    C216654  15.756   3.981   6.967  0.1409 -0.1875 -0.0125
 1326ERGO   ROH16655   0.167   9.949   5.977  0.2092 -0.0832 -0.0092
 1326ERGO    R116656   0.228   9.985   6.251  0.1875 -0.0480 -0.0089
 1326ERGO    R216657   0.052   9.918   6.453  0.0974  0.1398 -0.0172
 1326ERGO    R316658   0.262   9.773   6.545 -0.0225  0.0085  0.0556
 1326ERGO    R416659   0.148   9.899   6.785 -0.0311  0.0392  0.0160
 1326ERGO    R516660   0.356   9.908   6.719 -0.0068 -0.0748  0.1038
 1326ERGO    C116661   0.402   9.751   7.063 -0.2183 -0.1427  0.1036
 1326ERGO    C216662   0.398   9.720   7.443  0.0904 -0.1411  0.0806
 1327ERGO   ROH16663  13.648   8.594   6.325 -0.1838 -0.0483  0.0197
 1327ERGO    R116664  13.607   8.465   6.574 -0.0335 -0.0729  0.0324
 1327ERGO    R216665  13.685   8.576   6.814  0.0088 -0.0459  0.0037
 1327ERGO    R316666  13.425   8.535   6.881  0.0523 -0.1616  0.1046
 1327ERGO    R416667  13.566   8.561   7.138  0.1495 -0.1185  0.0532
 1327ERGO    R516668  13.436   8.396   7.077  0.1932 -0.1721  0.0931
 1327ERGO    C116669  13.252   8.513   7.390  0.2721 -0.2695  0.1767
 1327ERGO    C216670  13.060   8.706   7.535 -0.2087 -0.0265  0.3603
 1328ERGO   ROH16671   0.366   3.326   5.872 -0.1747 -0.0691 -0.0362
 1328ERGO    R116672   0.253   3.402   6.120 -0.0412 -0.1333  0.0466
 1328ERGO    R216673   0.134   3.221   6.291  0.0271 -0.1766  0.0561
 1328ERGO    R316674   0.310   3.325   6.471  0.1336 -0.2480 -0.0067
 1328ERGO    R416675   0.120   3.169   6.633  0.1030 -0.1201  0.0674
 1328ERGO    R516676   0.174   3.379   6.662  0.2229 -0.1499  0.0252
 1328ERGO    C116677   0.277   3.237   7.001  0.2472 -0.1542  0.0150
 1328ERGO    C216678   0.290   3.172   7.400  0.0865  0.1673  0.2358
 1329ERGO   ROH16679   8.615   5.450   7.885  0.1316  0.1575  0.0383
 1329ERGO    R116680   8.335   5.456   7.844  0.1096 -0.0154  0.1490
 1329ERGO    R216681   8.166   5.618   7.992  0.0869  0.0232  0.0928
 1329ERGO    R316682   8.087   5.704   7.747 -0.0505 -0.2135  0.0525
 1329ERGO    R416683   7.851   5.737   7.917  0.1057  0.1342  0.1896
 1329ERGO    R516684   7.860   5.629   7.728 -0.1101 -0.0908  0.3105
 1329ERGO    C116685   7.592   5.887   7.643 -0.0122 -0.0234  0.2081
 1329ERGO    C216686   7.406   5.953   7.397  0.2233 -0.2942 -0.1469
 1330ERGO   ROH16687   7.515  11.842   5.996 -0.0325  0.1606 -0.1194
 1330ERGO    R116688   7.616  11.983   6.219  0.0612  0.0403 -0.0848
 1330ERGO    R216689   7.473  12.012   6.454  0.0509  0.1356 -0.1010
 1330ERGO    R316690   7.697  11.905   6.566 -0.0586 -0.0816 -0.0836
 1330ERGO    R416691   7.562  12.040   6.787  0.1416  0.2007 -0.1307
 1330ERGO    R516692   7.768  12.069   6.725  0.1686 -0.0840 -0.1806
 1330ERGO    C116693   7.824  11.957   7.085  0.0917  0.0347 -0.1317
 1330ERGO    C216694   7.781  11.876   7.440  0.0974  0.3054  0.3625
 1331ERGO   ROH16695  18.942  16.333   6.123 -0.0189 -0.0503 -0.1709
 1331ERGO    R116696  19.145  16.223   6.286 -0.1237 -0.0447 -0.0346
 1331ERGO    R216697  19.415  16.258   6.233 -0.0895 -0.2074  0.0302
 1331ERGO    R316698  19.420  16.351   6.488 -0.1272 -0.0484 -0.0263
 1331ERGO    R416699  19.701  16.310   6.419 -0.1261 -0.4329  0.1523
 1331ERGO    R516700  19.597  16.230   6.593 -0.3264 -0.2002  0.1505
 1331ERGO    C116701  19.872  16.428   6.768 -0.1829 -0.4147  0.1703
 1331ERGO    C216702  20.057  16.752   7.005 -0.1472  0.0479 -0.2664
 1332ERGO   ROH16703  14.413   5.511   6.915  0.0245  0.0027  0.2768
 1332ERGO    R116704  14.681   5.596   6.951  0.0460 -0.0134  0.1616
 1332ERGO    R216705  14.864   5.450   7.096  0.1009 -0.0243  0.0847
 1332ERGO    R316706  15.012   5.469   6.869  0.0028 -0.0350  0.0200
 1332ERGO    R416707  15.210   5.454   7.085  0.0962 -0.0230 -0.0679
 1332ERGO    R516708  15.198   5.607   6.930  0.0287 -0.0321 -0.0695
 1332ERGO    C116709  15.549   5.473   6.864  0.0014 -0.0322 -0.2174
 1332ERGO    C216710  15.969   5.388   6.823 -0.1490  0.2157 -0.6237
 1333ERGO   ROH16711   1.081   8.561   5.735 -0.0125 -0.2999 -0.2043
 1333ERGO    R116712   1.140   8.555   6.012 -0.1717 -0.0169 -0.1575
 1333ERGO    R216713   0.945   8.572   6.207 -0.3375 -0.2343 -0.2842
 1333ERGO    R316714   1.059   8.341   6.295  0.0213  0.0124 -0.0829
 1333ERGO    R416715   0.951   8.469   6.537 -0.0744  0.0816 -0.1861
 1333ERGO    R516716   1.156   8.400   6.506  0.0058  0.3474 -0.1742
 1333ERGO    C116717   1.062   8.192   6.811  0.4158  0.4970  0.0601
 1333ERGO    C216718   0.825   8.231   7.043  0.0727  0.0096  0.4167
 1334ERGO   ROH16719  14.481   2.286   6.306  0.0869  0.0218  0.2070
 1334ERGO    R116720  14.511   2.445   6.538  0.2246 -0.0219  0.2205
 1334ERGO    R216721  14.436   2.358   6.790  0.1096  0.0350  0.2086
 1334ERGO    R316722  14.693   2.423   6.853  0.1723 -0.2276  0.2371
 1334ERGO    R416723  14.552   2.420   7.109  0.0380  0.3335  0.1791
 1334ERGO    R516724  14.671   2.583   7.029  0.3041  0.0582  0.0003
 1334ERGO    C116725  14.859   2.518   7.355  0.0553  0.2607  0.1885
 1334ERGO    C216726  14.956   2.479   7.717 -0.1239 -0.0862  0.0616
 1335ERGO   ROH16727  13.306   9.156   5.827 -0.2229  0.0155 -0.0873
 1335ERGO    R116728  13.320   8.991   6.057 -0.0860  0.0155 -0.0903
 1335ERGO    R216729  13.535   8.995   6.230 -0.0302  0.1121 -0.1326
 1335ERGO    R316730  13.343   9.041   6.416 -0.0144  0.0317 -0.1021
 1335ERGO    R416731  13.583   8.979   6.572 -0.0108  0.0769 -0.1400
 1335ERGO    R516732  13.389   8.883   6.590  0.0321  0.0324 -0.1320
 1335ERGO    C116733  13.430   9.013   6.946  0.0154 -0.0191 -0.1158
 1335ERGO    C216734  13.704   9.023   7.248  0.3047  0.0696 -0.0209
 1336ERGO   ROH16735  17.344   6.814   7.358 -0.3835 -0.0200 -0.0821
 1336ERGO    R116736  17.604   6.919   7.389 -0.2789 -0.3016  0.0309
 1336ERGO    R216737  17.653   7.190   7.414  0.0232 -0.3243 -0.2405
 1336ERGO    R316738  17.784   7.112   7.640 -0.2768 -0.2291 -0.0264
 1336ERGO    R416739  17.906   7.370   7.566  0.0949 -0.4506 -0.2078
 1336ERGO    R516740  18.011   7.182   7.602 -0.1560 -0.5380  0.1044
 1336ERGO    C116741  18.177   7.403   7.866 -0.1448 -0.4349  0.0122
 1336ERGO    C216742  18.190   7.559   8.124  0.2035  0.2011 -0.1595
 1337ERGO   ROH16743  18.227  10.939   6.160  0.0387  0.1724  0.1111
 1337ERGO    R116744  18.283  10.830   6.415  0.0114  0.1176  0.0934
 1337ERGO    R216745  18.518  10.697   6.471 -0.0343  0.0263  0.0640
 1337ERGO    R316746  18.534  10.877   6.674  0.0407 -0.0083  0.0895
 1337ERGO    R416747  18.715  10.660   6.752 -0.2150 -0.2034  0.1641
 1337ERGO    R516748  18.552  10.742   6.871 -0.1974 -0.0501  0.0872
 1337ERGO    C116749  18.846  10.807   7.106 -0.2494 -0.3696  0.2462
 1337ERGO    C216750  18.985  10.990   7.333  0.0591 -0.1064  0.2935
 1338ERGO   ROH16751  17.948   8.908   6.318 -0.0199 -0.0830 -0.1252
 1338ERGO    R116752  17.980   8.828   6.588  0.0587 -0.1657 -0.1587
 1338ERGO    R216753  18.216   8.722   6.685  0.1637  0.0273 -0.2044
 1338ERGO    R316754  18.193   8.921   6.868 -0.0333 -0.0729 -0.1176
 1338ERGO    R416755  18.420   8.761   6.961  0.2073  0.1664 -0.2556
 1338ERGO    R516756  18.244   8.816   7.077  0.1664 -0.1012 -0.1756
 1338ERGO    C116757  18.517   8.970   7.294  0.0476  0.1533 -0.2040
 1338ERGO    C216758  18.744   9.222   7.410  0.1515 -0.2153 -0.2266
 1339ERGO   ROH16759  15.344   1.091   5.763  0.2207  0.3778  0.0013
 1339ERGO    R116760  15.530   0.938   5.911  0.1211  0.2202 -0.0382
 1339ERGO    R216761  15.713   1.051   6.083  0.1602  0.0526  0.0206
 1339ERGO    R316762  15.604   0.880   6.263  0.0569  0.0396 -0.0512
 1339ERGO    R416763  15.872   0.938   6.368 -0.0023  0.0661  0.1192
 1339ERGO    R516764  15.787   0.740   6.330  0.0343  0.0533  0.0594
 1339ERGO    C116765  15.861   0.711   6.704 -0.1940  0.0619  0.1091
 1339ERGO    C216766  16.042   0.595   6.914  0.1851  0.1562  0.4137
 1340ERGO   ROH16767   6.830  16.638   6.511 -0.3190  0.1214  0.1690
 1340ERGO    R116768   6.987  16.755   6.715 -0.2091  0.0395  0.1327
 1340ERGO    R216769   7.006  16.647   6.968 -0.1337 -0.0206  0.1035
 1340ERGO    R316770   7.273  16.657   6.918 -0.1518 -0.0747 -0.0026
 1340ERGO    R416771   7.251  16.507   7.169 -0.0800 -0.0775 -0.0013
 1340ERGO    R516772   7.374  16.683   7.133 -0.0582 -0.1037 -0.0438
 1340ERGO    C116773   7.643  16.434   7.237 -0.0657 -0.1615 -0.1621
 1340ERGO    C216774   7.790  16.124   7.447  0.1398 -0.0909 -0.0034
 1341ERGO   ROH16775   8.900  12.005   6.151 -0.1203  0.1314  0.1223
 1341ERGO    R116776   8.960  12.077   6.418 -0.0292  0.0753  0.1173
 1341ERGO    R216777   8.827  11.970   6.635 -0.0605  0.1451  0.1301
 1341ERGO    R316778   9.079  11.909   6.718 -0.0850 -0.0197  0.0875
 1341ERGO    R416779   8.907  11.850   6.949 -0.0821  0.1927  0.1537
 1341ERGO    R516780   9.084  11.979   6.947  0.0207  0.0594  0.0647
 1341ERGO    C116781   9.189  11.723   7.210 -0.1177  0.0656  0.1274
 1341ERGO    C216782   9.328  11.589   7.453  0.3571  0.0374 -0.1758
 1342ERGO   ROH16783   3.952   7.582   5.943  0.0132 -0.3826  0.0755
 1342ERGO    R116784   4.155   7.647   6.129 -0.0250 -0.3363  0.1012
 1342ERGO    R216785   4.101   7.764   6.374 -0.0679 -0.1826  0.0209
 1342ERGO    R316786   4.243   7.553   6.469 -0.1572 -0.1713  0.1827
 1342ERGO    R416787   4.189   7.719   6.705 -0.0070  0.0788  0.0425
 1342ERGO    R516788   4.384   7.648   6.638 -0.0627 -0.0887  0.0579
 1342ERGO    C116789   4.374   7.494   6.987 -0.0553  0.2417  0.2070
 1342ERGO    C216790   4.464   7.394   7.297 -0.0285  0.3706  0.0239
 1343ERGO   ROH16791   4.940  18.659   6.299 -0.0018  0.0024 -0.0920
 1343ERGO    R116792   4.770  18.621   6.523 -0.0174 -0.0398 -0.1104
 1343ERGO    R216793   4.602  18.403   6.547  0.1285 -0.1510 -0.0674
 1343ERGO    R316794   4.729  18.372   6.785  0.1089  0.0196 -0.0340
 1343ERGO    R416795   4.491  18.203   6.806  0.0651  0.1012  0.1028
 1343ERGO    R516796   4.553  18.359   6.946  0.0995  0.2051 -0.0284
 1343ERGO    C116797   4.546  18.058   7.181  0.0099  0.4084  0.2332
 1343ERGO    C216798   4.412  17.877   7.486 -0.0960  0.1298  0.1508
 1344ERGO   ROH16799   3.561   9.733   6.218  0.2530  0.0856 -0.1365
 1344ERGO    R116800   3.678   9.835   6.455  0.0414  0.0628 -0.0196
 1344ERGO    R216801   3.528   9.902   6.677 -0.1374 -0.1747 -0.0616
 1344ERGO    R316802   3.699   9.733   6.803 -0.0642 -0.0996 -0.0599
 1344ERGO    R416803   3.606   9.915   7.013 -0.0105 -0.0353 -0.0957
 1344ERGO    R516804   3.814   9.871   6.962 -0.0249 -0.0231 -0.1562
 1344ERGO    C116805   3.813   9.764   7.328  0.1321  0.1165 -0.1140
 1344ERGO    C216806   3.764   9.688   7.784  0.0913 -0.2330  0.0550
 1345ERGO   ROH16807   4.955  11.337   6.110 -0.0530  0.1403  0.0360
 1345ERGO    R116808   4.940  11.518   6.326 -0.0609  0.2930 -0.0916
 1345ERGO    R216809   4.746  11.714   6.342 -0.3290  0.0248 -0.0317
 1345ERGO    R316810   4.697  11.601   6.585  0.1152  0.1461  0.1259
 1345ERGO    R416811   4.598  11.877   6.609 -0.3523  0.0070 -0.0325
 1345ERGO    R516812   4.740  11.777   6.742 -0.0329  0.3727 -0.0763
 1345ERGO    C116813   4.466  11.865   6.992  0.0512  0.1106  0.1150
 1345ERGO    C216814   4.141  11.990   7.239 -0.1154 -0.0206 -0.1239
 1346W        W16815   8.433   3.259   3.860 -0.0052 -0.1186  0.4074
 1347W        W16816  16.773   5.583  15.348 -0.1536 -0.3412 -0.0241
 1348W        W16817  18.912  13.397  11.781 -0.1211  0.1483 -0.3854
 1349W        W16818  16.046  17.232  10.899  0.2270  0.2150 -0.2569
 1350W        W16819  13.028  14.007   0.906  0.2428  0.2421 -0.0232
 1351W        W16820   1.526   5.662  13.905  0.2067  0.2118 -0.2202
 1352W        W16821   5.036   5.967  12.584  0.0627  0.2923  0.1681
 1353W        W16822   0.825   1.361  12.665 -0.1686  0.3196  0.0094
 1354W        W16823   1.319  18.945   0.919  0.1298 -0.1026 -0.0306
 1355W        W16824   9.926   6.332  11.135 -0.0452 -0.0630 -0.0243
 1356W        W16825  11.926  10.391  11.065  0.0228  0.1259  0.0602
 1357W        W16826   4.754   5.208  14.322  0.1126 -0.2357 -0.0874
 1358W        W16827   6.466   3.089  10.779 -0.1895  0.0159  0.1457
 1359W        W16828   0.590   2.098  14.167 -0.2265  0.0383  0.1262
 1360W        W16829  17.842   6.781   4.600 -0.2148  0.0449  0.2238
 1361W        W16830   0.373  12.654   2.525 -0.0231 -0.3261  0.0610
 1362W        W16831  13.122   9.866  12.122  0.3199  0.1760  0.2278
 1363W        W16832   5.931  10.299  12.823 -0.0719  0.1285  0.2126
 1364W        W16833  18.473  17.879   3.933 -0.3663  0.0636 -0.0231
 1365W        W16834   3.061  14.505  13.810 -0.0721 -0.2291  0.2555
 1366W        W16835  18.657   1.231  12.523  0.1954 -0.3225  0.0253
 1367W        W16836   0.612  18.115   1.019  0.1106 -0.4173 -0.1037
 1368W        W16837   2.181  13.536   3.264 -0.0787  0.0827 -0.1385
 1369W        W16838   0.003  10.208   5.018 -0.1136 -0.2463 -0.2990
 1370W        W16839   7.018   9.992   3.213 -0.0388 -0.1807 -0.2092
 1371W        W16840   0.256   9.332  13.096 -0.1886 -0.0793 -0.0151
 1372W        W16841  11.361   8.154   1.110 -0.1575  0.0283 -0.0887
 1373W        W16842   2.353  11.249   2.525  0.1692  0.1070  0.1700
 1374W        W16843   8.265   3.187  12.398  0.0225 -0.0947 -0.0266
 1375W        W16844   6.422  10.287  12.742  0.0358 -0.0916 -0.1304
 1376W        W16845  12.477  16.921  12.522  0.1765 -0.2246  0.1687
 1377W        W16846   0.966   3.495   3.318 -0.1411 -0.1123 -0.2205
 1378W        W16847   6.923  17.446   2.566 -0.1801 -0.0624  0.1387
 1379W        W16848  11.636   4.065   4.597 -0.3006  0.0422  0.0371
 1380W        W16849  10.936  10.394   1.943 -0.1267 -0.0533 -0.0422
 1381W        W16850  14.535   1.631   1.118  0.0895  0.0743 -0.0370
 1382W        W16851  14.044   0.094  11.401 -0.0353 -0.1332  0.0071
 1383W        W16852   8.293  11.022   4.415  0.0420 -0.0390  0.0817
 1384W        W16853  18.079   6.246   5.341  0.0724  0.0354  0.1078
 1385W        W16854  17.016  17.610  10.729  0.0937  0.1962 -0.1160
 1386W        W16855  18.550  12.235  11.369  0.3876  0.0401 -0.2099
 1387W        W16856   9.279   3.051   5.699  0.0411  0.3555 -0.0030
 1388W        W16857   0.868   3.101   3.614 -0.1813  0.0639 -0.1173
 1389W        W16858   7.096  14.468  13.786 -0.0615  0.0269  0.2327
 1390W        W16859  12.777  17.606   0.093 -0.1103  0.0298  0.2672
 1391W        W16860   8.870   8.495  13.167 -0.1448 -0.0572 -0.2400
 1392W        W16861  14.940  10.983   3.466  0.0531  0.2410 -0.1940
 1393W        W16862   6.546  17.113  13.828 -0.0673  0.0049 -0.2512
 1394W        W16863   1.932  17.136   4.439 -0.0048 -0.2022 -0.0276
 1395W        W16864  13.268   4.888   2.346 -0.3170 -0.0618 -0.0618
 1396W        W16865   1.303  18.773   4.832  0.2599 -0.4597  0.0709
 1397W        W16866  12.089   4.973  12.378 -0.0819 -0.0534  0.0896
 1398W        W16867  16.293   0.364   1.572 -0.1900 -0.1347  0.1239
 1399W        W16868  10.725   9.527   4.715  0.1732 -0.0605  0.3009
 1400W        W16869   5.143  18.303  11.532 -0.0589  0.0072 -0.0110
 1401W        W16870   3.593   5.640   2.468 -0.1079  0.0349  0.2428
 1402W        W16871   8.508   1.781   1.514 -0.1297 -0.4168 -0.0384
 1403W        W16872   1.515   7.701   4.403 -0.0388 -0.3480  0.0022
 1404W        W16873   0.989   1.948   0.680 -0.0058  0.0756 -0.1790
 1405W        W16874  14.652  18.178  11.934  0.0163  0.2126  0.0250
 1406W        W16875   5.055   5.508   3.499  0.1207  0.0467  0.0166
 1407W        W16876   0.495   6.004   3.144  0.1426  0.0765 -0.0146
 1408W        W16877  17.996   1.837   2.192 -0.2211  0.0885 -0.0102
 1409W        W16878  15.662   1.217  12.823  0.2057  0.3441 -0.3366
 1410W        W16879  14.574   3.305   1.107  0.3764 -0.1604 -0.0244
 1411W        W16880   8.636   3.374   1.977  0.0826 -0.0383 -0.2096
 1412W        W16881  13.128  18.367  10.996 -0.1658  0.0302 -0.2341
 1413W        W16882  14.245  10.719   1.596  0.0473  0.1761 -0.0034
 1414W        W16883  18.481   1.751   2.306  0.0100 -0.0064  0.2276
 1415W        W16884  11.180  15.494   9.479  0.0191  0.1349 -0.1290
 1416W        W16885  19.015  17.787   0.918  0.0804  0.0975  0.2521
 1417W        W16886   6.370   6.680   1.236 -0.2285 -0.0885  0.1432
 1418W        W16887   3.103   0.988  11.869  0.0906 -0.1249  0.2279
 1419W        W16888   6.138  10.298  14.942 -0.0849 -0.1670  0.0093
 1420W        W16889   6.869   6.772   4.654 -0.0684  0.1766 -0.0308
 1421W        W16890  14.458   3.776   1.864 -0.0129 -0.1336 -0.0352
 1422W        W16891   6.389   7.245   4.185 -0.0027 -0.3703  0.1042
 1423W        W16892   8.183   3.148   2.940 -0.0567  0.1895 -0.3987
 1424W        W16893   9.034   0.752  12.436 -0.2275 -0.1909  0.0112
 1425W        W16894   6.975   2.376  13.075  0.0760 -0.1481 -0.0652
 1426W        W16895   3.722   8.658   4.237 -0.0697  0.0296  0.4319
 1427W        W16896   2.701   1.358   4.807  0.1665  0.1955  0.3388
 1428W        W16897   4.373   4.542  12.603 -0.3438  0.4005  0.1625
 1429W        W16898  16.165  13.544   4.540  0.0508 -0.2722 -0.1227
 1430W        W16899   9.800  15.006   0.754  0.2124  0.3095  0.1841
 1431W        W16900   8.668  13.165  12.725 -0.0141  0.0346  0.2681
 1432W        W16901  11.098   7.227  12.279  0.2644  0.0314 -0.1145
 1433W        W16902  18.515   8.351  12.362 -0.1581  0.1220 -0.0759
 1434W        W16903   0.400  11.693   4.694  0.1082 -0.0613 -0.0585
 1435W        W16904  17.336   2.996  12.365  0.1448 -0.0085 -0.0498
 1436W        W16905   2.585   6.799  12.229  0.1504  0.3636  0.0066
 1437W        W16906   0.947  14.999   4.908 -0.0099 -0.0149  0.1076
 1438W        W16907   0.392   0.243   3.313  0.0570  0.0976  0.0504
 1439W        W16908  18.691   6.319  14.761 -0.0613 -0.2592 -0.1206
 1440W        W16909   4.121   3.860  12.482 -0.1375  0.1025 -0.0739
 1441W        W16910  13.161  11.136  11.781 -0.2627 -0.0498 -0.0017
 1442W        W16911   6.637  15.139   3.496  0.0809  0.0153  0.1239
 1443W        W16912   5.594  14.090  11.799  0.0677 -0.0787 -0.2673
 1444W        W16913  14.137   0.195   0.064 -0.1636  0.1575  0.0027
 1445W        W16914  13.928   5.220  10.079 -0.1242 -0.1283  0.0634
 1446W        W16915   9.488   3.271   4.700  0.0763 -0.1893 -0.0690
 1447W        W16916   6.906  17.459   0.581  0.0735 -0.1249  0.2355
 1448W        W16917  13.382   6.151  14.324 -0.0162 -0.1659  0.0325
 1449W        W16918   3.197  10.211   3.698  0.1136  0.2764 -0.1605
 1450W        W16919  14.099  18.182   4.515  0.0750 -0.1854 -0.0031
 1451W        W16920   7.920  18.024  14.496  0.0562  0.1152 -0.1439
 1452W        W16921  18.240  13.823  12.038  0.2502 -0.0816 -0.0839
 1453W        W16922  11.211  14.625  13.896 -0.1255  0.0516 -0.0013
 1454W        W16923  12.220  17.543   1.343 -0.2006 -0.2118  0.1698
 1455W        W16924   8.213   1.946  11.394 -0.0511 -0.0157  0.1372
 1456W        W16925   1.412  18.275   5.028 -0.0173 -0.1007 -0.1892
 1457W        W16926   0.117  13.389   5.157 -0.3231 -0.2546 -0.0744
 1458W        W16927   5.392   5.593  13.637 -0.2036  0.0059  0.0530
 1459W        W16928   8.191  16.934  12.109 -0.2911 -0.1517 -0.0353
 1460W        W16929   1.806   6.103  13.688  0.1598 -0.3008  0.3428
 1461W        W16930   8.070   1.256  15.194  0.1610  0.0147 -0.4823
 1462W        W16931  15.198   0.999  11.442 -0.0667 -0.1038  0.0508
 1463W        W16932   9.046  17.446  12.237 -0.1735  0.0182  0.4687
 1464W        W16933  12.442   1.476   1.333 -0.0118  0.0632  0.0901
 1465W        W16934  12.723  11.550  12.159  0.1901 -0.2922  0.0170
 1466W        W16935   5.667   3.394  10.905  0.1147 -0.0009 -0.2061
 1467W        W16936  14.493   8.889   3.374 -0.1102  0.2634  0.0922
 1468W        W16937   9.319   6.100   3.428  0.0905 -0.0851  0.1842
 1469W        W16938  18.001   1.180  12.132  0.1078  0.0635  0.1510
 1470W        W16939  14.086   6.512  12.420 -0.1154  0.0559  0.0717
 1471W        W16940  13.129  17.641  11.005  0.0377 -0.0351  0.1444
 1472W        W16941   4.567   8.519   0.277 -0.2221 -0.2079 -0.1784
 1473W        W16942   2.362   1.197  12.370  0.1849 -0.0808 -0.1460
 1474W        W16943  10.515  17.085  11.912 -0.0447  0.1423  0.1758
 1475W        W16944   9.983  14.620  12.512 -0.0514 -0.2252  0.2090
 1476W        W16945  13.284   2.730   4.396 -0.5482 -0.0160 -0.3133
 1477W        W16946  13.204   3.493  13.757  0.1330 -0.0188  0.1826
 1478W        W16947   3.030  18.137  13.423  0.0224  0.1157  0.1171
 1479W        W16948   3.773  15.315  13.856 -0.4432 -0.1912 -0.0208
 1480W        W16949   6.662   8.493  10.421  0.1109 -0.2151  0.3716
 1481W        W16950  16.516  12.753  13.026 -0.1716 -0.1425 -0.2406
 1482W        W16951  10.543  16.016   2.392 -0.1139 -0.3437 -0.2661
 1483W        W16952   7.338  18.267  12.760  0.3366 -0.0636  0.0761
 1484W        W16953  17.928  12.223  10.642 -0.0468 -0.0951  0.2391
 1485W        W16954   7.757  12.282  13.315 -0.0288 -0.0328 -0.1441
 1486W        W16955  11.413  15.428  10.605 -0.0158 -0.2460 -0.1631
 1487W        W16956  10.533   1.651  12.877  0.0540 -0.0616  0.1809
 1488W        W16957  18.711  16.596  12.590 -0.1970 -0.1446 -0.0808
 1489W        W16958   7.166   0.108   2.237 -0.0391  0.0119 -0.0796
 1490W        W16959   9.731  13.182   4.561  0.2103 -0.2974 -0.3364
 1491W        W16960  15.733   1.641  14.213 -0.0692 -0.0471  0.1549
 1492W        W16961  14.736   6.073   1.199 -0.0170 -0.1885 -0.0783
 1493W        W16962   7.545  13.177   2.588 -0.0566 -0.1425  0.3027
 1494W        W16963  18.558   5.889  14.553  0.0000 -0.1063  0.1262
 1495W        W16964   2.151   6.502  10.994 -0.0449  0.2258  0.4100
 1496W        W16965   2.368  13.462  11.296  0.1946 -0.0042  0.2386
 1497W        W16966   1.895   5.801   3.052  0.5564  0.2578 -0.2220
 1498W        W16967  10.275  15.179   4.368  0.0383 -0.3630 -0.1919
 1499W        W16968  14.198   3.137  11.256 -0.2574  0.2221  0.1271
 1500W        W16969   8.950   8.908   1.310 -0.0294 -0.0235  0.0307
 1501W        W16970   5.991   2.510  14.973 -0.2832  0.1626  0.3035
 1502W        W16971   0.602   2.986  10.286 -0.0809 -0.0996 -0.3537
 1503W        W16972   3.917   9.238  14.092  0.1623  0.1780 -0.0032
 1504W        W16973  15.250  11.560  12.732  0.1544 -0.1067 -0.1306
 1505W        W16974  13.212  17.494  14.719  0.3376  0.2545 -0.2380
 1506W        W16975  11.779  14.943  12.010  0.1008  0.4250 -0.7427
 1507W        W16976  17.567   4.199   4.151  0.1468 -0.1114 -0.2468
 1508W        W16977  10.402   5.709   1.300 -0.2031 -0.0288 -0.1289
 1509W        W16978  15.476  12.382   4.488 -0.1920 -0.1644 -0.0571
 1510W        W16979   3.711  15.971  12.226 -0.0016 -0.0958  0.2689
 1511W        W16980  10.594  16.793  13.918 -0.1170  0.0877 -0.1327
 1512W        W16981  16.821  10.475   4.724 -0.2404 -0.0105  0.4984
 1513W        W16982   3.416  16.388   0.355 -0.0413 -0.2267  0.3938
 1514W        W16983   0.847  18.831   0.335  0.1259 -0.0429  0.1037
 1515W        W16984  14.231  12.880  11.119  0.3074  0.0077 -0.1263
 1516W        W16985   4.621   9.013   4.136 -0.2254  0.2411  0.0104
 1517W        W16986   8.662   0.915   0.364  0.0317  0.0538  0.2931
 1518W        W16987   6.910   7.753   2.780 -0.2206  0.4134  0.0172
 1519W        W16988  17.383   3.411  13.393  0.2528  0.1279  0.1481
 1520W        W16989   0.702  10.860  13.206 -0.1600  0.4869  0.0962
 1521W        W16990   7.619   2.185  10.550  0.0852 -0.1714  0.0826
 1522W        W16991  12.974  17.812  10.452 -0.1872  0.1862  0.0541
 1523W        W16992   3.996   3.488  12.102  0.1197  0.0724  0.0870
 1524W        W16993   2.034  15.761   4.462  0.0896 -0.2639 -0.0596
 1525W        W16994   2.999  18.986  14.404 -0.2691  0.1714 -0.0456
 1526W        W16995   3.358  13.863   3.516  0.0119  0.0863  0.1571
 1527W        W16996   3.349  12.862  11.386  0.1934 -0.1656 -0.0018
 1528W        W16997  17.528   9.685  14.049 -0.1511  0.0850  0.2184
 1529W        W16998  10.033   8.147  15.006  0.0829 -0.2937  0.3046
 1530W        W16999   5.248   2.453  12.173 -0.2921  0.1273  0.0327
 1531W        W17000  15.773   5.434  15.034 -0.0325  0.1209  0.2008
 1532W        W17001   6.214   7.393   0.791  0.3990  0.1470  0.3496
 1533W        W17002  10.262  12.955   0.846 -0.4576 -0.5250  0.0251
 1534W        W17003  17.637   2.608  13.427  0.1476 -0.2534 -0.3338
 1535W        W17004  17.579   1.739  13.251 -0.1098  0.0932 -0.0867
 1536W        W17005   1.973   8.177   0.608  0.1658  0.0619  0.1728
 1537W        W17006   8.996  13.326  10.767  0.1776  0.0282  0.2969
 1538W        W17007   0.966  10.895  10.214 -0.1047  0.1252  0.3433
 1539W        W17008   4.489   6.372   4.762  0.3253 -0.0223  0.0735
 1540W        W17009   3.173   2.439  12.291  0.2700 -0.1190 -0.1940
 1541W        W17010   1.249   3.817   1.405 -0.1638  0.2249 -0.0680
 1542W        W17011   6.742   3.551  10.978 -0.3629  0.3474  0.4132
 1543W        W17012  11.553  10.418   2.027 -0.2714  0.0350 -0.2139
 1544W        W17013  18.722   6.944  12.810  0.0168 -0.1908 -0.0215
 1545W        W17014   5.817   6.462  14.567 -0.1668 -0.0107 -0.1236
 1546W        W17015  17.220  18.159   0.435 -0.1149  0.3019  0.2879
 1547W        W17016   6.416  17.403   2.451  0.2522  0.1309  0.1070
 1548W        W17017   9.460   4.016   1.749  0.2395 -0.3370  0.4311
 1549W        W17018   1.749  17.733   2.470 -0.1243  0.0630 -0.3014
 1550W        W17019  12.666   9.166   4.189  0.1887  0.1142  0.1997
 1551W        W17020   6.622  12.807   1.739 -0.0368  0.0439 -0.1503
 1552W        W17021  11.933  18.669   2.999 -0.0604 -0.1617  0.1070
 1553W        W17022  18.628   6.508   4.524 -0.0593  0.1487 -0.1480
 1554W        W17023   1.607   3.563  11.043  0.0386  0.0129 -0.1545
 1555W        W17024  11.078   0.910   3.536 -0.1129 -0.1296  0.3890
 1556W        W17025  11.817   0.089   5.077 -0.3848 -0.0249  0.0974
 1557W        W17026  16.126   5.969  12.557  0.0103  0.1164  0.1385
 1558W        W17027  13.461  17.542   2.062  0.0760  0.0280 -0.3465
 1559W        W17028   7.819   2.641  14.725 -0.4712  0.1564 -0.0317
 1560W        W17029   9.467  16.955   1.493  0.1210  0.2091 -0.2137
 1561W        W17030   5.874  14.203   3.337  0.1000  0.2717  0.0031
 1562W        W17031   1.445   8.556   1.632 -0.1823 -0.0462 -0.2719
 1563W        W17032  18.644  17.486   2.264 -0.1212  0.0679  0.1412
 1564W        W17033   0.804  14.624   1.015 -0.0062 -0.0292 -0.0533
 1565W        W17034  14.123   2.946  12.757 -0.1868 -0.1155 -0.0960
 1566W        W17035   0.686  12.647  14.259  0.3855 -0.1132 -0.1284
 1567W        W17036   6.761   1.669   3.818 -0.1831 -0.0144  0.1819
 1568W        W17037   0.450  14.255  11.828 -0.0667 -0.1552 -0.0018
 1569W        W17038  13.530   3.511   4.556  0.1328  0.1017  0.2981
 1570W        W17039   8.354   1.416  13.382 -0.1456  0.1059  0.1052
 1571W        W17040   9.289  13.270   2.332  0.1799  0.0342 -0.5577
 1572W        W17041  14.273  10.069  11.182  0.2428  0.1336 -0.0176
 1573W        W17042   2.775  13.309   5.295  0.3486  0.0582 -0.5072
 1574W        W17043   1.815  14.219  11.570 -0.2291 -0.0638  0.2035
 1575W        W17044   2.302  10.620  12.919  0.1353 -0.1105 -0.0943
 1576W        W17045   4.422   4.808  14.088  0.0812 -0.1655 -0.0479
 1577W        W17046  16.179   8.687   2.148 -0.1174 -0.0932  0.1578
 1578W        W17047   5.955   2.016   0.478 -0.2528 -0.1947  0.0071
 1579W        W17048   7.065  11.761  11.896  0.2784 -0.0455 -0.3617
 1580W        W17049  11.125  19.020   1.061 -0.1176 -0.0572  0.0892
 1581W        W17050   5.923  18.078  11.929  0.1423  0.0006  0.0817
 1582W        W17051  13.050   2.993   2.106  0.0964  0.2471  0.0706
 1583W        W17052  15.475   7.413  13.903  0.2849  0.1147  0.0167
 1584W        W17053  13.813   6.460   4.420 -0.0728  0.3465  0.4094
 1585W        W17054  10.143   2.977  14.751 -0.1187 -0.2480  0.4433
 1586W        W17055  14.194   7.609   3.175  0.1230  0.2182  0.1590
 1587W        W17056  11.544   1.825   6.023 -0.3816  0.0831  0.2248
 1588W        W17057  15.465  15.893  12.495  0.1594 -0.0821  0.0914
 1589W        W17058   8.490   9.046  10.749 -0.2604 -0.0024 -0.3633
 1590W        W17059  15.677  12.337   4.024  0.1345 -0.0224 -0.0876
 1591W        W17060   4.819   7.237   0.820  0.0251 -0.0112  0.0229
 1592W        W17061   3.353   4.181   1.663 -0.0565  0.0368 -0.0175
 1593W        W17062   5.093   9.545  14.267 -0.1773  0.1903 -0.2017
 1594W        W17063   6.538   2.660   5.177 -0.5238 -0.1404 -0.2458
 1595W        W17064  15.726   5.335   0.207  0.0619  0.1693  0.0223
 1596W        W17065   1.341   3.111   4.230 -0.0502 -0.0453  0.0228
 1597W        W17066  13.321  15.933   4.462 -0.2174 -0.2758 -0.2117
 1598W        W17067  12.857  12.577  13.629 -0.0496 -0.2370  0.0339
 1599W        W17068  11.546   6.639  11.049 -0.0329  0.2954  0.1589
 1600W        W17069   8.952  16.894   0.602  0.1158  0.0698 -0.1326
 1601W        W17070  18.841  15.782   3.212 -0.5188 -0.0650 -0.1235
 1602W        W17071  18.283   1.817   4.666  0.1580 -0.0496 -0.0371
 1603W        W17072   1.557   2.847   2.206 -0.1186  0.1004 -0.0393
 1604W        W17073   9.347   2.293  11.644  0.0161 -0.1279  0.0941
 1605W        W17074  14.129  12.651  11.609  0.0246  0.2298  0.0581
 1606W        W17075  18.457   9.134   1.360  0.0228 -0.0633  0.3049
 1607W        W17076   5.503  12.920  13.608  0.0372 -0.3343  0.0341
 1608W        W17077  15.270  10.528   2.744 -0.0846 -0.1484  0.1944
 1609W        W17078  11.656  14.452  13.942 -0.2689  0.2286  0.0487
 1610W        W17079   5.683   2.262   2.565 -0.0328 -0.1639  0.1998
 1611W        W17080   5.747  12.216  11.977 -0.3184 -0.0397  0.0054
 1612W        W17081  18.601   7.435  13.200 -0.1820  0.3657  0.0396
 1613W        W17082  13.492  14.158   4.226 -0.0042  0.4961  0.1997
 1614W        W17083   9.216  12.071   3.970  0.2720 -0.0404  0.1163
 1615W        W17084   3.795   2.263   4.267  0.2416 -0.1500  0.1692
 1616W        W17085  17.899   5.621   9.982 -0.0186 -0.0859 -0.1492
 1617W        W17086  14.180   1.407   0.790 -0.2522 -0.2157 -0.1703
 1618W        W17087  11.141  15.894  11.260  0.4452  0.0030 -0.2128
 1619W        W17088   4.977   9.937  10.870  0.0183  0.0969  0.3634
 1620W        W17089  12.829  14.742   1.802  0.1478 -0.0968  0.2839
 1621W        W17090   8.080   4.676   0.430 -0.2946 -0.0451 -0.2662
 1622W        W17091  15.110   3.495  10.550 -0.0230  0.1460  0.0510
 1623W        W17092   1.765   4.156   2.236  0.1152  0.0110 -0.3272
 1624W        W17093   2.508  10.869   4.193 -0.5053 -0.1598 -0.2873
 1625W        W17094  10.733  14.742  13.199  0.0791 -0.2531 -0.0473
 1626W        W17095  13.608  17.158   0.967 -0.2854  0.0987  0.0072
 1627W        W17096   7.329   2.213   2.158  0.0968  0.1768  0.2903
 1628W        W17097  17.913  13.158  15.018 -0.0665 -0.1611  0.1732
 1629W        W17098   9.308  16.616  13.784  0.0546 -0.1484 -0.1057
 1630W        W17099  10.988   6.545  15.048 -0.1797  0.0856 -0.1671
 1631W        W17100   2.386   5.714   0.356 -0.1175 -0.1308 -0.1659
 1632W        W17101   7.287  16.312   3.920  0.1739 -0.1710  0.1057
 1633W        W17102   9.761   9.737   0.564  0.0413  0.1067  0.1733
 1634W        W17103  11.386  13.073   4.216 -0.1281 -0.2441 -0.0041
 1635W        W17104  18.177   1.068  13.677 -0.3040 -0.0828 -0.0473
 1636W        W17105   8.574   2.710  15.138  0.0778 -0.1308  0.1728
 1637W        W17106  17.233  13.124  12.486  0.1531 -0.0378 -0.0366
 1638W        W17107   1.065   1.320   1.313 -0.1948 -0.1660  0.0180
 1639W        W17108   6.977   1.856   2.409  0.0380 -0.0842  0.0157
 1640W        W17109   0.592  13.958   0.369 -0.4693 -0.3081 -0.1843
 1641W        W17110   7.721   2.250   3.171 -0.0020 -0.1783 -0.0300
 1642W        W17111  15.534   3.676  13.569 -0.0902  0.1659 -0.2101
 1643W        W17112   2.543   9.162  12.231 -0.1508 -0.4323 -0.0868
 1644W        W17113   1.151  13.026   2.949 -0.0749 -0.2264  0.1520
 1645W        W17114  18.332  10.748   3.415 -0.2073 -0.1424  0.0114
 1646W        W17115   7.386  15.710  12.401 -0.0111  0.0034 -0.0005
 1647W        W17116   4.900  15.747  15.357  0.0452  0.0277 -0.1508
 1648W        W17117  13.662  17.982   4.620  0.3045 -0.1143  0.0756
 1649W        W17118   4.768   4.926   5.544 -0.0961  0.0947  0.2680
 1650W        W17119   3.534  17.758   2.745 -0.0030 -0.0986 -0.0095
 1651W        W17120   1.392  16.263   5.067 -0.0483 -0.0650 -0.1283
 1652W        W17121  18.902   2.091  12.952 -0.2166 -0.1167  0.1005
 1653W        W17122   7.503  11.505   5.119 -0.0684 -0.1025  0.2098
 1654W        W17123  17.589   7.582   1.395 -0.0277  0.1237 -0.0670
 1655W        W17124   4.607   2.418   4.400 -0.2336 -0.1033  0.2962
 1656W        W17125  17.863  17.126  12.351  0.2514  0.2052  0.1036
 1657W        W17126  10.183  10.231  12.933 -0.0372 -0.0813  0.0547
 1658W        W17127   8.249   9.497   1.080  0.0615  0.0993 -0.1478
 1659W        W17128   5.595   4.339   9.631  0.2593 -0.4515 -0.0254
 1660W        W17129  17.778   6.474   4.999 -0.2226 -0.1735  0.5428
 1661W        W17130   1.169  16.176   3.676  0.0631  0.0062  0.0590
 1662W        W17131   9.039  13.920   0.019 -0.1801 -0.0524 -0.1183
 1663W        W17132   1.378  12.572   1.730 -0.1820 -0.0288 -0.0607
 1664W        W17133  13.800  12.621  10.327 -0.0210  0.0125 -0.2300
 1665W        W17134   4.728   9.460   4.912  0.1249 -0.3104 -0.0513
 1666W        W17135  10.119   5.703  15.172 -0.0882  0.0230  0.1872
 1667W        W17136  10.785   8.469   4.891 -0.0787 -0.1915 -0.2084
 1668W        W17137   3.213  14.132   0.202  0.1269 -0.0585  0.1152
 1669W        W17138  17.203  15.421   5.782 -0.0263 -0.2040 -0.3613
 1670W        W17139  18.710  13.846  11.776 -0.0622 -0.0978 -0.0755
 1671W        W17140  18.075   8.904   9.768  0.0115  0.0107 -0.0127
 1672W        W17141   7.232  17.474  14.297 -0.0798 -0.2408  0.0896
 1673W        W17142   1.007  15.681  14.770  0.0968  0.0697 -0.1576
 1674W        W17143  15.123   8.297   4.757 -0.1690  0.0709 -0.2172
 1675W        W17144   4.928  16.859   3.390  0.0984 -0.2911  0.1057
 1676W        W17145   2.986   1.467   2.586  0.0716 -0.0808  0.3614
 1677W        W17146   7.720   0.955  11.688  0.3520  0.0985  0.1146
 1678W        W17147   2.549  14.761   4.276 -0.2626 -0.0366 -0.2450
 1679W        W17148  14.354  16.277  10.594 -0.3090  0.0861  0.0665
 1680W        W17149   0.207   3.760  12.011 -0.0758 -0.0638 -0.1307
 1681W        W17150  11.862  17.805   3.554 -0.0004  0.0836 -0.2215
 1682W        W17151  10.103  15.625  10.815  0.1438  0.1155 -0.0746
 1683W        W17152  17.878   7.192  13.675  0.0421 -0.0832 -0.0342
 1684W        W17153   9.773   4.874  12.600 -0.4046  0.1079  0.0244
 1685W        W17154  17.961  15.786   3.080  0.2539  0.1057 -0.0450
 1686W        W17155  14.251   3.421  10.867 -0.2237 -0.0059 -0.0040
 1687W        W17156  16.908  16.434  13.102  0.0318 -0.0594 -0.2345
 1688W        W17157  15.968   0.010   3.705  0.1737 -0.0857  0.0615
 1689W        W17158  10.266  14.605  13.205 -0.0562 -0.1018  0.1042
 1690W        W17159   6.177  15.213   2.482  0.1151  0.1732 -0.2505
 1691W        W17160   0.980  16.140  12.783 -0.0914  0.0073 -0.7342
 1692W        W17161  16.962   6.762   2.983  0.0729  0.1387 -0.3303
 1693W        W17162   1.000  12.210  14.907 -0.1346 -0.2293 -0.2928
 1694W        W17163  11.515  18.063   4.536  0.1900  0.2234  0.0130
 1695W        W17164   5.327   5.009  14.129 -0.0258  0.0969  0.1984
 1696W        W17165   0.351  17.457   1.709 -0.0136 -0.0393 -0.0773
 1697W        W17166   6.619  13.424  11.921 -0.0629 -0.0415  0.1529
 1698W        W17167   5.188  12.362  11.827 -0.1130  0.2070  0.4120
 1699W        W17168  13.938   5.134   2.116  0.3258 -0.0585  0.2404
 1700W        W17169  10.201   6.882   2.480 -0.0405  0.0212  0.2618
 1701W        W17170  11.360   6.979  11.412 -0.2917  0.0193 -0.3241
 1702W        W17171   4.447   3.553   5.274  0.0852 -0.1704  0.2321
 1703W        W17172  13.411  15.734   3.536  0.3173  0.1728  0.0170
 1704W        W17173   3.629   7.054   0.379  0.0089 -0.0833  0.1991
 1705W        W17174  15.228   8.638  12.566  0.1472  0.2220  0.1829
 1706W        W17175   6.778   0.522   0.661  0.2397  0.2862 -0.1186
 1707W        W17176  13.388   9.526  14.210  0.1422  0.1549 -0.0399
 1708W        W17177  17.860   8.974  12.787  0.0959  0.1123  0.0790
 1709W        W17178   0.036   3.542   5.307 -0.3125 -0.1363 -0.4563
 1710W        W17179  10.053   8.405  10.403  0.0984  0.4261  0.3787
 1711W        W17180   7.133  10.951   4.257  0.0846 -0.2979  0.2914
 1712W        W17181  10.014   8.283   3.974  0.0004 -0.1155 -0.0011
 1713W        W17182   4.704  11.889   2.134 -0.0781  0.1659 -0.0063
 1714W        W17183   8.508  13.021   9.531  0.0251  0.0717 -0.1044
 1715W        W17184   5.719  17.708  14.790  0.0645  0.0620 -0.1300
 1716W        W17185   7.995  12.090  11.881 -0.0843 -0.0792  0.2178
 1717W        W17186  17.152   6.416   5.718 -0.1602 -0.4455 -0.0789
 1718W        W17187  14.316  14.753   1.855  0.4781 -0.0051  0.2572
 1719W        W17188  11.902   1.569  13.892  0.1591 -0.0250 -0.0223
 1720W        W17189   7.785   1.236   1.946 -0.2572  0.1571  0.1262
 1721W        W17190   1.761  14.773   0.853 -0.0096 -0.1035  0.1029
 1722W        W17191  18.715   6.829   5.118 -0.4496  0.1876 -0.3542
 1723W        W17192   3.943   3.876   5.118 -0.2150 -0.1509 -0.3284
 1724W        W17193  17.154  14.581   5.221  0.0206  0.0306  0.0606
 1725W        W17194   3.536  17.989  14.891  0.1602  0.0729 -0.0671
 1726W        W17195   8.440  11.153  12.873  0.0519  0.1752  0.0640
 1727W        W17196  11.471   2.062  10.114  0.0804  0.0511 -0.2394
 1728W        W17197  17.894  16.267   4.071 -0.1200  0.0012 -0.1091
 1729W        W17198   3.190   6.503  14.545  0.2417 -0.0171 -0.2719
 1730W        W17199  18.846  17.022  14.968  0.0216  0.2648 -0.1644
 1731W        W17200   6.504   2.797   0.905  0.0465 -0.2198 -0.1775
 1732W        W17201  17.476  10.763  10.385 -0.0396 -0.0099 -0.0273
 1733W        W17202   6.412  16.983   5.941 -0.0539  0.0060  0.3507
 1734W        W17203   8.212   8.400  14.253  0.1862 -0.1910 -0.1218
 1735W        W17204  15.277   5.272  13.336  0.2956  0.1684  0.4131
 1736W        W17205   2.993   9.907   4.097 -0.0473  0.3999  0.3820
 1737W        W17206  13.818   8.742   4.018 -0.0840  0.1308  0.2160
 1738W        W17207  12.094  17.091   1.002  0.0834  0.2315 -0.2430
 1739W        W17208  14.066   9.566  10.372  0.0691 -0.1345 -0.1345
 1740W        W17209   8.294   8.036   4.521 -0.5291 -0.0109  0.1521
 1741W        W17210  18.531   8.325  12.872  0.0774 -0.1050 -0.1446
 1742W        W17211  17.951  14.105   1.616 -0.0757  0.0874  0.0044
 1743W        W17212   2.879   2.951  14.676  0.2686 -0.0670  0.1771
 1744W        W17213   9.131  17.926   4.965  0.1206  0.2890 -0.3584
 1745W        W17214  16.040   8.976  14.876  0.2223  0.3488 -0.2518
 1746W        W17215  16.575  11.217  15.311 -0.4045 -0.0242 -0.0468
 1747W        W17216   8.363   3.145   2.447  0.1683  0.1405  0.1838
 1748W        W17217  18.086  18.160  13.722 -0.2715 -0.0768 -0.0168
 1749W        W17218   5.036  18.364   4.310 -0.4167  0.3052  0.0304
 1750W        W17219  18.159   8.147  10.912 -0.1908 -0.3438 -0.2189
 1751W        W17220   8.536  18.054  11.557 -0.1973  0.1320 -0.0616
 1752W        W17221   7.782  18.701   0.583  0.1192 -0.2649  0.1509
 1753W        W17222  18.110   0.691   4.415  0.3349 -0.0956 -0.2820
 1754W        W17223  16.520  17.257  13.453 -0.1784 -0.3907 -0.0623
 1755W        W17224  16.819  16.392   4.253  0.0931 -0.4049  0.2364
 1756W        W17225  13.938   4.113   4.762 -0.1835  0.0327  0.0458
 1757W        W17226   3.854   7.468   0.845 -0.3166  0.1061 -0.0572
 1758W        W17227   0.653   2.887   1.834  0.0665  0.0549  0.2348
 1759W        W17228  11.349  16.749   9.689  0.0500  0.2927 -0.0240
 1760W        W17229   8.590  14.188  10.960 -0.2970 -0.3032  0.0406
 1761W        W17230  15.814   8.942   2.419  0.1754  0.3359  0.1199
 1762W        W17231  18.187  12.946  12.326 -0.2487 -0.2111 -0.0889
 1763W        W17232  15.262   7.545  14.405  0.0116 -0.1057  0.0051
 1764W        W17233   8.448   0.801   1.379  0.3105  0.1728 -0.0616
 1765W        W17234   3.413  16.604   3.028 -0.4866  0.0852 -0.0633
 1766W        W17235   2.452   7.450  11.284 -0.1277  0.0550  0.0677
 1767W        W17236   1.021   5.616  14.579 -0.0263 -0.1657 -0.1965
 1768W        W17237  11.565  12.818   2.964  0.1704 -0.2876 -0.1724
 1769W        W17238   7.901   1.406   2.631 -0.0090  0.0169 -0.0015
 1770W        W17239   7.947   3.655   0.663 -0.1313  0.1572  0.1971
 1771W        W17240  14.755   3.565   3.508  0.1386 -0.4333  0.0013
 1772W        W17241  11.884  15.782  15.029 -0.1285 -0.0772 -0.2113
 1773W        W17242  15.636  16.437  11.422  0.0358  0.0161  0.0166
 1774W        W17243   7.357   3.383   0.943 -0.3261 -0.0401 -0.0565
 1775W        W17244  13.644  10.878  15.155 -0.0875 -0.0959  0.1931
 1776W        W17245   4.708   0.640   3.859  0.1286  0.3560 -0.1591
 1777W        W17246  18.908  12.039   1.092 -0.2250 -0.2223 -0.0669
 1778W        W17247   0.362  14.284  13.498 -0.1395 -0.0170 -0.0960
 1779W        W17248   7.734  18.420   4.670  0.3059 -0.0061 -0.0858
 1780W        W17249  17.224  18.489   1.797  0.2811 -0.4942  0.1417
 1781W        W17250  11.520  10.011  14.677  0.1112 -0.2057  0.0436
 1782W        W17251  14.336   4.467   4.550 -0.0421  0.0331  0.1711
 1783W        W17252   9.425   2.942   1.892  0.4578 -0.3716  0.1000
 1784W        W17253   9.481  10.093  10.783  0.3349  0.0790  0.1426
 1785W        W17254   7.850  17.852  10.136  0.0719  0.1287  0.0387
 1786W        W17255  10.995   5.219  13.821  0.1930 -0.0281  0.1080
 1787W        W17256   8.740   4.607  10.886  0.2764 -0.0336 -0.0177
 1788W        W17257  12.292  11.596   5.168 -0.3855  0.2805 -0.1282
 1789W        W17258   4.160   9.398   3.963  0.1205 -0.1467  0.1064
 1790W        W17259   5.076   1.886  13.047  0.1501 -0.2517 -0.1101
 1791W        W17260   0.059   4.211  11.655  0.0941  0.3395 -0.1016
 1792W        W17261   6.468  17.090  14.809  0.1633 -0.1411 -0.1126
 1793W        W17262   4.066   4.418   0.056 -0.1347 -0.2547 -0.0672
 1794W        W17263   4.415   2.377  13.685 -0.1109 -0.0259 -0.1574
 1795W        W17264   3.399   3.385   4.104 -0.2983  0.3403 -0.0206
 1796W        W17265   4.460   8.468  12.031  0.3320  0.2057  0.0404
 1797W        W17266  12.185  18.906   1.477 -0.3301 -0.3247  0.0571
 1798W        W17267  14.567   3.895  12.356 -0.0615 -0.0716  0.0821
 1799W        W17268  11.123   3.360  13.670  0.1981  0.0869 -0.4205
 1800W        W17269   2.603  10.539   4.594  0.0527 -0.2449  0.0673
 1801W        W17270  13.728   9.315  10.747 -0.2222 -0.0199 -0.1159
 1802W        W17271  11.847   0.453   0.029  0.1745 -0.0140 -0.4398
 1803W        W17272  16.005   4.247  12.009  0.4307  0.1585 -0.2259
 1804W        W17273   0.201  11.199  13.468 -0.2591  0.3224 -0.2312
 1805W        W17274  16.825   1.010  15.133  0.3742  0.1238  0.0703
 1806W        W17275  13.487   8.077  12.485 -0.0472 -0.2200  0.2833
 1807W        W17276  12.892   8.977  11.887 -0.1478 -0.0108  0.3193
 1808W        W17277  13.666   3.137   3.432 -0.1173 -0.0931  0.2292
 1809W        W17278   5.546  11.953   9.770  0.2536 -0.2373  0.1008
 1810W        W17279   5.141   3.080   3.530  0.0241 -0.1733 -0.0373
 1811W        W17280   6.720  16.416   4.635 -0.1581 -0.1828 -0.0309
 1812W        W17281  13.988  14.062  12.368 -0.1204  0.2479  0.0248
 1813W        W17282  12.639  16.016  10.010 -0.1408  0.2539 -0.1183
 1814W        W17283  16.288  12.039   2.097  0.1049  0.2380 -0.2208
 1815W        W17284  13.784   7.586  11.154  0.2326  0.1664  0.1471
 1816W        W17285  15.898   0.526   0.735 -0.1396 -0.0032  0.2794
 1817W        W17286   1.806   0.389   9.245  0.2201  0.0719 -0.2126
 1818W        W17287   8.892   6.733   5.340 -0.0164  0.0230 -0.1173
 1819W        W17288   9.402   4.918   3.545  0.0311  0.1262  0.2428
 1820W        W17289  12.588   5.985  10.937  0.0525  0.1402  0.4570
 1821W        W17290   7.058  12.898   2.438 -0.3296 -0.0604 -0.1350
 1822W        W17291   2.717   3.834  10.159 -0.1726 -0.2491  0.1861
 1823W        W17292  18.349   2.053  10.830  0.0081 -0.3488 -0.0840
 1824W        W17293   5.872   0.657  14.712 -0.1609  0.1722 -0.1241
 1825W        W17294   3.191  12.879  13.563  0.0489 -0.1777  0.1344
 1826W        W17295   2.109   7.249   9.967 -0.0264  0.0125  0.0939
 1827W        W17296   0.017   8.679  13.502 -0.1736  0.4859 -0.0766
 1828W        W17297   4.920   9.492  12.268 -0.4509 -0.2622 -0.0790
 1829W        W17298   4.674   4.921  12.444 -0.0623  0.0706 -0.1382
 1830W        W17299   9.201   5.119   3.126  0.0538  0.3681 -0.0419
 1831W        W17300  12.832  10.395   1.438  0.0677 -0.1305 -0.0230
 1832W        W17301  13.600   8.584   2.480  0.1370 -0.0130  0.0741
 1833W        W17302  16.914   9.091  14.575 -0.1032  0.1620 -0.0569
 1834W        W17303   0.698   5.505   3.596 -0.2257  0.3213  0.0845
 1835W        W17304   1.261   9.216   0.630  0.0315 -0.0345  0.0123
 1836W        W17305  16.081  13.700  12.765  0.2532  0.2204  0.1857
 1837W        W17306  10.008   8.845  12.686 -0.1811 -0.0204  0.0956
 1838W        W17307   5.428  18.086   2.850 -0.2001 -0.2579 -0.0676
 1839W        W17308   4.058   4.351  11.207 -0.4647  0.1897 -0.1785
 1840W        W17309  15.696   5.192  14.505  0.1009 -0.0486 -0.1154
 1841W        W17310   4.434  11.263  13.002 -0.0153 -0.0063 -0.1174
 1842W        W17311  16.856   7.784   1.302  0.0263 -0.1648  0.0373
 1843W        W17312   3.961   2.189  14.106 -0.1092 -0.3651 -0.2169
 1844W        W17313   8.804   7.283   2.170 -0.0286  0.0947  0.0518
 1845W        W17314   7.265  15.783  14.210  0.2069 -0.0738  0.2284
 1846W        W17315   9.445  11.535   5.647  0.0748 -0.1059  0.1510
 1847W        W17316   6.656  11.867  13.844  0.2990 -0.0982  0.0775
 1848W        W17317   4.676   5.719  15.349  0.2205 -0.4489  0.0462
 1849W        W17318  17.224  13.141  11.570  0.4179  0.0853  0.1559
 1850W        W17319   1.683   9.570   5.202 -0.0245  0.0793  0.0137
 1851W        W17320   0.165  18.202  11.236  0.1270  0.1307 -0.0255
 1852W        W17321   5.411   8.144  14.137  0.1252 -0.4038  0.2802
 1853W        W17322   6.387  10.258   1.858 -0.0541  0.1716  0.3242
 1854W        W17323  14.173   7.413   3.966  0.0497  0.1608 -0.1620
 1855W        W17324   2.960   1.415   0.578 -0.0407  0.1048 -0.3365
 1856W        W17325   4.417  15.033  12.290  0.0226 -0.3522  0.1741
 1857W        W17326   0.934   3.319   1.860  0.0234 -0.1930  0.2160
 1858W        W17327  12.673   2.044   0.042 -0.0211  0.2693  0.0757
 1859W        W17328   7.720   3.044   3.358  0.1374 -0.2398  0.1385
 1860W        W17329  15.315  17.831   2.920 -0.1223  0.0725 -0.0983
 1861W        W17330  12.444   6.264  12.364 -0.5313 -0.2053  0.0694
 1862W        W17331   9.485   3.488   5.552 -0.3375 -0.1269 -0.1266
 1863W        W17332  18.972  13.479  15.097  0.0741  0.0638  0.1281
 1864W        W17333   2.843   4.927  11.439 -0.0351  0.1883 -0.0015
 1865W        W17334   9.430   6.587  12.162 -0.0835  0.1532 -0.2321
 1866W        W17335   7.692  17.672   3.490 -0.0892  0.1606 -0.0444
 1867W        W17336  14.985  11.363  13.121 -0.3035 -0.0265  0.0690
 1868W        W17337  14.424   2.697  15.292 -0.1233 -0.0109  0.2637
 1869W        W17338   1.201   0.351  11.964  0.1123  0.2081  0.1164
 1870W        W17339   7.579   8.164   3.511  0.4224  0.0697  0.2565
 1871W        W17340  15.579   3.223   3.802  0.2592  0.0175 -0.2681
 1872W        W17341   6.515   0.722   5.772 -0.1900 -0.1368  0.0589
 1873W        W17342  17.690   8.773   2.367 -0.1051  0.0911 -0.0302
 1874W        W17343  14.757  14.286   1.301 -0.1990 -0.3353  0.0542
 1875W        W17344  18.624  13.501   0.899  0.1717 -0.0682 -0.0842
 1876W        W17345   1.253   0.151  13.168  0.2847 -0.0578 -0.0668
 1877W        W17346   9.780   9.476   2.441 -0.0935  0.0144 -0.0335
 1878W        W17347   9.564   4.696   4.526  0.0879  0.1441 -0.0514
 1879W        W17348   2.912  16.715   9.585 -0.1095  0.0933  0.0945
 1880W        W17349  10.908  14.214   1.206  0.1489 -0.1227  0.1023
 1881W        W17350  13.103   7.461  13.098  0.3057  0.0869 -0.0196
 1882W        W17351  17.260   8.365   0.397 -0.1598 -0.0008  0.3284
 1883W        W17352  10.789  17.279  12.802  0.0547 -0.3202 -0.1902
 1884W        W17353  11.741   9.391   4.614 -0.0070 -0.1567 -0.3527
 1885W        W17354   6.916  10.247  13.557  0.2252  0.2016 -0.1898
 1886W        W17355  14.652   5.644  14.250 -0.2852 -0.0146  0.2358
 1887W        W17356   1.423  13.220   3.813 -0.0202  0.0837  0.4364
 1888W        W17357   4.021   5.824   1.615 -0.3272  0.0955  0.4980
 1889W        W17358   6.862  13.219   3.111  0.0987  0.0056 -0.2319
 1890W        W17359   0.941   8.336  11.554  0.1525 -0.1555 -0.0305
 1891W        W17360  11.998  16.732  13.424  0.0746 -0.0707 -0.1184
 1892W        W17361  14.469  12.710  10.756  0.2045  0.0738  0.1480
 1893W        W17362  13.015   9.680  13.106 -0.2536  0.1953  0.2606
 1894W        W17363   5.685   0.452  14.048 -0.1273 -0.2678 -0.0972
 1895W        W17364  15.926  15.989  11.477 -0.1354  0.3347 -0.0314
 1896W        W17365  13.427  16.401  14.158  0.0220 -0.1802 -0.2534
 1897W        W17366  18.172   2.188   2.522 -0.0905 -0.1805  0.2437
 1898W        W17367   5.853  10.242  10.623 -0.2379 -0.1658  0.0092
 1899W        W17368   4.578  18.916  12.073  0.0538  0.1557 -0.0215
 1900W        W17369  11.682  12.936   5.286 -0.2329  0.1492 -0.1496
 1901W        W17370  17.778  17.199   1.624  0.3265 -0.0873  0.0233
 1902W        W17371   0.484   3.495  11.715 -0.0836 -0.1555  0.0636
 1903W        W17372   5.936  12.092   4.953 -0.2183 -0.1749  0.0639
 1904W        W17373   3.517  13.109   2.362 -0.1500  0.0172  0.0519
 1905W        W17374  17.602   9.790  12.046  0.0324  0.0627 -0.1186
 1906W        W17375  14.158  17.445   3.309  0.1333  0.3932  0.0155
 1907W        W17376   2.499   0.090   3.545 -0.2903  0.0183  0.0804
 1908W        W17377   3.069   5.769   2.552 -0.0913 -0.3392 -0.0912
 1909W        W17378   9.414  17.389  10.431  0.1493  0.1010  0.1689
 1910W        W17379  17.586   1.423  10.488  0.0402  0.3105  0.1453
 1911W        W17380  17.576   4.604  13.909 -0.2767 -0.2641 -0.0767
 1912W        W17381   7.810   6.230   5.262  0.2493 -0.0600 -0.1900
 1913W        W17382  10.419  10.131   0.197  0.3700  0.0729  0.1101
 1914W        W17383   3.406  16.880   2.409  0.0828  0.0660 -0.2098
 1915W        W17384  11.038  11.940  10.933  0.0155  0.1493 -0.0476
 1916W        W17385   1.607  12.513  11.797 -0.2325  0.0199  0.1778
 1917W        W17386  11.341   9.591   4.852 -0.0997  0.4680 -0.2402
 1918W        W17387  11.201   5.666   1.581 -0.0988  0.2015  0.3322
 1919W        W17388   3.760  14.839   2.684 -0.1996  0.1230  0.1864
 1920W        W17389  11.983   7.345  11.960  0.0181 -0.1024  0.0172
 1921W        W17390   6.570   6.195   4.378 -0.0895  0.0219 -0.0268
 1922W        W17391  15.855   1.331  13.793 -0.1983  0.1598  0.0846
 1923W        W17392   4.982   6.707   1.312  0.2435  0.0029  0.3264
 1924W        W17393   4.927  17.728  14.632 -0.0358  0.2611 -0.0870
 1925W        W17394   0.754   3.519   4.893 -0.0778 -0.1034  0.1065
 1926W        W17395   2.402   6.509   3.553  0.1274  0.0446 -0.1875
 1927W        W17396  15.123  12.480  13.166  0.0282 -0.0166 -0.0221
 1928W        W17397  16.032   6.033  11.409  0.1656  0.0758  0.0843
 1929W        W17398  13.699  18.651   0.546 -0.2033  0.1738 -0.1833
 1930W        W17399   9.489  16.703  11.246  0.2510  0.3934 -0.1843
 1931W        W17400  11.029   9.064   0.046 -0.1063 -0.2701 -0.0419
 1932W        W17401   7.862  17.720   4.165  0.3158 -0.0810  0.3546
 1933W        W17402  10.137  10.640  14.745 -0.2519  0.0673  0.0266
 1934W        W17403   3.140  11.481   2.854 -0.0546 -0.1110 -0.2125
 1935W        W17404   0.877  17.094   2.369 -0.0928  0.2721  0.3607
 1936W        W17405   0.301  17.143  14.811  0.1201 -0.1399  0.0040
 1937W        W17406  13.284  16.737  12.128 -0.0656 -0.0554  0.0933
 1938W        W17407   4.987   8.487   0.480  0.2137  0.2683 -0.1770
 1939W        W17408   6.385  14.253   1.330 -0.0490 -0.1390 -0.2923
 1940W        W17409  13.835   6.032  14.495  0.0406  0.3180 -0.1857
 1941W        W17410  12.040   8.355  13.498 -0.0594 -0.2919  0.0440
 1942W        W17411  12.023   4.282   3.194  0.1509 -0.2130  0.1011
 1943W        W17412   8.759   2.237   2.187  0.0606  0.1303 -0.3799
 1944W        W17413  16.598   9.102  13.181  0.1790  0.0749 -0.1323
 1945W        W17414   3.631  16.136   2.972  0.0106 -0.0542 -0.0264
 1946W        W17415  15.166  14.408   3.247 -0.1826  0.1088  0.0970
 1947W        W17416   4.095   2.707  11.036 -0.3952 -0.0420 -0.0838
 1948W        W17417  18.673  13.562   3.199 -0.0433 -0.0722  0.1497
 1949W        W17418  11.739  17.369   0.690 -0.0024  0.0131  0.1349
 1950W        W17419   7.596   9.281   0.764  0.2258 -0.1512  0.1384
 1951W        W17420   3.771  17.409   3.112 -0.0215  0.1346  0.0022
 1952W        W17421   5.924   0.199  12.235 -0.0842  0.4310 -0.0362
 1953W        W17422  15.718  13.436   0.156 -0.0230 -0.0907 -0.1157
 1954W        W17423  16.744   7.177  12.666  0.1737 -0.3104  0.0062
 1955W        W17424  14.893  16.784  12.884 -0.4344 -0.0224  0.1424
 1956W        W17425  15.387  13.813  15.182 -0.1564 -0.0235 -0.5650
 1957W        W17426   1.487   8.979  10.459 -0.1148 -0.2422  0.0926
 1958W        W17427  12.173   6.942  15.154 -0.0142 -0.2650  0.3665
 1959W        W17428  12.032  10.515  10.132  0.1055  0.0555  0.1962
 1960W        W17429  15.384   9.533  10.621  0.0030  0.2238 -0.4050
 1961W        W17430   3.179  18.941   5.058  0.0167 -0.0845 -0.0515
 1962W        W17431  14.696   3.179   2.368  0.4617 -0.3615  0.1573
 1963W        W17432   6.811   2.973   2.832  0.0252  0.0963  0.0559
 1964W        W17433  10.805  12.453   3.539 -0.0445  0.0280  0.4418
 1965W        W17434   6.854   3.439  13.895 -0.0849  0.0623  0.1623
 1966W        W17435   3.304   4.418   0.024 -0.1516 -0.2901  0.4190
 1967W        W17436   5.639   6.109   3.217  0.0695  0.1154 -0.2470
 1968W        W17437   4.785   4.259   2.442 -0.1495 -0.1044 -0.0968
 1969W        W17438  15.490  12.934   1.384  0.1064  0.1063 -0.0089
 1970W        W17439  15.714   9.496  14.361  0.1370  0.0434  0.1532
 1971W        W17440  16.551  10.763   4.374  0.0417 -0.0218 -0.0159
 1972W        W17441  12.614  11.325   5.514 -0.0566 -0.0093  0.0188
 1973W        W17442   9.496   5.962   0.033 -0.0749 -0.1912  0.0403
 1974W        W17443  14.881   0.831   2.224  0.0148  0.2005  0.1477
 1975W        W17444  14.766  17.403   2.913 -0.0220  0.1768 -0.0075
 1976W        W17445   5.585   9.254  12.628 -0.1036 -0.0819  0.0508
 1977W        W17446  18.838   3.377  10.670  0.1489 -0.2120 -0.1006
 1978W        W17447  17.867   2.747  14.015 -0.3158  0.4633  0.0583
 1979W        W17448  10.805   4.375   1.295  0.1442  0.3284  0.2597
 1980W        W17449  13.187  15.905  13.529 -0.0010 -0.0181  0.0001
 1981W        W17450   3.505   7.743   5.155 -0.2322  0.2210 -0.0804
 1982W        W17451  17.285   8.741   3.351 -0.2612  0.1025  0.0372
 1983W        W17452   1.887  10.916   2.534 -0.1214  0.0839 -0.0350
 1984W        W17453   4.186   8.003  11.303 -0.0790 -0.4295 -0.2979
 1985W        W17454   7.399  18.506   5.828  0.2228 -0.0714 -0.0161
 1986W        W17455   4.498   1.201   0.661  0.0023  0.0718  0.0748
 1987W        W17456   8.898  10.890   1.617  0.2102  0.2083 -0.5688
 1988W        W17457  18.015   6.741  13.438 -0.1236  0.3261  0.1418
 1989W        W17458   7.227   4.402   2.655 -0.2972  0.0810  0.4076
 1990W        W17459  18.190  17.127  14.959  0.1831  0.1445 -0.2856
 1991W        W17460  12.017   9.348   3.158 -0.2250 -0.1536 -0.1439
 1992W        W17461  10.683  11.715   3.503 -0.2151  0.1503 -0.1195
 1993W        W17462   4.719   0.655  12.828 -0.0096 -0.0300 -0.1408
 1994W        W17463  13.792  13.295   4.792  0.0728 -0.2994  0.0942
 1995W        W17464  11.874  17.361  11.698 -0.1875 -0.1132 -0.2903
 1996W        W17465   5.113  13.768   1.926  0.2846  0.0160 -0.0959
 1997W        W17466  11.742   9.164   0.148  0.0976 -0.1841  0.2387
 1998W        W17467  11.445   2.912   4.056 -0.0659  0.1128 -0.0620
 1999W        W17468  14.556   5.646  10.773 -0.1036 -0.1747 -0.0728
 2000W        W17469   6.574   7.598  11.495  0.1945 -0.1290  0.1233
 2001W        W17470   6.371   5.281   1.630  0.1698 -0.3737 -0.2490
 2002W        W17471   0.024   7.960   4.237 -0.1808 -0.0266  0.1354
 2003W        W17472   8.609   4.608   0.181  0.4229 -0.1091 -0.1747
 2004W        W17473  13.950   8.407  13.153  0.1134  0.1188 -0.0717
 2005W        W17474   0.339   2.879  12.377  0.0065 -0.1048 -0.1210
 2006W        W17475   9.002  12.581   4.477 -0.0594  0.0098  0.1652
 2007W        W17476   5.527  14.624   1.999  0.2838  0.1839  0.0300
 2008W        W17477   9.276   6.026  11.309 -0.1814 -0.1738  0.1845
 2009W        W17478   5.422   2.963  12.320  0.0461  0.0575  0.0020
 2010W        W17479  17.717  17.525   5.047 -0.0932  0.0780  0.0762
 2011W        W17480  18.650  13.274   9.995 -0.1061  0.0266 -0.4051
 2012W        W17481   7.548   7.113  11.739 -0.1999 -0.2129 -0.2805
 2013W        W17482  13.414  11.708  11.262  0.2143  0.0707 -0.0878
 2014W        W17483   5.318   9.895   1.800  0.0321 -0.0940 -0.1233
 2015W        W17484  14.414  10.351  10.786 -0.1780  0.0198  0.0482
 2016W        W17485  17.374  10.629   4.403  0.1048  0.2344 -0.1360
 2017W        W17486   9.642   2.963  11.257  0.2183 -0.1320  0.1871
 2018W        W17487  15.551   4.350   0.652 -0.1509 -0.2471 -0.2859
 2019W        W17488  14.394  16.165   0.116 -0.3490 -0.0675  0.0681
 2020W        W17489   4.746   4.214  14.377 -0.0773  0.3832 -0.0923
 2021W        W17490  11.884  15.279  15.006 -0.0938  0.1724 -0.3619
 2022W        W17491  16.330  18.559   3.914 -0.1052  0.0695  0.2697
 2023W        W17492   4.422  16.124  11.007  0.0141 -0.0826 -0.2027
 2024W        W17493  16.722  17.960   2.809  0.1236 -0.1481  0.0523
 2025W        W17494   3.087   3.650  10.992  0.1885  0.3714  0.2933
 2026W        W17495  18.551  11.410   4.543 -0.5556 -0.4811 -0.1845
 2027W        W17496  16.117  14.021  14.226  0.0282 -0.2105  0.1078
 2028W        W17497  11.899   6.220  10.638 -0.0664  0.3950  0.1203
 2029W        W17498   0.491  14.168  12.954 -0.1056 -0.0262 -0.1244
 2030W        W17499   3.633   4.868   3.504  0.1769 -0.0243  0.4198
 2031W        W17500   3.167   7.898   4.189  0.1586  0.4087  0.3132
 2032W        W17501   6.367   9.827   2.852 -0.1807 -0.1169 -0.3487
 2033W        W17502   0.632  11.204   2.824  0.2015 -0.0395 -0.1113
 2034W        W17503   0.061  10.577  10.787  0.2132  0.2825 -0.0572
 2035W        W17504  15.673   2.403   0.383  0.0753  0.2408  0.1659
 2036W        W17505  17.998   3.753   2.868  0.1995 -0.1627 -0.0783
 2037W        W17506  10.761   8.043   4.443  0.0976  0.0237 -0.0015
 2038W        W17507   9.015   9.123   0.274  0.0404  0.0846 -0.0403
 2039W        W17508   5.843  12.085   3.363 -0.2265 -0.1018  0.1912
 2040W        W17509   2.974  16.044  13.707  0.3900  0.0655  0.1759
 2041W        W17510   9.211  17.934  14.906 -0.4479  0.0183 -0.2291
 2042W        W17511   2.382  15.683  11.621 -0.0158  0.1858 -0.2431
 2043W        W17512   5.244  10.307  14.790 -0.1903  0.0971  0.0713
 2044W        W17513   8.674   1.729  15.307 -0.1770 -0.0653  0.2907
 2045W        W17514  18.968   6.922  10.540 -0.1830 -0.0492 -0.2662
 2046W        W17515  11.320   7.212  10.843 -0.2376 -0.1880 -0.0723
 2047W        W17516   6.269  10.273   9.432 -0.0593  0.1206  0.0831
 2048W        W17517  10.909  14.456  12.634 -0.2682 -0.0382 -0.0202
 2049W        W17518   2.634   5.770  15.152 -0.1058  0.0340  0.0398
 2050W        W17519   8.251  14.451   9.477 -0.2450 -0.3799  0.0921
 2051W        W17520  14.544  17.419  13.780  0.0083  0.0452 -0.2591
 2052W        W17521   5.452   1.626  13.861  0.1432 -0.2007  0.0787
 2053W        W17522  12.389  10.697  15.356  0.0125  0.4074 -0.0786
 2054W        W17523   9.208  12.669  11.561 -0.1582 -0.4513  0.3746
 2055W        W17524  15.131   5.551  12.339 -0.0575 -0.0663  0.1273
 2056W        W17525  13.581  16.700  11.680 -0.0570  0.0470 -0.0716
 2057W        W17526   4.801   2.738  11.959  0.0525 -0.3139  0.1525
 2058W        W17527  15.113   9.944  13.959 -0.1045  0.1205 -0.1621
 2059W        W17528   1.516   1.545   1.449  0.0979 -0.1784 -0.0764
 2060W        W17529   2.828  14.975   2.591 -0.0146 -0.4419 -0.1884
 2061W        W17530   9.725   8.529  15.218  0.1000 -0.0604 -0.0950
 2062W        W17531   4.841   5.710  13.479 -0.0444  0.0152 -0.2629
 2063W        W17532  12.414   2.105  12.500 -0.1136 -0.1671 -0.1297
 2064W        W17533  11.568   2.123   2.561  0.2549  0.0695 -0.0378
 2065W        W17534  11.600  15.019   3.322  0.1188  0.2600 -0.5023
 2066W        W17535  15.325   4.486  10.702 -0.2187  0.0224 -0.2059
 2067W        W17536  12.056   9.821   4.413  0.0733 -0.2129 -0.1194
 2068W        W17537  18.363   9.607  12.293  0.0550 -0.0331  0.0950
 2069W        W17538   3.846  18.242  12.375 -0.0649 -0.0090 -0.1103
 2070W        W17539   2.157   2.335   0.268 -0.3725 -0.0880 -0.0104
 2071W        W17540   3.393   2.186  14.152 -0.0364  0.1437 -0.0710
 2072W        W17541  14.719   9.624   5.981  0.0324  0.0032 -0.0251
 2073W        W17542  15.461  16.338   2.216 -0.0119 -0.0011  0.1991
 2074W        W17543   6.086  15.601   0.200 -0.1782  0.1289 -0.0443
 2075W        W17544   3.950  18.829   3.027 -0.1131  0.3922  0.3054
 2076W        W17545  16.384  13.485   0.887  0.3366 -0.0766 -0.2702
 2077W        W17546   8.500  15.375   3.031 -0.0867  0.1096  0.0822
 2078W        W17547   8.734  11.940   2.413 -0.1935 -0.0213 -0.2752
 2079W        W17548   4.927   5.774  12.147  0.2000 -0.0648  0.1669
 2080W        W17549  15.072   1.990   3.568  0.2481  0.0668 -0.0545
 2081W        W17550   9.256  12.821  13.999  0.0355  0.0894  0.0630
 2082W        W17551  17.974   3.726  10.085  0.2582 -0.0192 -0.1757
 2083W        W17552  16.019   6.132  12.011 -0.2543  0.0465 -0.2688
 2084W        W17553  17.774   6.743   3.634 -0.2174 -0.0591  0.1846
 2085W        W17554   9.962   9.775  10.880 -0.0779  0.0028 -0.0812
 2086W        W17555   7.436  13.196   5.231 -0.1676 -0.4194  0.4079
 2087W        W17556   2.873   7.010   4.205 -0.2967 -0.2021 -0.0104
 2088W        W17557   2.694  14.245   3.267  0.2872 -0.0366 -0.2436
 2089W        W17558   8.846   9.728  14.867 -0.1503 -0.1380 -0.0791
 2090W        W17559  13.892   8.272   2.127 -0.4626  0.0682  0.0149
 2091W        W17560  16.237   3.303  15.100 -0.1087 -0.1522  0.2406
 2092W        W17561   7.726  10.817   1.170  0.2682  0.3039 -0.2242
 2093W        W17562   5.699   9.289   2.554 -0.0471 -0.2692  0.2382
 2094W        W17563   7.828  16.827   4.007  0.0855  0.2990 -0.1301
 2095W        W17564   4.206   6.311   4.367 -0.0343  0.0624  0.0052
 2096W        W17565  18.797  15.608   4.488 -0.0540  0.1400  0.6547
 2097W        W17566   0.174  18.662  13.470 -0.1679 -0.1913 -0.1648
 2098W        W17567   5.849  10.215  14.153  0.2501  0.3529 -0.2922
 2099W        W17568   9.856   1.450   1.839  0.3225 -0.0494 -0.0517
 2100W        W17569  14.609   1.058   1.731  0.2687  0.1044 -0.0185
 2101W        W17570  15.257   0.430   2.156 -0.1016 -0.2306  0.3341
 2102W        W17571   3.761   9.715  14.877  0.1811 -0.1091 -0.1406
 2103W        W17572  18.206  12.994   2.073 -0.1371  0.1497 -0.0607
 2104W        W17573   0.491   9.361   1.274 -0.0416 -0.1464  0.1055
 2105W        W17574  11.117  17.789  13.399 -0.2537 -0.2633  0.0327
 2106W        W17575   1.597  17.730  13.153  0.3352 -0.0378  0.1718
 2107W        W17576  10.762   6.645   5.330 -0.1952 -0.3009 -0.2236
 2108W        W17577   2.171   5.905  12.475  0.0792 -0.0521  0.0001
 2109W        W17578   3.975  14.039  13.342 -0.3774 -0.0050 -0.0477
 2110W        W17579   8.361   7.027  14.360  0.0269  0.1243 -0.2647
 2111W        W17580   5.819  13.138  11.589  0.1221 -0.1774  0.0174
 2112W        W17581   4.345  14.587   0.349  0.1199 -0.2250 -0.0558
 2113W        W17582   9.241   8.842   1.798  0.2139 -0.2960 -0.2523
 2114W        W17583   2.392   8.709   4.957 -0.0335  0.7214 -0.2309
 2115W        W17584  11.205  17.243  14.665  0.0518  0.0372  0.0382
 2116W        W17585  13.281  16.802   3.225 -0.1358  0.0367 -0.0286
 2117W        W17586   9.074  18.267  11.684  0.0543 -0.2429  0.1822
 2118W        W17587   6.635   7.375   3.036 -0.1085  0.0043 -0.0670
 2119W        W17588  17.287   0.620  10.794  0.0980  0.2590 -0.1765
 2120W        W17589   9.413  10.138  11.248  0.1432 -0.0427  0.0663
 2121W        W17590   8.690  11.725  14.896  0.2093 -0.1618  0.1722
 2122W        W17591  15.070   6.138  11.483 -0.0105 -0.1624 -0.1234
 2123W        W17592  15.235  18.553   5.124 -0.0335 -0.0624  0.0324
 2124W        W17593   8.384   4.729  11.189 -0.0911  0.0314  0.0475
 2125W        W17594  13.042  17.221   4.882 -0.1146  0.0066  0.0379
 2126W        W17595  11.653   4.880   5.264  0.1293 -0.2569  0.2095
 2127W        W17596   2.579   2.722   1.402  0.2001  0.0031 -0.1464
 2128W        W17597  11.294   6.272  14.225 -0.0753 -0.1099 -0.0013
 2129W        W17598  10.334   4.945  13.710 -0.1176 -0.1301 -0.2241
 2130W        W17599   8.314  17.871   1.766 -0.1410  0.1099 -0.0073
 2131W        W17600  15.155   7.905  10.903  0.1256  0.0170  0.1791
 2132W        W17601  13.514  16.540  15.225 -0.0523  0.2653  0.0840
 2133W        W17602  18.739  11.098   3.250 -0.0688 -0.2350 -0.4320
 2134W        W17603   0.287   3.472   4.014 -0.2767 -0.0900  0.0909
 2135W        W17604  16.358   4.333   0.609 -0.0222 -0.1444  0.3033
 2136W        W17605  12.118  10.141   2.489  0.1374  0.0005 -0.3130
 2137W        W17606   3.311   7.494   1.050  0.0488  0.3466  0.2683
 2138W        W17607  11.668  18.112  12.587  0.1631  0.0393  0.1085
 2139W        W17608  14.488  16.650   0.522 -0.2649 -0.2394 -0.2648
 2140W        W17609   6.711   0.964  15.071  0.3657 -0.2000  0.3740
 2141W        W17610   3.874   4.776  13.437  0.0680 -0.1418  0.0299
 2142W        W17611  16.233  17.767   0.201 -0.3012  0.0221 -0.1139
 2143W        W17612   0.092   2.359   9.744 -0.3799 -0.0648  0.1140
 2144W        W17613  13.114  12.275  13.317  0.0705  0.2491  0.3169
 2145W        W17614   5.787   6.134   1.665 -0.2322 -0.3696  0.0492
 2146W        W17615   1.573  13.672   9.766 -0.1965  0.0145  0.1833
 2147W        W17616   9.978   2.711  14.152 -0.3572  0.1310 -0.3231
 2148W        W17617  14.368  16.958   5.580 -0.1398  0.4394 -0.0876
 2149W        W17618   1.968   0.183   2.480  0.1281 -0.0459  0.2832
 2150W        W17619  13.398   4.416  12.136 -0.0678 -0.1241 -0.2204
 2151W        W17620   9.235   7.867  14.568  0.1567  0.0427 -0.2223
 2152W        W17621  18.525   3.938  13.850  0.0427  0.2574  0.1356
 2153W        W17622   2.630   8.335  10.884  0.0317  0.0163 -0.0198
 2154W        W17623  15.990  16.372  11.802  0.0374  0.0209 -0.2620
 2155W        W17624   9.873   3.806  14.245  0.1092 -0.0942  0.2348
 2156W        W17625   7.502   2.457  14.255 -0.1640  0.2251 -0.1709
 2157W        W17626  16.591   0.432   5.883 -0.0420 -0.0344  0.0776
 2158W        W17627  11.525  11.984   0.741  0.1479 -0.1055 -0.0824
 2159W        W17628   1.990  13.489   0.729  0.2173  0.1037 -0.1615
 2160W        W17629  13.099  15.415  13.308  0.1684 -0.2011 -0.2769
 2161W        W17630   3.709   4.480  11.678 -0.0078  0.2309 -0.2317
 2162W        W17631  10.210   4.100   2.285 -0.4598  0.0148 -0.0754
 2163W        W17632  12.914   2.366  14.346  0.1300 -0.1584  0.0680
 2164W        W17633  18.698  14.236   9.739  0.0870 -0.2255 -0.0769
 2165W        W17634   9.495  13.607   1.308  0.1631  0.1255  0.1200
 2166W        W17635   6.455  15.086  13.090 -0.0579 -0.1885  0.0081
 2167W        W17636   3.957   8.581  13.363  0.3297  0.1479  0.1262
 2168W        W17637  11.538  18.296   2.874 -0.4459  0.2412 -0.0194
 2169W        W17638  12.852   6.069   9.868  0.1657  0.0298  0.0851
 2170W        W17639   2.624   7.550   2.781 -0.2038  0.2468 -0.1838
 2171W        W17640  17.708   3.290  10.987  0.3045  0.0324  0.1008
 2172W        W17641  17.327   7.312  15.279 -0.0087 -0.0344 -0.1833
 2173W        W17642  12.250   4.946  15.296  0.1249 -0.1717 -0.0683
 2174W        W17643   8.366   4.799  14.159  0.0160 -0.0370 -0.3628
 2175W        W17644  18.199   8.628   0.073  0.1198  0.0631  0.1794
 2176W        W17645  12.069   7.534   3.215 -0.2194  0.3804  0.2373
 2177W        W17646  14.544   2.804   4.761  0.4038 -0.0803  0.4221
 2178W        W17647  11.411  13.699   0.463  0.1523 -0.0749 -0.1326
 2179W        W17648   6.181  17.898   5.650  0.0531  0.4300 -0.2066
 2180W        W17649   4.863   7.284  15.078 -0.4111 -0.0745 -0.3831
 2181W        W17650  12.460  18.161   2.343 -0.3021  0.0008  0.0784
 2182W        W17651  13.755   1.944  13.108  0.0160  0.3703  0.0124
 2183W        W17652  13.179   4.557   5.541 -0.0586  0.0383 -0.1140
 2184W        W17653   1.702  14.147   9.844 -0.1806  0.0514 -0.0220
 2185W        W17654   9.625  16.993  13.109  0.0851  0.0470  0.3718
 2186W        W17655  11.772   1.856  11.399 -0.1858 -0.2482  0.3276
 2187W        W17656  16.315   8.443  13.476 -0.1009  0.0149 -0.1008
 2188W        W17657  15.295  15.390  11.735  0.0478 -0.1957  0.0416
 2189W        W17658  17.756  16.639   2.814  0.0940 -0.1045  0.1578
 2190W        W17659   9.640   5.868  12.519  0.0732  0.0645 -0.1597
 2191W        W17660  18.216   2.471  13.787  0.2430 -0.1274  0.0048
 2192W        W17661   0.543   7.467   4.237  0.2503  0.0972 -0.5743
 2193W        W17662   0.662   0.680   2.493 -0.0836  0.4182  0.1983
 2194W        W17663  12.566   2.653  15.281 -0.1411 -0.0761  0.2667
 2195W        W17664  13.645  12.449   1.292 -0.1006 -0.1291 -0.1765
 2196W        W17665  18.127   8.645  12.111  0.1416  0.0091  0.1869
 2197W        W17666   5.693   7.169  11.659  0.0841 -0.0579  0.0568
 2198W        W17667  12.959  11.907   2.320 -0.0533 -0.0711 -0.2033
 2199W        W17668   9.236   9.379   4.264 -0.2534  0.0160  0.2903
 2200W        W17669  18.161   5.797  12.003 -0.0779  0.1661 -0.3996
 2201W        W17670   5.132  10.064  10.393  0.0196  0.1312  0.1066
 2202W        W17671  17.105   7.998  14.597  0.0458  0.2239 -0.0423
 2203W        W17672   8.748  17.817  11.202 -0.0323  0.0967 -0.0055
 2204W        W17673  16.758  13.305  15.274 -0.0359 -0.3027 -0.1745
 2205W        W17674   9.033  15.248   1.864  0.1764 -0.0891 -0.3181
 2206W        W17675  13.563   8.261   0.777 -0.1235 -0.2519 -0.3376
 2207W        W17676  14.940   0.459   2.523 -0.0094  0.3554  0.0284
 2208W        W17677  12.483  16.958   4.469  0.0571  0.2693 -0.0126
 2209W        W17678  16.150   5.028   4.745  0.1436  0.1446 -0.3409
 2210W        W17679   5.828  10.009   1.800 -0.1847  0.2519 -0.0479
 2211W        W17680   8.820   7.907   4.324 -0.0292 -0.3315 -0.2327
 2212W        W17681   8.360   1.960   0.312  0.1208 -0.2461 -0.0586
 2213W        W17682   6.900  10.942   3.351  0.0028  0.1131  0.2624
 2214W        W17683  13.621   8.007   1.764 -0.3964  0.2252 -0.1804
 2215W        W17684   4.124  17.939   1.934  0.2597 -0.2563 -0.0256
 2216W        W17685   7.526  10.069  11.981  0.1391 -0.0875 -0.2503
 2217W        W17686   9.260  10.629   4.131  0.0888  0.3937  0.0194
 2218W        W17687  17.645   3.893  11.988  0.3608  0.0407 -0.2335
 2219W        W17688  16.744   2.707  14.063 -0.1250 -0.0696 -0.0250
 2220W        W17689  14.471  17.034   4.131  0.0270  0.2376  0.0545
 2221W        W17690  11.821   7.665   3.585 -0.2150  0.2668  0.1096
 2222W        W17691  14.443  17.336   5.943  0.2542  0.0677 -0.2567
 2223W        W17692   6.156  11.173  12.929  0.2667 -0.1088  0.1363
 2224W        W17693   9.366   1.123  15.051  0.2485 -0.0527 -0.2336
 2225W        W17694   7.898   1.717  12.318 -0.0515 -0.3273  0.0140
 2226W        W17695   9.837  13.736  10.659  0.2712  0.4243 -0.2104
 2227W        W17696   0.631   2.068  10.507  0.2306  0.3274  0.0136
 2228W        W17697   7.407   4.724  11.259  0.1049  0.1909  0.2171
 2229W        W17698  13.073  11.064  14.333  0.2371  0.0901 -0.1853
 2230W        W17699  10.902   0.227   0.262 -0.1759  0.3163 -0.1389
 2231W        W17700  11.144   1.304  11.830  0.0479 -0.4705  0.2556
 2232W        W17701   2.862   1.579   1.229 -0.0261  0.0297  0.1817
 2233W        W17702   5.707   7.915   0.287  0.0727 -0.3034  0.2832
 2234W        W17703   4.648  17.359   2.591  0.0151  0.1671 -0.3181
 2235W        W17704   7.150  14.532   3.197  0.1233  0.0592 -0.2087
 2236W        W17705  15.430   1.866  11.365  0.0354  0.0625  0.1115
 2237W        W17706   1.809  11.650  14.128 -0.1543 -0.1075  0.2683
 2238W        W17707   5.823   9.833   4.038 -0.3087 -0.0820 -0.1035
 2239W        W17708  15.578   5.787   4.745 -0.1238  0.0009  0.0906
 2240W        W17709   7.325  18.201   2.350 -0.2464 -0.0126  0.3146
 2241W        W17710   4.086  14.422   1.237  0.3307  0.0912 -0.3403
 2242W        W17711  13.860   7.352  14.980  0.0001  0.0737 -0.2062
 2243W        W17712  11.371  17.244   2.810 -0.1789  0.2856  0.0962
 2244W        W17713   2.663  17.706   5.386 -0.2447  0.1209  0.2038
 2245W        W17714   6.187   9.819   0.036 -0.1065  0.0002  0.1872
 2246W        W17715   9.523   2.848  14.383 -0.0070 -0.1120  0.2325
 2247W        W17716  13.512  13.240   4.271 -0.0331 -0.2532 -0.0287
 2248W        W17717  13.710   7.092  14.185 -0.2412 -0.3614 -0.0040
 2249W        W17718   4.704   6.219  15.307 -0.3430  0.0688  0.1440
 2250W        W17719   0.689   0.437   2.052 -0.0713  0.0635 -0.2033
 2251W        W17720  15.837  11.888  13.069  0.3504  0.2270 -0.2058
 2252W        W17721  11.802   7.061  11.141 -0.1188 -0.1608 -0.5247
 2253W        W17722  11.963  12.406  14.725 -0.1204  0.1952 -0.2310
 2254W        W17723  10.818   6.702  11.582 -0.0444  0.1567  0.3787
 2255W        W17724   8.498  15.617   0.636  0.1852 -0.0705 -0.0099
 2256W        W17725   9.797   5.698   2.546  0.0640 -0.0916 -0.2190
 2257W        W17726   8.643  11.351  10.112  0.0634  0.4356 -0.1500
 2258W        W17727   0.030  12.293  14.058 -0.4026 -0.2206  0.1461
 2259W        W17728  15.197  10.623   3.782  0.0611 -0.6790 -0.0940
 2260W        W17729  15.295  16.975   0.647 -0.0420  0.0257  0.0812
 2261W        W17730   6.775   9.598   3.118  0.2218 -0.1672  0.4095
 2262W        W17731   4.329  15.654  11.862  0.1498  0.0102 -0.2594
 2263W        W17732  17.711  13.651  12.253  0.0153  0.1303  0.2214
 2264W        W17733  12.815  16.810  11.438 -0.0082  0.0389  0.2141
 2265W        W17734   0.385  12.082  11.840  0.1090  0.0545 -0.0660
 2266W        W17735  18.449   6.079   0.213  0.0386  0.1641 -0.1788
 2267W        W17736   1.245  15.795   5.347  0.1436 -0.1056 -0.0107
 2268W        W17737   4.694  16.049  10.537 -0.2963 -0.1695  0.3667
 2269W        W17738   5.979   2.631   2.736  0.0518  0.0015  0.1106
 2270W        W17739   3.127   8.488  12.510 -0.3509 -0.3520 -0.3852
 2271W        W17740   9.120  12.719   4.023  0.2039  0.1684  0.1725
 2272W        W17741   2.844  13.799   3.368 -0.1036  0.1452  0.1284
 2273W        W17742   4.693   9.616  10.388  0.2894 -0.1980  0.0408
 2274W        W17743   7.430   9.620   5.319 -0.3598  0.1263  0.3582
 2275W        W17744  11.366  12.467   0.808 -0.3940  0.0114 -0.0676
 2276W        W17745   5.539  16.176  12.629  0.0991 -0.1598  0.4623
 2277W        W17746   2.576   4.045  14.670 -0.3323  0.1518 -0.4467
 2278W        W17747   5.442   7.079  13.919 -0.0349  0.0851 -0.0677
 2279W        W17748  13.696   9.918   3.638 -0.2941 -0.0119 -0.1717
 2280W        W17749  17.777   1.512  12.842  0.0473 -0.1967 -0.1452
 2281W        W17750   1.218   9.670   9.209 -0.2925  0.1886  0.2453
 2282W        W17751   2.390   4.780   3.843 -0.0309 -0.4498 -0.0492
 2283W        W17752  10.923   7.192  11.520 -0.2139 -0.0565  0.6056
 2284W        W17753   9.647  15.418  13.740 -0.0275  0.0526 -0.2121
 2285W        W17754  16.091  15.725  13.294  0.2116  0.1932  0.1284
 2286W        W17755  15.601  11.098   4.624 -0.0327  0.2513  0.3569
 2287W        W17756   6.305  16.661  13.929  0.0173  0.0951  0.1578
 2288W        W17757   9.891   1.219  14.588  0.0066 -0.0268 -0.3059
 2289W        W17758  13.018   9.206   1.836  0.1226  0.2617 -0.0107
 2290W        W17759   0.706  14.844   2.002 -0.0908 -0.0662 -0.3020
 2291W        W17760   6.757   4.600  14.634  0.2387 -0.0348 -0.0580
 2292W        W17761  10.570   4.392  13.054  0.0524  0.0955  0.5688
 2293W        W17762   0.606  11.578  12.671 -0.0985 -0.0814  0.1558
 2294W        W17763  15.009   8.341   2.629  0.2316  0.1554 -0.1512
 2295W        W17764   5.224   3.002   5.411  0.0517 -0.0801 -0.0017
 2296W        W17765  18.927  17.356   4.443  0.2038 -0.1240  0.2486
 2297W        W17766   4.292  17.818   0.244  0.1604 -0.0712  0.3054
 2298W        W17767   6.297   2.353   4.881  0.0759 -0.2471  0.1456
 2299W        W17768  18.257   2.214   3.552 -0.0827  0.1115 -0.0990
 2300W        W17769  14.146  10.887  14.141  0.1193 -0.0160  0.1412
 2301W        W17770   8.906  18.458   0.356  0.0544 -0.0523 -0.2788
 2302W        W17771  16.891  18.474  12.011 -0.2373 -0.2437 -0.0214
 2303W        W17772  12.519   8.935   5.137  0.2693 -0.2450  0.1541
 2304W        W17773   9.960   0.533  14.397  0.0944  0.0398  0.2919
 2305W        W17774   3.036   9.603   0.834 -0.0907 -0.0811  0.0117
 2306W        W17775  12.188  11.319   0.596  0.0517  0.2013 -0.0966
 2307W        W17776   2.984  10.282  12.858  0.1273 -0.0075 -0.1844
 2308W        W17777   3.370   4.114  13.070 -0.2219  0.1856  0.0494
 2309W        W17778   9.635  12.459  14.177 -0.3079  0.0045 -0.1366
 2310W        W17779  17.417   0.192  10.024  0.0356  0.1537 -0.0266
 2311W        W17780   4.800   5.951   2.651 -0.0692 -0.1314 -0.2172
 2312W        W17781   5.713  16.049   0.462 -0.1529  0.1585  0.0910
 2313W        W17782  12.697  15.843  11.204  0.1597  0.2384 -0.1683
 2314W        W17783   5.665  17.468  14.272 -0.0636 -0.1214 -0.0434
 2315W        W17784  14.043   6.060  12.174 -0.3382 -0.1522 -0.0526
 2316W        W17785  11.426  16.271   1.459 -0.1165  0.1441  0.3179
 2317W        W17786   9.652   2.096   3.014 -0.2157  0.3244 -0.3173
 2318W        W17787   7.787   2.393   1.436 -0.2306 -0.1185 -0.0358
 2319W        W17788   4.954   6.914  14.261 -0.1584  0.0697 -0.3358
 2320W        W17789  17.086   1.468   4.336 -0.1395 -0.0310 -0.2703
 2321W        W17790   7.022  16.063   3.248 -0.1877 -0.0344  0.1417
 2322W        W17791  14.589   2.123   4.029 -0.2472  0.0530 -0.2619
 2323W        W17792   2.854  18.062   2.512  0.3265  0.2059  0.3542
 2324W        W17793  12.154   0.821   0.973  0.0064  0.3041  0.1957
 2325W        W17794   2.893  11.900   1.928  0.2880 -0.2790 -0.1293
 2326W        W17795  12.625   3.568  13.623  0.0540 -0.3350  0.0560
 2327W        W17796   8.820  13.661   0.560 -0.1114  0.3003  0.3419
 2328W        W17797   1.973   1.712  14.403 -0.0202  0.0837  0.0500
 2329W        W17798   6.225   2.739   0.007  0.2248  0.0478 -0.0118
 2330W        W17799   4.951  12.745   4.282  0.2932  0.3982 -0.3535
 2331W        W17800   0.958  15.682  12.253 -0.3053  0.1013  0.0972
 2332W        W17801  12.424   8.161   2.512 -0.1965 -0.3046 -0.2150
 2333W        W17802  18.915  14.722   0.804  0.0382 -0.0008  0.1054
 2334W        W17803   1.351   6.637  11.634 -0.0961 -0.1726 -0.1493
 2335W        W17804  10.929   5.072   4.569 -0.0072 -0.1298 -0.1531
 2336W        W17805  17.841   1.499   1.829 -0.1510  0.0917 -0.2012
 2337W        W17806   5.174   9.997   0.299 -0.1310 -0.0911 -0.1068
 2338W        W17807   1.450  13.581  12.586  0.0542  0.1009 -0.1607
 2339W        W17808   9.178  12.995   1.939  0.1084 -0.3214 -0.3399
 2340W        W17809   4.229   0.195  12.914 -0.1332  0.2330  0.1461
 2341W        W17810   3.940  12.174   3.899 -0.2127  0.2037  0.4976
 2342W        W17811   4.130  11.570  14.424 -0.3079  0.3050  0.0104
 2343W        W17812  17.612   8.245  14.886  0.3475 -0.2182 -0.0458
 2344W        W17813   3.467  13.007   3.803 -0.4181 -0.0652 -0.0470
 2345W        W17814   3.877   2.237  11.831  0.1701  0.5805 -0.3270
 2346W        W17815  16.544  15.704  12.344 -0.3326  0.0360  0.0014
 2347W        W17816  12.837   8.859  10.335  0.0801  0.1179  0.2221
 2348W        W17817  18.225   5.249  12.219 -0.0282  0.1932  0.3049
 2349W        W17818   4.646   0.651   1.540 -0.1123 -0.1469  0.2884
 2350W        W17819   9.454  17.910   2.649  0.2334 -0.0914 -0.0084
 2351W        W17820   9.080  17.757  10.342 -0.0879 -0.2131 -0.1014
 2352W        W17821   6.221  16.169   1.167 -0.1202 -0.0835 -0.0674
 2353W        W17822  11.462   6.985  13.491 -0.0533  0.3046 -0.0227
 2354W        W17823   1.543   3.601   1.083 -0.2271 -0.0215  0.0716
 2355W        W17824  16.353  10.301  13.727 -0.0808  0.1857 -0.0148
 2356W        W17825  14.584  17.448   2.464  0.0252 -0.0212 -0.0364
 2357W        W17826  16.067   0.693  14.109 -0.0246 -0.0353 -0.1171
 2358W        W17827   7.394   7.324  13.341  0.0844 -0.2745  0.2467
 2359W        W17828   9.412  11.468   2.057 -0.1100 -0.0600  0.0488
 2360W        W17829  11.256   4.745  15.146  0.1090  0.0837  0.0103
 2361W        W17830  13.838  18.304   1.700  0.5483 -0.1133  0.3866
 2362W        W17831   1.283   2.846  12.473  0.0310 -0.0156 -0.3068
 2363W        W17832   5.649   1.666   0.731  0.0967  0.1085 -0.0594
 2364W        W17833  14.650  17.075   1.005  0.0622 -0.3745 -0.0689
 2365W        W17834   9.104  10.834   2.994 -0.1850 -0.1076  0.1839
 2366W        W17835   0.990   3.284   5.236  0.2337 -0.0455  0.0154
 2367W        W17836  11.023  13.439   3.472  0.0814  0.3384 -0.2972
 2368W        W17837   4.525   0.504  11.295 -0.2988 -0.3206  0.3501
 2369W        W17838   0.226  10.217   2.600  0.1339 -0.2316 -0.2616
 2370W        W17839  17.122   2.450   0.743  0.0040 -0.3848  0.0749
 2371W        W17840  16.410   8.324   0.879  0.2450 -0.1707  0.1516
 2372W        W17841  13.786   1.195  13.867  0.1481  0.3086  0.1132
 2373W        W17842   3.631   4.657   1.336 -0.0943  0.0486 -0.0541
 2374W        W17843  18.464   1.732  11.284  0.1589  0.0920  0.0331
 2375W        W17844  11.089  15.141   3.063 -0.1253 -0.3460 -0.2688
 2376W        W17845  13.362   1.142   2.476  0.2103 -0.0826  0.1916
 2377W        W17846   2.489   3.345   2.378 -0.1878  0.0090  0.1696
 2378W        W17847  16.225  13.060   1.125  0.0341  0.1010 -0.1320
 2379W        W17848  18.155  13.945  12.920 -0.1692 -0.0279 -0.2332
 2380W        W17849  12.125   2.215   0.241 -0.0662 -0.0535 -0.1284
 2381W        W17850   9.405  13.326  13.789 -0.0349 -0.2624 -0.0775
 2382W        W17851  17.779   1.355   2.372  0.3688 -0.3868  0.0637
 2383W        W17852   5.398   8.713  11.879  0.3521  0.0726  0.0540
 2384W        W17853  15.610   3.760   3.815  0.2073 -0.0578  0.1101
 2385W        W17854   4.795  13.342   0.616 -0.2137  0.0570  0.2658
 2386W        W17855  13.468   7.644  12.819 -0.0013  0.0650 -0.0119
 2387W        W17856   6.683   2.406   5.696  0.0759  0.0637  0.0616
 2388W        W17857   8.971  13.205  13.164 -0.0238 -0.2641 -0.1064
 2389W        W17858  18.154   3.907  11.966  0.1969 -0.0096  0.0044
 2390W        W17859   3.934  12.401  13.704 -0.2710  0.0847 -0.1069
 2391W        W17860  11.658  10.187   1.453 -0.0046 -0.0515  0.0604
 2392W        W17861  12.426   6.806  11.447  0.2909 -0.1137  0.2581
 2393W        W17862   2.948   3.011  15.360  0.1073 -0.2439  0.1725
 2394W        W17863  10.291  16.289  13.908 -0.2643 -0.3995 -0.4362
 2395W        W17864   2.193   6.712   3.923  0.2575  0.2556 -0.1970
 2396W        W17865   4.656   9.808  11.521  0.0887  0.1321 -0.3951
 2397W        W17866  10.834  11.876  14.261  0.0905  0.2165  0.1383
 2398W        W17867  17.289  15.736  10.901  0.1611  0.1083 -0.5412
 2399W        W17868   7.115  16.295  14.993  0.3307  0.2758  0.0629
 2400W        W17869  13.108   1.420   4.628 -0.0990 -0.0697  0.0556
 2401W        W17870   6.134   2.589   1.205 -0.0491 -0.1595  0.0387
 2402W        W17871   6.345   1.596   1.297  0.0305 -0.0577 -0.0286
 2403W        W17872   6.730   8.599   2.752  0.2439 -0.1978 -0.0731
 2404W        W17873   8.753  18.262  14.870 -0.2885 -0.2430  0.0080
 2405W        W17874   2.646   8.972  13.686 -0.0469 -0.0508  0.1298
 2406W        W17875   7.595  16.328  10.992  0.1396 -0.2603  0.1666
 2407W        W17876  16.240  17.293   0.084 -0.0690  0.3428  0.0757
 2408W        W17877   8.610   9.885  12.932  0.0329 -0.1776 -0.0328
 2409W        W17878  14.074   7.628  12.892  0.1260 -0.4939  0.0456
 2410W        W17879  17.748  15.648   1.655  0.1308  0.0900 -0.2196
 2411W        W17880  17.794   6.238   2.465  0.0312 -0.0496  0.5500
 2412W        W17881  17.861   5.028   1.486 -0.4796  0.0421 -0.1137
 2413W        W17882   5.291  16.849   1.463 -0.2645 -0.2366 -0.3076
 2414W        W17883   9.734  15.021   5.673  0.2897  0.2445 -0.1849
 2415W        W17884  13.328   2.899   0.487 -0.0111 -0.2642 -0.1242
 2416W        W17885  14.167   4.821   4.223 -0.1426 -0.1891 -0.0374
 2417W        W17886  17.108   6.861  11.001 -0.2218 -0.1699  0.2676
 2418W        W17887   3.363   9.191   2.350  0.0003  0.2611  0.0749
 2419W        W17888  15.128  17.013  10.436 -0.0418 -0.0706  0.1401
 2420W        W17889  14.485   7.814  13.750 -0.0176  0.3493  0.2867
 2421W        W17890   1.172  13.367  14.012 -0.2310 -0.1970 -0.1150
 2422W        W17891  18.714   2.597  12.987  0.0841  0.2671 -0.2751
 2423W        W17892  12.705  17.900  11.254  0.0628  0.3481  0.2109
 2424W        W17893  12.588  17.768  14.282 -0.0788 -0.0429 -0.0149
 2425W        W17894  10.030  14.752  14.558  0.2599 -0.1763 -0.2669
 2426W        W17895  12.544  11.829   1.305 -0.0590 -0.0162 -0.0266
 2427W        W17896  13.925  15.671   1.087 -0.1520  0.2451 -0.5238
 2428W        W17897   0.892   7.232   9.833  0.0665 -0.1280  0.1480
 2429W        W17898  18.966  14.733  11.502 -0.6028  0.0599  0.2816
 2430W        W17899  17.766   2.304   3.230 -0.1843 -0.2790  0.4915
 2431W        W17900   9.111   6.659  14.685  0.0688  0.3286  0.1206
 2432W        W17901  17.669   4.156   2.411 -0.1697  0.2225  0.2746
 2433W        W17902  12.403   8.750  11.778 -0.1951  0.0013  0.0090
 2434W        W17903  12.567  12.070  12.380 -0.1028  0.3691 -0.1831
 2435W        W17904  18.337  10.843  12.290  0.1529 -0.2076 -0.1708
 2436W        W17905  11.304   8.864  10.703 -0.4851 -0.0772  0.3728
 2437W        W17906   2.417  18.335   0.179 -0.0472  0.0971  0.3830
 2438W        W17907  15.530   3.724   0.304  0.0753 -0.0595  0.1539
 2439W        W17908   3.985  17.830   3.008 -0.1149 -0.0389  0.1109
 2440W        W17909   6.048  14.644   2.170  0.0666  0.0599  0.0973
 2441W        W17910  12.216   7.253  11.420  0.1845  0.1610 -0.0327
 2442W        W17911  10.484   7.443   1.431  0.0356 -0.1639  0.1847
 2443W        W17912   6.881  13.915   0.251  0.0148 -0.2673  0.1424
 2444W        W17913  18.226  16.915   1.332 -0.3506 -0.0116 -0.3215
 2445W        W17914  16.110   9.953  14.509  0.0841  0.1381  0.1383
 2446W        W17915   9.467  14.426   5.257 -0.0185  0.3232 -0.2438
 2447W        W17916   4.850  15.081   5.297 -0.2383 -0.3695 -0.3326
 2448W        W17917   0.972   8.129   3.766  0.3790  0.1871 -0.4553
 2449W        W17918  12.635  10.771  12.564  0.0355 -0.5522  0.0105
 2450W        W17919   8.385  10.628  11.975 -0.0829  0.1245 -0.1059
 2451W        W17920   2.187  12.849  12.942  0.1531  0.1506  0.0686
 2452W        W17921   6.538  17.833   1.734  0.2014 -0.1359 -0.1757
 2453W        W17922   7.131  18.995  13.215 -0.0813 -0.2518 -0.2638
 2454W        W17923  16.725   1.866  10.736  0.2744 -0.3484 -0.1319
 2455W        W17924  14.048   0.310   2.599  0.0117  0.2708 -0.0678
 2456W        W17925   9.332   8.623   3.691 -0.2592  0.0191 -0.3887
 2457W        W17926  16.566   1.704   2.044  0.4198  0.0829  0.0282
 2458W        W17927  17.696  13.678  15.004 -0.1223 -0.4289  0.1911
 2459W        W17928   1.039   0.421   1.488 -0.1931 -0.1277  0.1468
 2460W        W17929   1.206   9.913  13.930  0.0540  0.5754 -0.0416
 2461W        W17930  10.010  17.233  10.455 -0.1265 -0.2201 -0.0625
 2462W        W17931  12.790   3.298   2.507  0.0308  0.1058 -0.0754
 2463W        W17932  16.512   9.961  12.037  0.0008  0.1446  0.3454
 2464W        W17933   4.817  17.713   4.632 -0.2165 -0.3986 -0.0908
 2465W        W17934  14.545   0.746   4.000  0.3100 -0.0211  0.2201
 2466W        W17935  14.806   4.560  12.324 -0.2323  0.2498 -0.4704
 2467W        W17936  10.074  13.975   0.325  0.2205  0.3129  0.1542
 2468W        W17937   8.465  16.789   5.154  0.2882 -0.0471  0.1982
 2469W        W17938   0.883  18.460   1.309 -0.3214  0.2011  0.1729
 2470W        W17939   0.585   1.528   4.330  0.1178  0.2794  0.0566
 2471W        W17940  14.227  13.504   3.958  0.2225 -0.1631 -0.1237
 2472W        W17941  12.386  18.255  14.015 -0.2652  0.0134 -0.0826
 2473W        W17942   9.388   3.152  13.394 -0.0071 -0.1820 -0.3297
 2474W        W17943   6.260  12.154  11.990  0.0878  0.0249  0.1124
 2475W        W17944  13.063   6.288  14.682  0.0640  0.0716 -0.2093
 2476W        W17945  16.164  12.107  13.478  0.1082  0.1493  0.0027
 2477W        W17946  14.607  16.606  12.534 -0.0237 -0.1134 -0.0691
 2478W        W17947  12.490   4.158  14.537  0.2680  0.0866 -0.1252
 2479W        W17948  10.560   5.426  13.924 -0.1740 -0.1294  0.2553
 2480W        W17949   8.906  16.139  13.697  0.2984  0.0917  0.3091
 2481W        W17950   5.303   5.103   3.767 -0.0829 -0.4346  0.1533
 2482W        W17951   0.549   3.742   0.902 -0.0824 -0.0640  0.2888
 2483W        W17952  11.355  15.381   0.928 -0.0445  0.0169 -0.4681
 2484W        W17953  18.825  15.375   1.802  0.3029  0.1470  0.0450
 2485W        W17954  17.832  18.150  10.204  0.2278 -0.1663 -0.1728
 2486W        W17955  13.049   0.756  13.680  0.1317  0.2000  0.1327
 2487W        W17956   1.421   3.473   0.075 -0.0845 -0.0355 -0.0750
 2488W        W17957   2.839   5.742   4.993  0.0811  0.0190  0.0374
 2489W        W17958  17.542  11.974  13.146  0.2102 -0.0328 -0.2534
 2490W        W17959  11.990   3.692  14.127 -0.0609  0.1401 -0.1818
 2491W        W17960   0.530   3.082   0.183  0.1153 -0.1751 -0.1149
 2492W        W17961   8.367   4.816   6.084  0.0110 -0.0567  0.2694
 2493W        W17962   5.125   5.230  12.219 -0.3517 -0.0081 -0.0059
 2494W        W17963   5.876  14.180  13.777  0.0056  0.1290 -0.1524
 2495W        W17964   6.242  15.717   5.395 -0.1102 -0.1427 -0.1939
 2496W        W17965  15.321   7.754  13.110 -0.4892 -0.0574  0.3770
 2497W        W17966  12.084  10.836   4.149 -0.1124 -0.1477 -0.0356
 2498W        W17967   0.482   7.193   2.803  0.3311  0.2155 -0.1193
 2499W        W17968  11.893   9.890  13.485 -0.0528 -0.1288  0.0169
 2500W        W17969   5.891   4.196  12.231  0.0860 -0.1036 -0.4030
 2501W        W17970   3.374   7.088  11.698 -0.0462  0.2594 -0.0699
 2502W        W17971  17.340   8.936  14.864  0.3279  0.0880  0.1005
 2503W        W17972  13.602   3.868   2.228  0.0037 -0.0707  0.0080
 2504W        W17973   1.955   7.461  13.448 -0.3208 -0.3814 -0.0790
 2505W        W17974   9.101   7.482   4.679 -0.1394  0.2068  0.0066
 2506W        W17975   1.212   8.614  14.587 -0.2443 -0.0538  0.2912
 2507W        W17976   3.941   2.736   0.316 -0.1525  0.1639  0.0693
 2508W        W17977  15.688  18.107   1.284 -0.0676 -0.1391  0.3935
 2509W        W17978   7.641  11.349   3.739  0.1608  0.0029  0.4888
 2510W        W17979   4.955  14.938  13.546  0.1505 -0.0016  0.0743
 2511W        W17980  10.309  14.690   4.275 -0.2696 -0.1156  0.4304
 2512W        W17981   7.043   4.288   2.156 -0.1063 -0.0599  0.2549
 2513W        W17982   2.991  11.113  13.390 -0.1097 -0.2226  0.0131
 2514W        W17983   7.957   5.145  14.464 -0.0267  0.0578  0.3445
 2515W        W17984  14.136   0.772  11.844  0.1548  0.0350  0.1072
 2516W        W17985   8.435  12.362  12.001 -0.2205 -0.1251 -0.1652
 2517W        W17986  17.033  15.995   4.334 -0.0903  0.0223  0.1948
 2518W        W17987   9.116  15.887  12.598  0.0206 -0.0024 -0.1976
 2519W        W17988  17.645  17.176   0.286 -0.0191  0.1588  0.2135
 2520W        W17989   6.411   6.198  10.826  0.0090 -0.0895  0.0105
 2521W        W17990  18.428   4.856   1.403  0.2622 -0.0393  0.0419
 2522W        W17991  10.697  16.880   2.188  0.0153 -0.2210 -0.0006
 2523W        W17992   1.961   2.842   0.302  0.2298  0.0672  0.0869
 2524W        W17993   5.958   6.490   0.363 -0.3825 -0.0662  0.0682
 2525W        W17994   5.242   9.212  12.977 -0.0096  0.1572  0.2369
 2526W        W17995   5.789   8.444   0.256  0.0394  0.1365 -0.1394
 2527W        W17996  18.032  12.092  11.137  0.1374 -0.1022  0.0101
 2528W        W17997   3.036   2.280   3.529 -0.1444 -0.0764 -0.0668
 2529W        W17998  11.374   8.726  11.418  0.0982  0.0431 -0.4450
 2530W        W17999   0.203   8.846   1.698  0.1014  0.1421  0.0732
 2531W        W18000  10.370   3.582  11.552 -0.1198 -0.1467 -0.1042
 2532W        W18001  15.564  17.393  11.916 -0.1065  0.1228  0.0248
 2533W        W18002   4.158   8.622  12.431 -0.1741  0.2046  0.2263
 2534W        W18003   5.300  10.963   1.482  0.0859  0.1058  0.1491
 2535W        W18004   0.120  14.613   2.037  0.1682 -0.0618 -0.0372
 2536W        W18005  10.043  13.217  10.439  0.2369  0.0162 -0.2176
 2537W        W18006  14.066  18.285  11.790 -0.1479  0.1239  0.0032
 2538W        W18007   2.890  15.147  10.800 -0.0438 -0.2068  0.0341
 2539W        W18008  12.755   4.960   1.222  0.3200  0.0577 -0.2783
 2540W        W18009   6.651   8.333   5.428 -0.1558 -0.0836 -0.1088
 2541W        W18010   2.127   9.053  14.538  0.0386  0.1367  0.0978
 2542W        W18011  14.344   1.464  14.733 -0.1949  0.3146  0.1460
 2543W        W18012  18.017   4.029   4.211  0.0294  0.0758  0.1713
 2544W        W18013  13.504   7.679  15.162 -0.1106  0.0443 -0.0210
 2545W        W18014  18.914  10.371  15.179 -0.0389 -0.3023 -0.0517
 2546W        W18015   1.173  12.598   1.232 -0.0647  0.1343 -0.2999
 2547W        W18016   1.821   8.668   0.984  0.1455 -0.1157  0.2108
 2548W        W18017  18.650   7.851  14.220 -0.0608 -0.1784  0.1807
 2549W        W18018  16.085  18.077   3.382  0.0210 -0.1588 -0.1970
 2550W        W18019   2.219  14.567  11.439  0.1863 -0.4365  0.1675
 2551W        W18020  10.798  10.727  13.590  0.0035 -0.1373 -0.0734
 2552W        W18021   8.396  16.355   0.674 -0.1243  0.0990  0.0594
 2553W        W18022   2.837  16.107  13.209  0.1170  0.0803 -0.1202
 2554W        W18023  13.569  12.724   9.912  0.2360  0.1378  0.2388
 2555W        W18024  14.781  18.489   2.379 -0.2103 -0.2226 -0.1071
 2556W        W18025  12.741   2.412   3.142 -0.4312  0.2494  0.1670
 2557W        W18026  11.432  15.241  15.315  0.4122 -0.1808 -0.1320
 2558W        W18027  11.408  11.039  11.550 -0.2447 -0.1141  0.2194
 2559W        W18028   2.233  11.335  10.641  0.1948  0.1387  0.2120
 2560W        W18029   9.089   2.319   5.302 -0.2042  0.0938  0.0907
 2561W        W18030   4.874   0.719   3.314  0.0549 -0.1114 -0.0317
 2562W        W18031  10.341  14.253   1.173 -0.1929 -0.2432 -0.1686
 2563W        W18032   7.570   6.943  10.211 -0.4211  0.0720 -0.0227
 2564W        W18033   7.423  18.392   5.183 -0.0146 -0.1121  0.0392
 2565W        W18034  11.824   2.556   0.452  0.1525  0.0212  0.0666
 2566W        W18035   9.311   8.751   0.471 -0.1655 -0.2972 -0.1189
 2567W        W18036  16.791   4.195   5.590 -0.0782  0.0334 -0.2756
 2568W        W18037   7.138  13.597  11.709  0.0186 -0.2619  0.0747
 2569W        W18038  14.816   1.370  12.267  0.3626  0.0729 -0.1959
 2570W        W18039   9.875  10.592   9.590 -0.0833  0.3118  0.0467
 2571W        W18040   7.706   2.625  11.845 -0.1407 -0.1039  0.2493
 2572W        W18041   4.350   3.607  11.754  0.2146 -0.0098 -0.1174
 2573W        W18042  16.473  16.001  11.434 -0.0459 -0.1329  0.2185
 2574W        W18043  10.200  16.221   3.296  0.3295 -0.0698  0.0690
 2575W        W18044   0.630   0.068  10.282  0.0463  0.1397 -0.1604
 2576W        W18045   8.070  13.118   1.731  0.3515 -0.1420  0.0905
 2577W        W18046  14.408   5.820  11.156 -0.1057  0.0981 -0.0438
 2578W        W18047  10.565  12.476   0.095  0.0664  0.1489  0.3787
 2579W        W18048   5.400   6.454   0.991  0.0495  0.4993  0.3824
 2580W        W18049  16.370  11.799  12.063  0.4508 -0.3122 -0.2169
 2581W        W18050  17.183  12.265  11.667  0.2228 -0.0110  0.1728
 2582W        W18051  18.298   6.827   1.902 -0.1258 -0.3170  0.0250
 2583W        W18052  11.746   6.558   1.732  0.0903  0.0549  0.0767
 2584W        W18053   5.246   7.789  10.468 -0.2405 -0.1175 -0.0282
 2585W        W18054  12.582  13.235   1.641 -0.1501  0.0402 -0.1764
 2586W        W18055  18.564   6.297   2.648  0.0291  0.0001  0.1394
 2587W        W18056  17.081   2.067  12.917 -0.4277 -0.2933 -0.1146
 2588W        W18057  10.096   1.810   3.286 -0.1831  0.0625 -0.1029
 2589W        W18058   9.207   1.402  13.317  0.0016  0.5383  0.1863
 2590W        W18059  18.891   2.719  12.266  0.0816  0.2869 -0.0435
 2591W        W18060   0.759   8.583   3.063 -0.0904 -0.0529 -0.3584
 2592W        W18061   5.633   0.209  10.299 -0.1130  0.1496 -0.2980
 2593W        W18062  13.620   5.723   2.699  0.0030 -0.0396  0.0294
 2594W        W18063   2.630   2.075   1.389 -0.1629  0.3875 -0.3391
 2595W        W18064  11.911  15.500   3.470 -0.1549 -0.0083  0.0396
 2596W        W18065   5.222   6.605  13.370  0.2090  0.0129  0.4082
 2597W        W18066   1.664  18.137   1.465 -0.1616  0.0099 -0.0321
 2598W        W18067   8.618  10.889  13.271  0.0913  0.1148  0.0402
 2599W        W18068   7.944   8.417   2.281 -0.5305  0.1874 -0.0991
 2600W        W18069   0.875   1.781  10.003 -0.0663 -0.3175 -0.0228
 2601W        W18070   3.077  14.795   3.773  0.0032 -0.0290  0.1930
 2602W        W18071   9.316   7.889  12.162  0.0155  0.0000  0.1773
 2603W        W18072   0.197  13.761  13.591  0.2890 -0.0182 -0.2373
 2604W        W18073   3.831  16.622   4.821  0.0360 -0.4944 -0.0081
 2605W        W18074  16.912   3.938   9.964  0.1049  0.3166 -0.1384
 2606W        W18075  12.260   2.954  12.794  0.0582  0.1608 -0.2336
 2607W        W18076  17.242   8.132   3.178  0.2921  0.0037  0.0802
 2608W        W18077  12.353  12.850  13.719  0.1583  0.0592 -0.0139
 2609W        W18078   7.744   7.071  12.261  0.0917  0.1434  0.3242
 2610W        W18079  11.321   1.595   2.109  0.1544  0.0394 -0.2114
 2611W        W18080  11.670  12.211   2.464  0.2189  0.0442  0.0387
 2612W        W18081   1.112  11.635  14.834 -0.2026  0.1226 -0.1202
 2613W        W18082  15.888  13.116   2.993 -0.0064 -0.0708  0.0895
 2614W        W18083  16.798   9.807   9.441 -0.0441 -0.1278 -0.0423
 2615W        W18084   8.795  12.660  11.335 -0.1173 -0.0382  0.1625
 2616W        W18085   2.013   6.148  12.011 -0.1956  0.1130 -0.1493
 2617W        W18086  13.648   7.708   4.822 -0.0367 -0.0563  0.1022
 2618W        W18087  12.149   8.215  10.437  0.0136 -0.0766 -0.0418
 2619W        W18088   4.491  18.106  13.438  0.1836 -0.1749  0.2733
 2620W        W18089   4.869  18.302  12.766 -0.3138 -0.1812 -0.1009
 2621W        W18090   1.862  11.664  15.324  0.0892 -0.0938 -0.1958
 2622W        W18091  17.039  12.920  15.047  0.2403 -0.0603  0.0780
 2623W        W18092   4.054  14.101   1.974  0.0242 -0.2552  0.1230
 2624W        W18093  12.348  14.169   3.981 -0.0220  0.0597  0.0212
 2625W        W18094   1.517   6.170  10.304 -0.0509  0.0458  0.2159
 2626W        W18095  10.420  14.423  11.534 -0.0859  0.0536  0.0664
 2627W        W18096   1.085   3.816   1.921  0.0854  0.0190 -0.3149
 2628W        W18097   0.395   2.234   0.511 -0.3374  0.2296 -0.1434
 2629W        W18098  12.081  11.710  12.449 -0.0649 -0.1905 -0.2884
 2630W        W18099   1.496   8.328  15.358  0.2962 -0.1007 -0.0087
 2631W        W18100  14.181  14.662   4.054 -0.2951 -0.0467 -0.0673
 2632W        W18101   7.511   9.128  10.532  0.0932  0.0076  0.3680
 2633W        W18102  14.715   5.789   3.337 -0.1055 -0.2309 -0.0237
 2634W        W18103  18.976   1.006  11.791 -0.3961 -0.1552  0.2085
 2635W        W18104   8.396  15.024   2.581  0.1181 -0.1360 -0.1820
 2636W        W18105  12.938  15.211  14.132  0.3276 -0.0103 -0.2653
 2637W        W18106  12.609   4.634   1.808 -0.0881  0.2616 -0.0332
 2638W        W18107  16.583   3.890   0.485  0.3627  0.2476 -0.3462
 2639W        W18108   5.788  18.719   6.181 -0.1349 -0.1550  0.2395
 2640W        W18109  12.957  11.466  14.617  0.1553  0.3898 -0.0791
 2641W        W18110   4.692   1.074   4.472  0.0315 -0.0380  0.0921
 2642W        W18111   8.740  12.645  13.417 -0.1339  0.1863  0.0107
 2643W        W18112  15.256  14.791   1.472 -0.1886 -0.5076  0.1885
 2644W        W18113   9.200  15.011   4.896  0.0960  0.1021  0.1707
 2645W        W18114   8.645   5.121  13.776  0.1461  0.3209  0.1169
 2646W        W18115   7.414  16.400   1.917  0.1189  0.1870  0.0859
 2647W        W18116  13.391   0.464  12.000 -0.0971  0.2233  0.2247
 2648W        W18117  19.011   2.062   1.713  0.1387 -0.0248 -0.0144
 2649W        W18118  12.990   5.399  14.085  0.0835  0.3506  0.0269
 2650W        W18119   4.533  12.100  12.384 -0.1163 -0.0651  0.0211
 2651W        W18120  10.882  11.158  10.765  0.1758  0.0035 -0.0080
 2652W        W18121  14.423   8.397   0.860 -0.2597  0.1149 -0.0603
 2653W        W18122  12.495   2.621   5.104 -0.0448 -0.1149 -0.2239
 2654W        W18123   2.214  10.678   2.308 -0.1358  0.0953  0.0241
 2655W        W18124  13.452  11.793   0.980 -0.4487  0.2564 -0.0049
 2656W        W18125  14.683  12.685   3.798  0.2758 -0.2493  0.2170
 2657W        W18126   5.354   5.882  12.921 -0.4193  0.0508 -0.1375
 2658W        W18127  13.178  16.462  12.772 -0.1066 -0.1936 -0.2421
 2659W        W18128   9.507  10.454  14.092 -0.1537  0.1363 -0.0615
 2660W        W18129  12.203   4.551   4.269  0.1233 -0.0110 -0.0147
 2661W        W18130   4.202  16.266   1.427 -0.2789 -0.3474  0.0909
 2662W        W18131  18.932   6.988   2.628  0.1198  0.3069 -0.4166
 2663W        W18132   9.359  16.813  15.039  0.2567  0.1492  0.0072
 2664W        W18133  15.887   7.027   0.209  0.0250 -0.0369 -0.3701
 2665W        W18134   6.747   7.527  14.023 -0.0661 -0.2789 -0.0553
 2666W        W18135   2.837  17.667   3.357  0.1246  0.2416 -0.1065
 2667W        W18136   8.196  10.146  12.924  0.0497  0.0663  0.0892
 2668W        W18137  13.247  18.175  12.690 -0.3915 -0.0008 -0.3039
 2669W        W18138   9.582  11.664   2.482 -0.0089  0.2852 -0.2527
 2670W        W18139  18.387   0.075   3.188  0.0041  0.4111 -0.0117
 2671W        W18140   4.733   0.223   1.728  0.0857 -0.0850 -0.1337
 2672W        W18141   1.042   1.224  10.463  0.2506  0.0927  0.1117
 2673W        W18142  12.307   4.560  14.112  0.1180  0.1239 -0.0353
 2674W        W18143   0.527  16.363  12.866 -0.1458  0.2125 -0.3457
 2675W        W18144   2.109   7.440   1.986  0.0867 -0.0206 -0.0516
 2676W        W18145   8.084   9.180  11.013 -0.2515  0.1127 -0.2693
 2677W        W18146   8.659  11.880  10.662  0.0446 -0.0162 -0.3051
 2678W        W18147  12.775   4.874   4.724 -0.3254  0.0983  0.0659
 2679W        W18148   8.676   2.570   5.095 -0.0981 -0.0602  0.2807
 2680W        W18149  10.752  13.155  12.985 -0.1786  0.2688 -0.1629
 2681W        W18150  13.608   6.110  11.164  0.1467 -0.0796  0.1346
 2682W        W18151   0.324   9.877   0.870  0.0203  0.1921  0.0633
 2683W        W18152   5.564  11.192  14.883 -0.2031  0.1289  0.1606
 2684W        W18153  16.560  14.894  13.629 -0.2368 -0.1457 -0.2549
 2685W        W18154  13.093   0.214   3.686 -0.2830 -0.2141 -0.0105
 2686W        W18155  13.943  14.291   4.314 -0.1862  0.0628  0.0529
 2687W        W18156   5.683  18.348  14.662  0.0467  0.1675  0.2503
 2688W        W18157  15.524   9.806   0.514 -0.5855  0.0694  0.3056
 2689W        W18158   1.482   5.263  11.118 -0.0096 -0.0211  0.4291
 2690W        W18159  11.127   2.183   4.419  0.0414  0.2444  0.1030
 2691W        W18160   7.200  17.396   1.826  0.3665  0.4130  0.3391
 2692W        W18161   1.178   8.165  12.406 -0.0713  0.0349  0.2148
 2693W        W18162   7.012   8.708  10.943  0.0946 -0.0642 -0.0268
 2694W        W18163  17.764  16.888  14.690 -0.2224 -0.2759 -0.1808
 2695W        W18164  15.141   2.758  10.939  0.1781 -0.2244  0.2198
 2696W        W18165  17.298  11.186   2.417  0.0524  0.3482  0.0920
 2697W        W18166   1.383  17.014  13.790 -0.2556 -0.2328 -0.2156
 2698W        W18167   1.809   2.148   0.793  0.0535  0.0616 -0.0203
 2699W        W18168   5.866  16.484  11.592  0.0465 -0.1116  0.4390
 2700W        W18169   3.509   3.736  12.205 -0.0792 -0.0177 -0.2246
 2701W        W18170  12.145   9.419  10.482  0.2439 -0.2408  0.0758
 2702W        W18171   7.726   9.597  10.631  0.0830 -0.3549 -0.0087
 2703W        W18172  18.000   5.918   4.933 -0.1475  0.1681 -0.0379
 2704W        W18173  11.802   9.459   3.612  0.1838  0.0882  0.0693
 2705W        W18174   1.457  11.877   3.367  0.1947 -0.1433 -0.0988
 2706W        W18175   8.622   5.068  11.938 -0.1131 -0.3178  0.0431
 2707W        W18176   2.227  13.433   1.515 -0.0199 -0.5261 -0.2444
 2708W        W18177   2.823   4.248   1.509  0.4182  0.2013  0.0439
 2709W        W18178   9.119   7.874   2.626 -0.1230 -0.1090  0.1656
 2710W        W18179  14.357   2.426  14.860  0.2902 -0.1572  0.0525
 2711W        W18180  18.632   4.530  12.575  0.3180 -0.0982 -0.2604
 2712W        W18181  12.798  15.560  12.879  0.1272  0.3824 -0.1947
 2713W        W18182   4.691  13.159  11.387 -0.0209  0.0020 -0.0545
 2714W        W18183   8.046   7.141   3.258  0.0568 -0.1652 -0.2926
 2715W        W18184   4.835   5.220  13.330  0.3188  0.0262  0.0109
 2716W        W18185   1.239   8.891  13.960  0.2994 -0.0641 -0.0201
 2717W        W18186  12.717  18.057  13.637 -0.2981  0.0817 -0.1923
 2718W        W18187   5.348  13.449   2.251  0.1790 -0.0673 -0.0231
 2719W        W18188   7.000  11.380  12.932 -0.0435  0.2712 -0.0086
 2720W        W18189   7.220   1.881   3.740  0.0621 -0.2814  0.0508
 2721W        W18190   4.921   9.089   4.535  0.1301 -0.2441 -0.1846
 2722W        W18191  10.510  15.945  11.920  0.3552  0.0197 -0.0036
 2723W        W18192   1.756   9.016   2.454  0.1368  0.0921  0.0170
 2724W        W18193   5.822  10.438  14.588  0.2510  0.0968 -0.1638
 2725W        W18194  15.658   3.303   0.574  0.0229 -0.2560 -0.3725
 2726W        W18195   2.327  18.405  11.267 -0.0345 -0.1021  0.0710
 2727W        W18196  12.420   8.007   4.955  0.1049 -0.0393  0.1704
 2728W        W18197  16.035   5.771  13.859  0.1309 -0.0256  0.0882
 2729W        W18198  11.264  18.853  12.881  0.0836  0.2493 -0.0750
 2730W        W18199  17.598  16.617  13.748 -0.0463 -0.0868 -0.2282
 2731W        W18200  15.301  17.242   0.190 -0.1507  0.3097 -0.1318
 2732W        W18201  11.088  11.531   1.142 -0.1973  0.0621 -0.0825
 2733W        W18202  17.353  16.387   2.982 -0.0318  0.1245 -0.3263
 2734W        W18203   0.206   9.592  10.807 -0.0293  0.1853  0.0735
 2735W        W18204   1.871  16.700  11.667 -0.2788  0.0124 -0.1304
 2736W        W18205  14.300   3.528  13.564  0.1459 -0.0799  0.0399
 2737W        W18206  13.660  14.483  12.862 -0.0432 -0.0477 -0.1099
 2738W        W18207  16.385  11.122  13.250  0.0758  0.1351 -0.3106
 2739W        W18208   6.689  11.394  10.257  0.1863 -0.3664  0.0130
 2740W        W18209   4.141  18.669   3.510 -0.0952 -0.0231  0.0083
 2741W        W18210   4.807  14.057   3.482  0.2156 -0.3799  0.1561
 2742W        W18211   1.209   1.792  14.992  0.3974 -0.3335 -0.2352
 2743W        W18212  17.227   6.509  11.313 -0.2027 -0.0705 -0.2679
 2744W        W18213   1.266  11.272  10.270 -0.0464  0.4398 -0.1474
 2745W        W18214  11.660  17.996  12.080 -0.3047  0.0508 -0.0216
 2746W        W18215  17.028  16.809  14.866 -0.1774 -0.0460  0.1616
 2747W        W18216  14.780   6.823  12.219 -0.0156 -0.1291 -0.1451
 2748W        W18217   1.480   1.315  13.509 -0.0843 -0.0895 -0.2751
 2749W        W18218  11.469   8.013   5.267  0.1874 -0.0248  0.1320
 2750W        W18219   3.933   0.097  10.931 -0.2598 -0.0784 -0.2348
 2751W        W18220  18.435  10.528   1.882 -0.1011 -0.0601 -0.1171
 2752W        W18221  17.060   4.993   1.178 -0.0916 -0.0747 -0.2347
 2753W        W18222   2.434   7.978   4.526 -0.0064 -0.3773 -0.1202
 2754W        W18223   0.316   6.918  13.463 -0.0804  0.1804 -0.2015
 2755W        W18224   8.551  10.471   0.855 -0.1110  0.1424  0.1817
 2756W        W18225   3.529   3.630   1.427 -0.3601 -0.0475  0.4873
 2757W        W18226   2.484   8.885  11.744  0.5609  0.0163  0.1066
 2758W        W18227  12.672   8.929   3.759 -0.0041 -0.1918 -0.0423
 2759W        W18228  16.632  18.810   3.551 -0.2984 -0.1116 -0.0281
 2760W        W18229   1.384  10.150   0.612 -0.0909 -0.0782  0.1936
 2761W        W18230   8.697   8.489   4.250 -0.1119  0.0233  0.0960
 2762W        W18231  10.941  13.039   0.146 -0.0085  0.1732 -0.0390
 2763W        W18232   6.000  13.977   5.103 -0.4322 -0.1816  0.2580
 2764W        W18233   8.669  12.222  12.998  0.1188 -0.1227  0.2271
 2765W        W18234   0.136   6.412  14.092 -0.0750  0.1305 -0.1536
 2766W        W18235  17.541   6.881  13.273  0.1358  0.0271  0.1352
 2767W        W18236   6.161   1.544   2.204  0.0616 -0.3001 -0.1878
 2768W        W18237  10.703   1.706  12.013 -0.2328 -0.1916  0.1135
 2769W        W18238  13.557  11.975  12.325 -0.1625  0.2508  0.1481
 2770W        W18239   8.056   5.695   5.175  0.3605  0.2049  0.1233
 2771W        W18240   4.057  16.146   3.730 -0.1107 -0.0257  0.1136
 2772W        W18241  15.929  14.391   4.798 -0.2112  0.1637 -0.0095
 2773W        W18242   7.094  13.324   9.509  0.1904  0.1265 -0.1006
 2774W        W18243  17.548   4.644  10.966 -0.0619 -0.1714  0.0800
 2775W        W18244   0.760   2.700  11.722 -0.0255  0.4540  0.3475
 2776W        W18245   2.012   8.845   9.527 -0.1598  0.0071  0.1064
 2777W        W18246   9.416  16.556  13.347 -0.4280 -0.0525  0.2110
 2778W        W18247   6.152   3.467  10.936  0.0627 -0.0599  0.1519
 2779W        W18248  14.145   8.071   3.303 -0.0193 -0.1026  0.0443
 2780W        W18249  14.916  13.410   4.669 -0.3614  0.3195  0.0972
 2781W        W18250  11.008   4.476   0.305  0.1328 -0.0357  0.1680
 2782W        W18251  16.710   1.971   4.321 -0.4358 -0.0261 -0.0930
 2783W        W18252   9.513  16.120  11.818 -0.1973  0.1232 -0.0038
 2784W        W18253   5.215  11.625  13.100  0.1151  0.1893 -0.0537
 2785W        W18254   7.708  14.405  15.269 -0.1236  0.0928  0.1786
 2786W        W18255   7.927   9.945  14.486 -0.1509  0.0160 -0.2354
 2787W        W18256  13.359  11.059  10.455 -0.3214 -0.0215  0.2126
 2788W        W18257   9.989   3.131  12.239 -0.1639  0.1097 -0.0112
 2789W        W18258   2.016   0.445  10.753 -0.2137  0.0054  0.0189
 2790W        W18259  18.766  12.260  12.256 -0.2110  0.1686  0.0953
 2791W        W18260   6.058   4.621  14.227  0.0107 -0.0025 -0.1545
 2792W        W18261  18.671  13.254  12.592 -0.0389  0.1611  0.2284
 2793W        W18262   3.441   0.865   1.335  0.1365  0.1118 -0.0905
 2794W        W18263  18.271   9.758  13.161 -0.0579 -0.0279 -0.1273
 2795W        W18264   2.559  18.833  12.300 -0.3095  0.4611  0.0252
 2796W        W18265  15.621   5.000   1.311  0.0089 -0.0117  0.0400
 2797W        W18266  17.079  16.574   0.428 -0.0109  0.1718 -0.1128
 2798W        W18267  14.695   0.507  11.943  0.0212  0.1263 -0.2400
 2799W        W18268   1.780   1.542  11.045 -0.1563 -0.1173  0.3370
 2800W        W18269  13.844   0.879   1.268 -0.1280  0.2996 -0.0254
 2801W        W18270   2.290  11.964  11.234  0.0573 -0.1168  0.1492
 2802W        W18271  14.003   9.668   1.559  0.0543 -0.0566 -0.0133
 2803W        W18272  14.053   5.901   0.609  0.1105 -0.2724 -0.4247
 2804W        W18273  18.754  16.601   3.015  0.2014 -0.0447 -0.1210
 2805W        W18274  17.345  10.642   2.851 -0.2570  0.0960 -0.0870
 2806W        W18275  18.292  16.942  13.417 -0.0115  0.1428  0.6397
 2807W        W18276  13.681  18.292  10.964  0.1735  0.0002  0.1189
 2808W        W18277  12.976  17.281   0.982  0.1082  0.0361  0.2319
 2809W        W18278  13.918  13.463  14.507  0.0052 -0.2845  0.0187
 2810W        W18279  11.961   7.684  10.494  0.2686 -0.3455  0.0371
 2811W        W18280   0.692   9.956   1.533  0.3414 -0.1421 -0.1745
 2812W        W18281   3.512   8.132   0.226 -0.0575  0.1398 -0.0620
 2813W        W18282  14.600  14.821  11.933 -0.0464 -0.0889 -0.2038
 2814W        W18283  17.352   4.626  12.836  0.4109 -0.1637 -0.2253
 2815W        W18284  16.365   3.405   3.382 -0.2083  0.0493  0.0597
 2816W        W18285  16.581  12.245   3.781 -0.0639 -0.0762 -0.2573
 2817W        W18286   6.332  17.190   1.118  0.0063 -0.0753 -0.0640
 2818W        W18287   6.613   7.786   3.891 -0.4286 -0.0031 -0.1502
 2819W        W18288  17.224  12.454  14.009  0.2683 -0.1076 -0.0837
 2820W        W18289  15.760   6.891   1.977 -0.4680  0.1198 -0.1364
 2821W        W18290   4.806  17.846  11.527  0.1856  0.4031  0.0065
 2822W        W18291   2.409   9.342   4.261 -0.2452 -0.1261 -0.2114
 2823W        W18292   3.569   8.761  11.341  0.2722 -0.2436  0.2254
 2824W        W18293  17.399   7.112   0.515  0.4323  0.1673 -0.2635
 2825W        W18294   6.879  16.128  13.648 -0.0121  0.1774 -0.0935
 2826W        W18295  15.466   3.289   3.048 -0.1275 -0.3095 -0.1566
 2827W        W18296  18.615   6.075  11.988  0.2597 -0.1814  0.4090
 2828W        W18297   9.687   9.421   3.730 -0.1966  0.2322  0.0969
 2829W        W18298   5.279  13.455   3.520  0.1179  0.3374  0.5292
 2830W        W18299   5.291  18.030  14.581 -0.0421 -0.0395  0.0089
 2831W        W18300  14.888   0.234  11.000  0.2055  0.0562  0.0619
 2832W        W18301  11.844   3.024   2.235  0.3673 -0.0996  0.0210
 2833W        W18302  12.939   1.400   3.688  0.0904  0.1330 -0.1820
 2834W        W18303   1.801   6.030   4.491  0.0341 -0.1191 -0.1094
 2835W        W18304   2.529   2.103  14.836  0.0511 -0.1887  0.3410
 2836W        W18305  15.729  14.864  14.638 -0.1849 -0.5047  0.1261
 2837W        W18306  18.633  10.772   2.419  0.1680  0.0640  0.1059
 2838W        W18307  15.814  11.249   3.602  0.0793 -0.1716 -0.1562
 2839W        W18308  18.447   0.024  13.300 -0.3171  0.2264  0.0108
 2840W        W18309   7.122   7.871   3.765 -0.0457  0.0680  0.0728
 2841W        W18310  11.877  16.040   2.012 -0.1808 -0.1182 -0.0215
 2842W        W18311  16.634  16.135   2.013 -0.0920  0.0427  0.0788
 2843W        W18312  10.642  11.374   0.640 -0.1402  0.1436 -0.1239
 2844W        W18313  11.042  18.162   1.097 -0.3177  0.1140 -0.2158
 2845W        W18314  14.721  18.635   4.815 -0.3585 -0.2055  0.1656
 2846W        W18315  13.173   8.285   2.637  0.0647  0.3956  0.1121
 2847W        W18316  15.569  14.911  15.188 -0.0117  0.0608  0.0500
 2848W        W18317  15.236   3.004   4.220  0.1225 -0.0981 -0.2585
 2849W        W18318  13.791   2.401  13.293 -0.3102  0.1360 -0.0556
 2850W        W18319   0.900   4.382   2.707  0.1106  0.0258  0.4121
 2851W        W18320  12.839  13.333  11.860  0.0309 -0.2519  0.2832
 2852W        W18321   9.107   1.527  11.776 -0.3048 -0.2311 -0.0027
 2853W        W18322  18.267  12.418   9.799  0.0333  0.2087  0.0192
 2854W        W18323  18.784   9.579  11.202  0.2116 -0.3156  0.0802
 2855W        W18324   5.030   2.690   3.792 -0.2121 -0.0808  0.4048
 2856W        W18325  11.242   5.071   3.383 -0.2841  0.0422 -0.3938
 2857W        W18326   7.429   8.905  14.405 -0.0489  0.2626 -0.0235
 2858W        W18327   3.728  10.857   9.972  0.0853 -0.2137 -0.0062
 2859W        W18328  15.078  11.664   0.218 -0.1539 -0.2433 -0.0540
 2860W        W18329   0.498  17.199   4.292 -0.2203  0.1417 -0.0489
 2861W        W18330   2.687   8.036   4.052 -0.4833  0.0589  0.0191
 2862W        W18331   1.311   4.591  14.934 -0.3034  0.1527 -0.0067
 2863W        W18332   5.137  12.555  12.940  0.0748  0.0892 -0.1565
 2864W        W18333   7.931  16.972  11.363 -0.1704 -0.3623 -0.1080
 2865W        W18334  17.091   6.367  12.868 -0.0640 -0.3174  0.0215
 2866W        W18335  11.393  14.764  12.271  0.0015  0.1761  0.1171
 2867W        W18336  10.278   3.770  14.771  0.1554 -0.3332 -0.1544
 2868W        W18337   5.919  14.023  13.235  0.1075  0.0701  0.1288
 2869W        W18338  18.912  13.699   5.710  0.1562 -0.0152 -0.1997
 2870W        W18339   4.950   3.852  14.067 -0.1685 -0.1972  0.0898
 2871W        W18340   8.000   6.185   9.966 -0.2174  0.2034  0.1163
 2872W        W18341  18.255   3.000   1.976 -0.1479  0.1919  0.2939
 2873W        W18342  18.047  10.190   2.380 -0.1573 -0.0521 -0.3590
 2874W        W18343   8.227   4.392   3.876 -0.3189  0.2003 -0.1047
 2875W        W18344  15.392  11.505   3.371  0.0614  0.0778  0.3184
 2876W        W18345   7.356   3.349  13.801  0.0441  0.0833 -0.0273
 2877W        W18346  10.584   2.800   1.781  0.1064  0.0914  0.2891
 2878W        W18347  16.705   6.696   2.428  0.1644  0.0684 -0.2029
 2879W        W18348  14.093   0.918   4.285  0.0451  0.1163 -0.1721
 2880W        W18349   6.087   5.022   4.230  0.0779 -0.2516 -0.0319
 2881W        W18350  18.657   9.632   2.046 -0.0026  0.0855 -0.4152
 2882W        W18351   5.170   0.090  11.609  0.0400  0.3233 -0.1131
 2883W        W18352  16.437   6.286  15.233  0.3658 -0.0650 -0.0512
 2884W        W18353  16.020  10.801  15.075 -0.2639  0.0943 -0.2723
 2885W        W18354   6.082   9.034  14.821  0.0335  0.2667 -0.0641
 2886W        W18355   6.418   0.763   4.635  0.1829 -0.0038  0.2648
 2887W        W18356  16.381  14.757   2.204  0.2977  0.2885  0.0696
 2888W        W18357   6.941   9.465   5.873  0.0887 -0.4324 -0.0508
 2889W        W18358  18.205   5.677   0.899 -0.2990 -0.3046 -0.2588
 2890W        W18359  15.766   0.313   5.386  0.1235 -0.2731  0.1369
 2891W        W18360  17.143   4.169   3.863 -0.1233 -0.0933  0.0769
 2892W        W18361  10.280   6.797   1.438  0.0125  0.1398 -0.1116
 2893W        W18362   5.434  16.648  12.357  0.1691  0.0281  0.0296
 2894W        W18363   2.004   5.144   5.580  0.0104  0.2414 -0.1205
 2895W        W18364  13.896   4.368   4.335  0.0678  0.1993  0.0850
 2896W        W18365  15.540  15.472  12.681 -0.1574  0.4548  0.2459
 2897W        W18366   3.608  18.493   5.296 -0.0080  0.0067 -0.0142
 2898W        W18367   9.231   9.122   3.758 -0.4076  0.0938  0.0789
 2899W        W18368   7.979   9.103   0.925  0.0385  0.3210 -0.0575
 2900W        W18369  15.082   2.754   3.788  0.4284  0.0667  0.1042
 2901W        W18370  16.080   9.788   4.966  0.2746 -0.1142 -0.0795
 2902W        W18371   3.427   1.838  11.045  0.2735  0.0909  0.0096
 2903W        W18372   2.592  18.888  15.336  0.0821 -0.1337  0.1459
 2904W        W18373   9.539  17.931  13.023  0.1535 -0.0150  0.1779
 2905W        W18374   4.967  16.624   2.825  0.1200 -0.0003  0.2773
 2906W        W18375   9.571  16.374   2.617  0.1016  0.3185 -0.3296
 2907W        W18376   7.174  14.107   5.291  0.0695 -0.0613 -0.0032
 2908W        W18377   3.660  17.815  14.399  0.1102 -0.3455 -0.1450
 2909W        W18378   4.383   9.743  11.959  0.1076  0.2263  0.0687
 2910W        W18379   2.469  13.331  13.604 -0.0453  0.1001 -0.2724
 2911W        W18380  13.756   9.997  11.117 -0.1441 -0.0241 -0.0704
 2912W        W18381  12.962   7.498   3.638 -0.2755 -0.4861  0.1810
 2913W        W18382   0.090   1.310   1.757  0.1151  0.1063 -0.2169
 2914W        W18383  11.524   8.968  14.541 -0.0100  0.1764  0.1356
 2915W        W18384  10.055  14.606   0.378 -0.0225 -0.0483  0.1823
 2916W        W18385   6.168  13.338   9.445  0.3077 -0.1500  0.0361
 2917W        W18386  13.188   8.211  10.681  0.1237  0.4301  0.2419
 2918W        W18387   3.067   6.149  12.096  0.1228  0.0871  0.0189
 2919W        W18388   9.928   8.350  14.558  0.2151  0.1442  0.1165
 2920W        W18389  10.204  17.245  12.902 -0.2715  0.0545  0.3235
 2921W        W18390  17.307   2.218  12.064  0.0591  0.0646 -0.1516
 2922W        W18391   1.147  15.161   4.358  0.0626  0.3464  0.0656
 2923W        W18392  14.072  18.799   4.052  0.5416  0.3480  0.0984
 2924W        W18393   4.260  15.259   2.962 -0.1325  0.1318  0.0731
 2925W        W18394   0.553   7.908   5.062 -0.0198  0.5816 -0.1592
 2926W        W18395  16.267   9.704   2.206  0.1821  0.2135  0.2840
 2927W        W18396  14.723   3.211  10.801 -0.0027 -0.2269 -0.1707
 2928W        W18397   0.885  15.371   0.186  0.0860 -0.1600  0.1603
 2929W        W18398   7.863  18.703   3.365  0.2402  0.3015  0.4709
 2930W        W18399   3.550   0.315   3.516  0.0407  0.1327  0.1033
 2931W        W18400   2.552  17.986   3.101 -0.0191  0.1408  0.0032
 2932W        W18401   9.794  15.103  14.813 -0.3057  0.0905  0.1124
 2933W        W18402  11.114   1.009   2.979  0.0696 -0.2252  0.2420
 2934W        W18403  16.304   2.504   1.537  0.0326 -0.2637  0.2282
 2935W        W18404  12.006   1.334  13.000  0.3272 -0.0032 -0.1727
 2936W        W18405   9.596  16.155   2.008 -0.2831 -0.1578 -0.1145
 2937W        W18406   2.872  15.768  11.697 -0.2058 -0.0384  0.5531
 2938W        W18407  14.749  13.416  11.583  0.2610 -0.4324 -0.1406
 2939W        W18408   0.340  12.723  13.684  0.1445  0.2354 -0.1010
 2940W        W18409  12.239   4.983   2.022  0.1108 -0.0109  0.0735
 2941W        W18410  10.410   9.465   2.052  0.1356  0.2914 -0.1198
 2942W        W18411   0.566   6.704  14.224  0.1550  0.0081 -0.0972
 2943W        W18412   8.036   1.036  11.248 -0.2036  0.1277  0.1883
 2944W        W18413   0.027  16.178   5.617 -0.3475 -0.1255 -0.0528
 2945W        W18414  11.152  14.646   1.283 -0.0871  0.1071 -0.1649
 2946W        W18415   9.440  15.837   0.667 -0.2915  0.2503  0.0929
 2947W        W18416   2.775  18.749  11.399 -0.0253 -0.4265  0.1066
 2948W        W18417  12.914  12.888   1.669  0.1970 -0.3270 -0.0963
 2949W        W18418  12.780   9.034  12.460  0.2798  0.1042 -0.0535
 2950W        W18419   8.342  16.800   1.962 -0.2305  0.0562  0.2571
 2951W        W18420  15.185   2.116   3.095  0.0502  0.1475 -0.2040
 2952W        W18421  10.062   9.363  11.278 -0.1283 -0.3839  0.1559
 2953W        W18422   6.190   4.954   2.069 -0.3621  0.2046  0.1983
 2954W        W18423   0.345   7.459   5.749 -0.1213  0.1734 -0.1464
 2955W        W18424   2.943  17.989  13.858 -0.0364  0.1322  0.0182
 2956W        W18425   7.700  11.688   2.679  0.2085  0.2969 -0.2609
 2957W        W18426  11.491   4.161   0.683  0.2819 -0.0894 -0.2535
 2958W        W18427   7.925  16.659   4.618 -0.3386  0.0606 -0.0482
 2959W        W18428   5.295   6.996   0.338  0.2293 -0.3191 -0.1225
 2960W        W18429   7.847  12.978   4.974  0.2597  0.4818 -0.0416
 2961W        W18430   3.307   8.339   9.479 -0.1889 -0.0026  0.1766
 2962W        W18431   3.382   3.579  15.273 -0.2529 -0.0119  0.1352
 2963W        W18432   9.069   9.243  12.270  0.3039 -0.0505 -0.0062
 2964W        W18433  16.740  18.732   1.010  0.2362 -0.4769  0.1071
 2965W        W18434   1.540   7.759   0.681 -0.0172 -0.4345  0.3133
 2966W        W18435  14.500  14.441  15.114 -0.2937  0.1616  0.1197
 2967W        W18436  15.373  17.738   1.119 -0.0304  0.0948 -0.0722
 2968W        W18437  18.979  16.853  14.452  0.0373 -0.3498  0.0796
 2969W        W18438   8.409  13.711  10.765  0.1150 -0.0692  0.1842
 2970W        W18439  16.587   3.406   0.618  0.0868  0.1109 -0.1982
 2971W        W18440  13.538   6.037  10.694  0.2149  0.0394  0.1494
 2972W        W18441   8.038  10.425  13.878  0.0015  0.0551  0.0015
 2973W        W18442   0.113  10.854   2.342  0.0406  0.1796  0.0533
 2974W        W18443   2.364   0.553  14.320  0.0698 -0.0316 -0.0340
 2975W        W18444  12.362  17.370   0.130  0.1444  0.4019  0.2994
 2976W        W18445  15.266   2.831   2.914  0.0312 -0.1217 -0.0150
 2977W        W18446  10.258  14.011   3.130  0.1941  0.1649  0.1668
 2978W        W18447   4.159  14.254   3.800  0.0053 -0.1449  0.2489
 2979W        W18448  17.715   7.847  12.632  0.0383  0.0427 -0.0903
 2980W        W18449   9.920   4.638   3.259  0.3420  0.0068 -0.0177
 2981W        W18450   7.854   4.741  13.177  0.1606  0.0991 -0.0112
 2982W        W18451  12.259   0.997   5.226  0.0594  0.2767  0.0859
 2983W        W18452   3.150  14.454  11.013  0.1087  0.0658 -0.3052
 2984W        W18453   5.999   7.013   4.968 -0.3122  0.3441  0.1389
 2985W        W18454  16.021  18.251  11.001 -0.0283  0.3114 -0.1067
 2986W        W18455   0.613   9.402  11.183 -0.0303 -0.2286  0.2271
 2987W        W18456   1.320   4.385  14.410 -0.2033 -0.2137 -0.0504
 2988W        W18457   3.519   8.332   3.003 -0.2053  0.2660 -0.0068
 2989W        W18458  18.627   8.170   3.387  0.0488  0.1489  0.0974
 2990W        W18459  17.257  13.379   1.944 -0.3501 -0.0699 -0.3703
 2991W        W18460   2.575   4.660  13.564 -0.0329 -0.0573  0.3072
 2992W        W18461   3.722   6.336  14.343 -0.0685  0.0776 -0.1013
 2993W        W18462   6.002  15.611   4.497  0.0655  0.0112 -0.0951
 2994W        W18463   1.659   4.146  12.002 -0.0029  0.0040 -0.2373
 2995W        W18464   1.301  16.115  14.014  0.1263  0.1786 -0.3300
 2996W        W18465   3.669  18.882   3.501  0.0131  0.1605 -0.0206
 2997W        W18466   2.707   4.462  11.577 -0.0162  0.1467  0.2401
 2998W        W18467  12.402  10.162  11.006  0.0583 -0.1545  0.3686
 2999W        W18468  12.550   1.838  14.964  0.2836  0.0990 -0.0810
 3000W        W18469   1.903   8.697  10.512 -0.2324 -0.1402 -0.0860
 3001W        W18470  13.737   8.323   2.984 -0.0130 -0.0419  0.1422
 3002W        W18471   4.976  10.091  12.916 -0.0656 -0.0473 -0.2379
 3003W        W18472   4.758  16.150  15.069 -0.0498 -0.0203  0.1302
 3004W        W18473   1.544   7.465   0.153 -0.0934  0.2314  0.1157
 3005W        W18474   8.864   2.728  13.026  0.0077  0.2520 -0.0841
 3006W        W18475   3.207  11.801  13.998  0.0418 -0.1722 -0.0760
 3007W        W18476   0.663   8.180   4.644 -0.0909  0.4334  0.1547
 3008W        W18477  16.122   3.754  12.017 -0.1261  0.1935 -0.0763
 3009W        W18478  15.172  10.109   3.937 -0.1404  0.1552 -0.2509
 3010W        W18479   0.602  16.715   4.927  0.2300  0.1477  0.0552
 3011W        W18480  18.933   6.211  15.266 -0.0013  0.0821 -0.1322
 3012W        W18481  17.144   2.449   5.414 -0.1625 -0.0489 -0.0768
 3013W        W18482  11.041  12.748   9.985 -0.2298  0.1762 -0.0357
 3014W        W18483  15.817   1.113   2.226 -0.1893  0.1439  0.1354
 3015W        W18484  17.193  10.797  12.201 -0.1389 -0.0979 -0.0221
 3016W        W18485   9.046   4.114   5.961 -0.2181  0.0630 -0.0464
 3017W        W18486   0.907   1.280  12.180  0.0476  0.0282 -0.0855
 3018W        W18487   5.080   0.611   1.759 -0.1869  0.0654  0.0360
 3019W        W18488  15.520  11.211  10.775 -0.1007  0.1583 -0.4505
 3020W        W18489   6.475   2.919  14.127 -0.1604  0.1560  0.2123
 3021W        W18490   8.375   5.719  12.556 -0.0882 -0.3240  0.1420
 3022W        W18491   6.917   6.042  10.978  0.0334  0.0901  0.1224
 3023W        W18492   4.461   9.931   3.153 -0.1541 -0.0483 -0.1010
 3024W        W18493   7.554  18.163   4.276  0.1454  0.3183 -0.1870
 3025W        W18494  18.814  17.057  12.710  0.0252  0.1010 -0.0660
 3026W        W18495   5.630  10.817  13.758 -0.0278  0.0183  0.2018
 3027W        W18496   1.746  10.315   1.537  0.0599 -0.1145 -0.3495
 3028W        W18497   8.921   8.260  13.904 -0.2271  0.0769  0.0027
 3029W        W18498  18.848  18.509  10.201  0.2594  0.0513 -0.2233
 3030W        W18499   7.186  11.556   0.302  0.1466  0.0883  0.0788
 3031W        W18500  18.130   0.631  10.700 -0.0246 -0.1262 -0.0814
 3032W        W18501  11.535  12.982  11.803 -0.0994 -0.3320 -0.0965
 3033W        W18502  12.064  10.986  14.067 -0.4055  0.0059 -0.1126
 3034W        W18503   1.665  18.347   2.700 -0.0887 -0.0280  0.0832
 3035W        W18504   1.033  10.376   3.285 -0.1448 -0.1260 -0.1292
 3036W        W18505  16.375   6.350  12.311  0.2623 -0.0658  0.0191
 3037W        W18506   8.283   0.686   2.578 -0.1042  0.0121  0.0179
 3038W        W18507   1.477   3.430  11.841  0.0539 -0.1937 -0.4484
 3039W        W18508  14.159  10.586   4.734  0.1694  0.0763 -0.3794
 3040W        W18509   5.851   1.116  12.203  0.0644  0.0877 -0.2661
 3041W        W18510   1.283   0.827  12.067  0.3415 -0.1433  0.2629
 3042W        W18511   6.258   9.776   1.919 -0.2348  0.0267 -0.1295
 3043W        W18512   1.623  10.542  10.654 -0.0615 -0.1446 -0.1103
 3044W        W18513  14.446   6.540  12.922  0.0424  0.1113 -0.1518
 3045W        W18514   7.798  15.645  10.933 -0.0498 -0.0389  0.0475
 3046W        W18515  14.519   8.544   2.987 -0.0908 -0.1878 -0.1001
 3047W        W18516   7.921  12.698  10.894  0.0474 -0.0251 -0.2606
 3048W        W18517   5.378   5.892   2.593 -0.3056 -0.0340  0.1068
 3049W        W18518   9.294   0.989  11.035  0.3211  0.2127  0.0294
 3050W        W18519   9.235  13.241   3.325 -0.2895 -0.1254 -0.3091
 3051W        W18520   0.175  14.766  14.653 -0.0363  0.0540 -0.2268
 3052W        W18521  18.875   5.946   3.827  0.2198 -0.0121 -0.1793
 3053W        W18522  16.823   7.549  15.192 -0.1785  0.1090  0.0746
 3054W        W18523  10.165   0.706   4.019  0.3970 -0.2394 -0.4492
 3055W        W18524  13.965   0.782   3.308 -0.0454  0.1154 -0.0143
 3056W        W18525  13.530   9.847  10.636  0.0770 -0.1248 -0.1135
 3057W        W18526   7.866   1.724  14.939  0.5364 -0.2056 -0.1385
 3058W        W18527  10.553  11.628   4.302  0.3159  0.1842  0.0970
 3059W        W18528   9.325   4.532   2.102  0.1307 -0.0494  0.0738
 3060W        W18529   4.333   1.405   2.918 -0.0640 -0.0781 -0.3889
 3061W        W18530  16.090   1.248   5.188  0.0987  0.2161 -0.0800
 3062W        W18531  16.770  18.492  12.581 -0.1771 -0.2322 -0.0497
 3063W        W18532  13.282   6.589   0.364 -0.0678 -0.0465  0.0060
 3064W        W18533   4.133  11.960  13.538  0.1847 -0.0785 -0.3846
 3065W        W18534   5.707  11.736  14.684  0.0779  0.0477 -0.2688
 3066W        W18535  12.933   4.502  12.953 -0.1098 -0.2717 -0.2131
 3067W        W18536  17.604  10.008   1.672 -0.2983  0.0991 -0.0021
 3068W        W18537  11.618   4.192  11.865  0.1554 -0.0231 -0.0357
 3069W        W18538   2.546   3.750  11.089 -0.3879  0.2252 -0.2453
 3070W        W18539  16.721   5.349  13.291 -0.2572  0.1669 -0.3023
 3071W        W18540  16.583  13.439  12.602  0.1337 -0.5008  0.2456
 3072W        W18541   8.029  10.850  11.569 -0.2464  0.0653 -0.2083
 3073W        W18542  14.679   9.063  11.278 -0.5697 -0.1948  0.3303
 3074W        W18543   4.619   1.931   1.747  0.1487 -0.1243 -0.1488
 3075W        W18544   2.259  17.456  12.410  0.0129 -0.3006  0.1543
 3076W        W18545   0.698  15.955  11.930  0.0277  0.0047 -0.4288
 3077W        W18546  18.634   1.666   1.732 -0.0586 -0.2587  0.4441
 3078W        W18547   6.822  12.383   5.689  0.0982 -0.0217  0.3227
 3079W        W18548  11.605   4.877   0.286 -0.1047 -0.1718 -0.0744
 3080W        W18549  10.645   5.616  14.895 -0.4213  0.1431 -0.4390
 3081W        W18550  12.796  18.838  14.514 -0.2044  0.0200  0.4980
 3082W        W18551   5.774   2.465   0.217 -0.2877  0.0343  0.1753
 3083W        W18552  17.181  11.930   4.484  0.3038  0.1807 -0.4246
 3084W        W18553   3.890  15.250   3.867 -0.1829 -0.0902  0.4124
 3085W        W18554   5.743  16.018   4.444 -0.0553 -0.0805  0.2013
 3086W        W18555   7.748  16.138   0.743  0.1108  0.2188 -0.1069
 3087W        W18556   2.632  15.090   3.725 -0.0462 -0.1121 -0.2563
 3088W        W18557  12.095  17.668   0.835 -0.1408 -0.0598 -0.1801
 3089W        W18558  12.813   4.843  10.980  0.1881 -0.0869  0.3574
 3090W        W18559   4.986  13.913   0.132 -0.0544 -0.3419  0.2076
 3091W        W18560   1.391   5.652   5.781  0.0617 -0.1050  0.0094
 3092W        W18561   9.710   3.114   0.257 -0.2127  0.1973 -0.0693
 3093W        W18562   5.793   8.004  11.319  0.1857  0.0029  0.1779
 3094W        W18563   3.110  17.910   6.004 -0.2005 -0.0251  0.1992
 3095W        W18564   1.394   7.989   4.053  0.0260  0.4071  0.0327
 3096W        W18565  16.925   2.235  12.476 -0.1344  0.0008  0.0448
 3097W        W18566  12.716   5.818  10.258 -0.0106  0.2036  0.1366
 3098W        W18567   0.217   5.337   3.386 -0.2064  0.1864  0.2427
 3099W        W18568   8.870   8.351   2.455  0.1962  0.0979 -0.3894
 3100W        W18569  15.503   7.293  13.412  0.3474  0.5088 -0.1039
 3101W        W18570   4.521   1.898  14.980 -0.0479  0.1273 -0.1630
 3102W        W18571   8.681   5.181   2.394  0.0128 -0.1529  0.1478
 3103W        W18572   4.630   5.326  11.973 -0.3438 -0.3070 -0.1662
 3104W        W18573   9.056  10.607   5.047 -0.2738  0.1220 -0.1632
 3105W        W18574   3.079  18.596  11.021 -0.0487 -0.0929 -0.1394
 3106W        W18575   8.953  14.777  10.751  0.1277  0.1307  0.2598
 3107W        W18576  16.820  13.761   0.893 -0.0479  0.0815 -0.1338
 3108W        W18577  12.020  16.280  11.383 -0.2688 -0.1587  0.2070
 3109W        W18578   6.169   0.273  14.845 -0.1512  0.1468  0.1107
 3110W        W18579   9.552   1.254  14.220 -0.1394 -0.2329  0.1850
 3111W        W18580   0.361   6.487   3.393  0.1699  0.1832  0.0424
 3112W        W18581  17.247   3.842   4.327 -0.2400 -0.0495  0.3004
 3113W        W18582  15.758   7.729   4.868  0.3385 -0.3578  0.3230
 3114W        W18583   0.922  18.515  11.553  0.1804 -0.2125  0.1045
 3115W        W18584  18.182  12.953  11.149  0.2076 -0.1442 -0.0194
 3116W        W18585  14.261   1.222   1.297  0.0274  0.0331 -0.0448
 3117W        W18586   5.755  13.236   9.791 -0.3403 -0.1863 -0.1161
 3118W        W18587  10.610   9.837   9.290 -0.0404 -0.0078 -0.4590
 3119W        W18588   4.233  13.308  10.415 -0.1540  0.0849  0.2884
 3120W        W18589   6.179  15.657   1.180 -0.3151  0.0949 -0.2714
 3121W        W18590  18.640   2.352  11.106  0.1600 -0.1933  0.0673
 3122W        W18591   5.520   9.825  13.537  0.0351 -0.4166 -0.2306
 3123W        W18592   8.432  15.279   4.946 -0.0227  0.0166  0.2179
 3124W        W18593   3.556   3.689   3.447 -0.2729  0.0007  0.2768
 3125W        W18594  13.006  12.003   3.233 -0.0494  0.1973  0.2327
 3126W        W18595  13.044  12.038  11.287  0.1922 -0.0399 -0.0154
 3127W        W18596   7.931   6.429  14.587 -0.1842 -0.0063  0.2081
 3128W        W18597  14.607   2.851   3.011 -0.2031  0.2862 -0.2910
 3129W        W18598   3.370  10.913   2.926  0.2042  0.1958  0.1536
 3130W        W18599  13.242   5.879  13.099 -0.1333 -0.0281  0.1248
 3131W        W18600   5.286   3.420   0.781  0.2064 -0.0739  0.3300
 3132W        W18601   4.082   6.311   1.867  0.2281  0.1915  0.0544
 3133W        W18602  18.661   9.818   4.316  0.2826  0.1652 -0.2114
 3134W        W18603   0.522  18.688   3.592 -0.0370  0.0013 -0.1613
 3135W        W18604   4.681   6.691   1.978 -0.1339  0.2373  0.0188
 3136W        W18605  17.740   2.311   2.653 -0.2462  0.1775  0.0952
 3137W        W18606   5.371   7.516   4.150 -0.1991  0.1328 -0.2227
 3138W        W18607   2.483   5.909   1.776 -0.0037 -0.0008  0.3308
 3139W        W18608   3.032   9.112   1.011  0.0211 -0.0627 -0.3139
 3140W        W18609   7.987   8.044   3.190  0.3599 -0.1813 -0.0647
 3141W        W18610  13.856  12.405  13.846 -0.0117 -0.1823 -0.1586
 3142W        W18611   2.107   5.486   2.632 -0.0410  0.5264 -0.2029
 3143W        W18612  17.663  16.323  14.161  0.0474  0.2652  0.1783
 3144W        W18613   5.750   0.441   5.373 -0.0515 -0.1913 -0.4546
 3145W        W18614   4.903   5.703   3.962 -0.1287  0.3117 -0.0659
 3146W        W18615  16.145   1.045  12.567  0.0489  0.2820  0.2058
 3147W        W18616  14.251  10.886   0.011 -0.2334 -0.3053  0.3719
 3148W        W18617   4.745   2.386  12.353 -0.3329  0.1885  0.3338
 3149W        W18618   3.106   6.901  10.225 -0.2595 -0.1406  0.1826
 3150W        W18619   9.132  13.113   4.471  0.0151 -0.2467  0.1731
 3151W        W18620   4.032   4.177   3.058 -0.1457  0.2702 -0.2066
 3152W        W18621   3.109   7.958  13.750 -0.0784  0.0430 -0.2865
 3153W        W18622  18.872  10.883  15.090 -0.1710  0.1451  0.1434
 3154W        W18623  11.057   2.212   2.581  0.1586 -0.0346 -0.1142
 3155W        W18624  13.917   3.787   5.619 -0.1574  0.0230  0.3333
 3156W        W18625   7.698  16.077  12.333  0.0049 -0.1957  0.2793
 3157W        W18626  12.849   3.515  14.128 -0.1995  0.0593 -0.1543
 3158W        W18627  16.803   5.833  13.546  0.1138 -0.0148  0.3343
 3159W        W18628  12.337   4.135   0.645 -0.3337 -0.3704  0.2129
 3160W        W18629   4.382   8.961  13.753  0.4585 -0.4271  0.0978
 3161W        W18630   1.666   8.094   4.811  0.0783  0.1734 -0.0999
 3162W        W18631   0.874  14.952  11.850 -0.0160 -0.2366 -0.1014
 3163W        W18632  18.170   4.402   5.321 -0.3450 -0.1445  0.2608
 3164W        W18633  14.571   8.944  11.757 -0.0036 -0.2317  0.0162
 3165W        W18634   9.644  17.811  14.000 -0.3191 -0.2234  0.3049
 3166W        W18635  15.115   1.369   4.984  0.0298 -0.2018  0.1485
 3167W        W18636  17.521  12.016   2.805 -0.1355 -0.0591 -0.0772
 3168W        W18637   3.429   7.788   0.693  0.0357  0.1042  0.0909
 3169W        W18638   8.574   4.399  14.573  0.1444  0.1568  0.2841
 3170W        W18639   8.009  14.195  11.190 -0.2969  0.3127 -0.0068
 3171W        W18640   1.047  11.437  10.707 -0.0952  0.0974  0.2308
 3172W        W18641   4.653  17.500  14.235  0.2393  0.0019 -0.0771
 3173W        W18642  16.793   9.316  11.370  0.2971  0.1611  0.1463
 3174W        W18643   3.161   1.324  11.534 -0.1886  0.3306 -0.0313
 3175W        W18644   1.645   7.694   2.254  0.0705 -0.3862  0.0569
 3176W        W18645   5.486  15.643  13.680  0.3515 -0.2533  0.0363
 3177W        W18646  18.856  11.161   4.931 -0.1342  0.0341  0.1189
 3178W        W18647   8.728  11.247  14.704 -0.2496  0.0575 -0.2954
 3179W        W18648   8.482  13.074   1.332 -0.1355 -0.2764 -0.1377
 3180W        W18649  18.847   1.026  10.325  0.1939 -0.1061  0.0942
 3181W        W18650   6.947  10.882  11.653 -0.1727 -0.0508  0.1348
 3182W        W18651   7.628   8.399   6.002 -0.2157  0.1102 -0.0433
 3183W        W18652   3.278   8.569   3.493  0.0755 -0.2716  0.1037
 3184W        W18653   8.896   2.536  11.901 -0.0343 -0.1145 -0.2569
 3185W        W18654   2.327  12.211  11.665 -0.2236 -0.1749 -0.0665
 3186W        W18655  16.882  12.133   2.701  0.1860  0.0970 -0.0130
 3187W        W18656   6.167   4.818  13.552 -0.0989 -0.1189  0.4149
 3188W        W18657  15.261   6.643  14.042 -0.1384  0.1026 -0.0349
 3189W        W18658   8.375  11.242   0.793 -0.1129  0.0929  0.0125
 3190W        W18659   7.995   9.621   4.562  0.2635 -0.0672  0.0276
 3191W        W18660  16.975   6.852  14.724  0.2404  0.1460 -0.1725
 3192W        W18661   9.293   2.080  14.694  0.1340  0.0137  0.1760
 3193W        W18662   8.618   2.147  10.800  0.0038  0.1285 -0.0197
 3194W        W18663   9.186   7.419   0.860  0.1922  0.0416  0.1311
 3195W        W18664   5.418  12.194   3.137 -0.1376 -0.2751  0.0690
 3196W        W18665  19.004   4.387   3.704  0.2338 -0.1465  0.1694
 3197W        W18666   2.802   0.752  15.130  0.0938 -0.0715  0.0430
 3198W        W18667  10.120   0.959   0.953 -0.1618 -0.0609  0.1264
 3199W        W18668   1.988  14.736   2.884 -0.1928 -0.1264  0.0015
 3200W        W18669   8.484   3.446   0.941 -0.1953 -0.0723 -0.1547
 3201W        W18670   7.967  13.399   0.860  0.2404 -0.1088 -0.2611
 3202W        W18671   2.345   5.750   5.085 -0.0546  0.1628 -0.0261
 3203W        W18672  11.553   7.681  14.147  0.0482 -0.0314 -0.2012
 3204W        W18673   5.132  14.901   3.489  0.0419 -0.1712  0.2622
 3205W        W18674   8.896   3.908  13.526  0.1441 -0.0344  0.0549
 3206W        W18675  17.020   1.213   1.071  0.4197  0.0951  0.2914
 3207W        W18676   2.939  17.701  13.048  0.2290 -0.0376  0.2277
 3208W        W18677   6.867   4.985   0.089  0.0115  0.4805  0.0267
 3209W        W18678  14.537   4.681  14.064 -0.2344 -0.1855 -0.1567
 3210W        W18679  16.417  14.002  14.743  0.3638  0.1739  0.1852
 3211W        W18680  16.250   2.319   1.075  0.2753  0.0598 -0.2169
 3212W        W18681   8.743  16.814  11.630 -0.0544 -0.2180  0.1406
 3213W        W18682  12.601  11.659   3.090 -0.1974 -0.0622 -0.0923
 3214W        W18683  16.606  10.150   3.873  0.0501  0.1193 -0.0837
 3215W        W18684   0.348  17.135   0.487  0.0029  0.0058 -0.0074
 3216W        W18685   8.289  17.578  11.270  0.0031  0.2339  0.0903
 3217W        W18686   3.485   4.188   2.229 -0.1328  0.1069 -0.2926
 3218W        W18687  17.731   5.782  11.520  0.2218 -0.3352 -0.4374
 3219W        W18688  13.857   9.004  15.008  0.0129 -0.0435  0.3907
 3220W        W18689   6.591  16.128  15.077 -0.1166 -0.0281  0.0999
 3221W        W18690   1.159   1.374  10.014 -0.2113 -0.3115  0.0200
 3222W        W18691   3.031   1.087   0.996 -0.1179 -0.0541  0.0900
 3223W        W18692  11.552  16.358  11.551  0.0422 -0.0427 -0.1363
 3224W        W18693  12.491   5.239   5.096 -0.0033 -0.2656  0.1422
 3225W        W18694   4.276  10.348   2.939 -0.1668  0.2536 -0.1425
 3226W        W18695   4.535   3.985   3.005  0.1537 -0.0882 -0.0910
 3227W        W18696   6.224  13.424  15.355  0.1880  0.0529 -0.0222
 3228W        W18697   7.105   3.789  13.608 -0.1769 -0.0078  0.3420
 3229W        W18698  12.944  12.478   2.576  0.0548 -0.0159 -0.2223
 3230W        W18699  13.612  15.622  13.587 -0.1911 -0.1107  0.1239
 3231W        W18700   8.532   9.956  11.313 -0.1550  0.2459 -0.3030
 3232W        W18701   2.789  18.707   1.099 -0.1581 -0.1802 -0.2205
 3233W        W18702   7.317  14.596  11.738  0.2929 -0.0635 -0.3132
 3234W        W18703   4.511  16.076   1.093  0.1172 -0.3711 -0.2841
 3235W        W18704   2.113  16.872  14.863 -0.0344  0.0592  0.1412
 3236W        W18705  17.571  14.394   1.421 -0.0550 -0.1083  0.0909
 3237W        W18706  14.668  11.232  14.030 -0.1555 -0.0197  0.3497
 3238W        W18707   4.903  14.625  11.975  0.2722  0.1630 -0.2156
 3239W        W18708   5.837  14.072  12.238  0.1736 -0.0657 -0.2155
 3240W        W18709   4.216  16.046  10.491  0.0456 -0.2714  0.1579
 3241W        W18710  12.775   5.711   2.022  0.5375 -0.3157  0.4230
 3242W        W18711  13.076   5.439   3.508 -0.1468  0.2919 -0.3521
 3243W        W18712  17.893   4.082   1.053  0.0203  0.0239  0.0916
 3244W        W18713   8.402  12.748  10.654  0.1463  0.0070 -0.0307
 3245W        W18714  13.069  13.731   2.046 -0.0947  0.0482 -0.2456
 3246W        W18715  10.330  15.764  12.367  0.2545  0.0013 -0.2036
 3247W        W18716   5.267  17.556   4.601 -0.1018  0.2127 -0.2120
 3248W        W18717   8.579  16.520  13.817 -0.1114 -0.0218  0.1407
 3249W        W18718  15.507   6.992   2.817 -0.0625  0.0795  0.3107
 3250W        W18719   4.875   6.773   2.807  0.2312  0.3393 -0.0356
 3251W        W18720   9.115  10.899   2.101  0.0786  0.4181  0.1101
 3252W        W18721   5.680  18.452  10.672 -0.0525 -0.1278 -0.3028
 3253W        W18722   3.612   0.523   4.088  0.0603 -0.1604 -0.1014
 3254W        W18723   7.290   1.007  11.405  0.2857  0.2776  0.1279
 3255W        W18724   6.665   6.849  12.175  0.0867  0.3835 -0.3342
 3256W        W18725  18.360  12.659   0.727 -0.1608  0.2207 -0.0755
 3257W        W18726   5.970  12.528   0.239 -0.3022  0.2636 -0.1084
 3258W        W18727  17.386  10.510   1.037  0.2731  0.0991 -0.1241
 3259W        W18728   2.239   7.407   5.991 -0.2380 -0.0661  0.5291
 3260W        W18729  12.675   9.890  13.525 -0.0732  0.0797 -0.1581
 3261W        W18730   1.987  11.335  12.943 -0.1274  0.4063 -0.0378
 3262W        W18731  11.434   5.711   2.975  0.1543 -0.2221 -0.0283
 3263W        W18732  17.845   4.971  10.777 -0.3314 -0.3809  0.1346
 3264W        W18733  16.106  16.936  11.620  0.1789 -0.3084 -0.1514
 3265W        W18734   3.085  14.663  15.330  0.0472 -0.2114 -0.0936
 3266W        W18735  12.214   4.992  13.798 -0.2683  0.1121 -0.0042
 3267W        W18736  14.508   8.802  13.824 -0.2487  0.2839  0.1096
 3268W        W18737   7.994  14.116  13.887  0.0850  0.3731 -0.1284
 3269W        W18738  16.894   0.371  14.108 -0.2481 -0.0699  0.3536
 3270W        W18739  16.214  14.599   2.886 -0.1359 -0.1160 -0.1423
 3271W        W18740   6.198   5.486   0.627 -0.0350  0.3066 -0.3591
 3272W        W18741  11.334   2.575   0.558  0.1911  0.0335 -0.0541
 3273W        W18742   1.399  15.649  14.363 -0.0971  0.1420  0.0078
 3274W        W18743  10.253  12.639  12.380 -0.1091  0.1053  0.1308
 3275W        W18744   7.176   5.751   2.075  0.2226  0.0498  0.1760
 3276W        W18745  15.012   7.349  10.726 -0.0836  0.0103  0.0965
 3277W        W18746  14.628   9.868  13.847 -0.0266  0.0745  0.0007
 3278W        W18747   1.862  12.215   1.060 -0.4187  0.0520 -0.2986
 3279W        W18748   8.126   2.076   1.603 -0.1462 -0.3229 -0.1284
 3280W        W18749  13.821   7.885  11.516 -0.0377  0.1517  0.1794
 3281W        W18750   7.031   3.485  15.043 -0.1286  0.0706 -0.0989
 3282W        W18751   7.984   8.101   0.742 -0.0598  0.2403 -0.3212
 3283W        W18752   6.226   3.385  13.499  0.2560  0.2195 -0.3013
 3284W        W18753   6.285   5.809   0.219 -0.0115  0.4113  0.1368
 3285W        W18754  14.384   7.479  10.573 -0.1047  0.0388 -0.0671
 3286W        W18755  13.227   9.605   2.053 -0.0200  0.1607  0.1397
 3287W        W18756   8.043  12.734  14.129  0.3453  0.0593 -0.0679
 3288W        W18757   2.160   3.413   4.741 -0.0662  0.2655 -0.3633
 3289W        W18758   1.860  17.802  13.923 -0.1206 -0.0982 -0.1402
 3290W        W18759   1.493  15.195  11.740  0.0275  0.1513  0.2600
 3291W        W18760   9.231  18.882   5.188  0.0816 -0.1670 -0.0915
 3292W        W18761   4.368  11.786  13.937 -0.3325  0.0432  0.1542
 3293W        W18762   6.405  10.609  11.757  0.3973  0.0518  0.2903
 3294W        W18763  17.949  14.963  12.613 -0.1713 -0.3284 -0.1198
 3295W        W18764   2.736   1.591  15.133 -0.0552  0.0876 -0.0276
 3296W        W18765  12.408  18.494   1.104  0.4023 -0.0309  0.0743
 3297W        W18766   0.424  14.999  13.112  0.0560  0.0010 -0.0718
 3298W        W18767   9.754  18.977   2.096  0.2945  0.0740  0.3221
 3299W        W18768  18.380   3.557   4.879  0.1320 -0.0575  0.1537
 3300W        W18769   7.470   8.818  13.233  0.0195 -0.0078 -0.0728
 3301W        W18770  10.297  15.651   0.504  0.0773 -0.0922 -0.1103
 3302W        W18771   1.193  18.008  13.128  0.0216  0.2659 -0.1318
 3303W        W18772  10.350   7.921  10.429 -0.3239 -0.3006 -0.3209
 3304W        W18773  18.942  18.271  10.761 -0.1269  0.4310  0.0081
 3305W        W18774   8.265   5.721  13.176 -0.1973  0.1714 -0.1627
 3306W        W18775  14.146   3.699  11.459  0.0065  0.1837 -0.1621
 3307W        W18776  14.180   0.595   1.476  0.1467 -0.1624 -0.1515
 3308W        W18777   2.804  12.979   3.606 -0.2698  0.1132 -0.2710
 3309W        W18778  12.089   8.509   4.774  0.1723  0.2518  0.0109
 3310W        W18779   8.801  15.045  11.274  0.3134 -0.2143 -0.2013
 3311W        W18780   7.336   7.057   3.930 -0.0560  0.1922  0.0024
 3312W        W18781   9.998  18.152   3.478 -0.1941 -0.2751 -0.3496
 3313W        W18782  10.472  14.777   0.033  0.0330  0.1281 -0.1660
 3314W        W18783   9.773   7.940   1.736  0.1686 -0.2682  0.0784
 3315W        W18784   6.605   4.699  15.132  0.1141  0.0115  0.1691
 3316W        W18785  12.792  12.040  15.262 -0.1694  0.5056 -0.1067
 3317W        W18786  15.862   4.395  10.729 -0.0113  0.0350  0.2138
 3318W        W18787  17.322   0.909  11.257 -0.0313  0.1077 -0.1278
 3319W        W18788   2.496   2.083  11.530 -0.1795 -0.1473 -0.0360
 3320W        W18789  13.177   0.874   0.302  0.0746 -0.2469 -0.1275
 3321W        W18790  10.124  12.274  10.871 -0.0626  0.1204 -0.0768
 3322W        W18791   8.094  12.546   4.053  0.2102 -0.0626  0.0189
 3323W        W18792   6.725   4.287  10.938  0.0297  0.0228  0.1962
 3324W        W18793   6.823   2.293   2.325  0.0400  0.0768  0.1807
 3325W        W18794   4.379   0.868  12.278  0.1556 -0.1844  0.1600
 3326W        W18795  12.589  12.554  12.063 -0.2028 -0.0348 -0.1334
 3327W        W18796  15.802   4.309  12.636  0.1626 -0.0254 -0.1844
 3328W        W18797  13.821   1.761  12.025 -0.3768 -0.0454 -0.0502
 3329W        W18798   7.458  13.260   3.832  0.1255 -0.3302  0.1563
 3330W        W18799  16.793  15.119   5.048  0.1117  0.1229 -0.1584
 3331W        W18800  11.691   1.334  10.201 -0.1952  0.0004  0.0330
 3332W        W18801  13.898   6.390   2.948  0.1103  0.1101  0.0432
 3333W        W18802   6.053  15.129  13.362 -0.1664 -0.0424 -0.0137
 3334W        W18803  17.543  10.339   4.027  0.1749  0.1694 -0.0240
 3335W        W18804   4.351   2.971   4.128  0.1530  0.1049  0.1638
 3336W        W18805   0.240  12.288  11.416 -0.2738 -0.0685 -0.2643
 3337W        W18806   8.321   8.259  11.859 -0.1254  0.1091  0.0088
 3338W        W18807  16.290  10.156   5.179 -0.2347 -0.0997  0.0612
 3339W        W18808   4.544   1.356  10.553  0.0249 -0.2212 -0.1316
 3340W        W18809   3.133   4.742   1.520 -0.0895 -0.2275  0.4805
 3341W        W18810  17.159  14.924  13.742  0.1079 -0.3472 -0.0451
 3342W        W18811   0.901   8.903   0.488 -0.1268  0.3294  0.3801
 3343W        W18812   4.425  17.390   6.114  0.0509 -0.2103  0.1738
 3344W        W18813  17.008   9.380  12.772 -0.2338  0.0368 -0.1519
 3345W        W18814   5.910  16.864  12.242 -0.0525 -0.1896  0.0210
 3346W        W18815   9.717   6.649  13.596 -0.1957  0.0449 -0.0586
 3347W        W18816  10.542   3.378  14.515  0.1604  0.0374 -0.1664
 3348W        W18817  16.218  18.146   1.927  0.2288  0.1453  0.0168
 3349W        W18818  18.596   9.240  14.987  0.1541  0.2568 -0.0709
 3350W        W18819   2.076  11.348   3.011  0.2151 -0.3202  0.3209
 3351W        W18820  13.650  15.743   4.177  0.0029  0.1389  0.0103
 3352W        W18821   6.191  16.080   0.025  0.3282 -0.1869  0.0264
 3353W        W18822  18.232   2.840   4.775 -0.2686 -0.0257 -0.0591
 3354W        W18823   0.839  17.795   0.007  0.0917  0.4049 -0.1579
 3355W        W18824   3.755  17.724  13.359  0.1629  0.1067  0.0473
 3356W        W18825   8.362  13.407   0.348 -0.1941  0.1534 -0.1016
 3357W        W18826  11.010   8.260   0.329 -0.0076  0.3943  0.3397
 3358W        W18827  14.905   4.018   2.444 -0.2508  0.1469  0.1573
 3359W        W18828   6.057   1.489  13.828 -0.0758  0.3058 -0.1521
 3360W        W18829  17.581  16.102   9.439 -0.0226  0.2691 -0.2594
 3361W        W18830  11.116   7.884  12.349  0.1376 -0.1850  0.0646
 3362W        W18831  15.358   0.830   2.528  0.0887  0.2055 -0.1484
 3363W        W18832   2.985  10.581   2.879  0.2067  0.0568 -0.1817
 3364W        W18833   8.386   8.740   3.821 -0.0288  0.0294  0.4516
 3365W        W18834  14.297  13.222  12.450 -0.1776 -0.0805 -0.0384
 3366W        W18835  16.047   1.581  11.910  0.0508  0.2689  0.0471
 3367W        W18836  13.540  18.611  14.338  0.0537 -0.0892 -0.1061
 3368W        W18837   5.182   4.004  14.542  0.0583 -0.2909 -0.1791
 3369W        W18838   0.807  13.927   1.808 -0.3436  0.3688  0.3253
 3370W        W18839  15.913  14.956  10.059  0.1697  0.0025  0.1752
 3371W        W18840  17.023   5.122  12.475 -0.0883  0.2157 -0.2215
 3372W        W18841  14.737   2.295  15.289 -0.1459 -0.0684 -0.1118
 3373W        W18842  13.278  14.838  13.953 -0.2393 -0.0253  0.2649
 3374W        W18843  16.374   2.035  13.421 -0.2536  0.2799 -0.2033
 3375W        W18844  17.283   0.365   0.852  0.2943 -0.0245 -0.1670
 3376W        W18845  10.417   4.439   0.215  0.0838  0.1559 -0.1284
 3377W        W18846  10.421  11.443  12.323 -0.2400 -0.1940 -0.1243
 3378W        W18847   9.269  15.868  15.010  0.1332  0.0463  0.1148
 3379W        W18848   7.099  10.639  15.112  0.1052  0.1871 -0.1211
 3380W        W18849  18.940   1.152   3.630  0.2803 -0.0370  0.2638
 3381W        W18850  18.030  12.554  11.388  0.0234 -0.0460 -0.1659
 3382W        W18851  10.878   6.257  12.260 -0.0323 -0.0035 -0.1016
 3383W        W18852   3.407  10.927   1.546 -0.0420 -0.2629 -0.1507
 3384W        W18853   2.907   7.878  12.527  0.1872 -0.0488  0.0927
 3385W        W18854   3.819   4.966   5.561  0.5404 -0.1266  0.1912
 3386W        W18855   8.670  10.701  12.810 -0.3298 -0.0972 -0.0465
 3387W        W18856  17.210  17.142  12.908 -0.0434 -0.0522 -0.2089
 3388W        W18857  14.573  13.212  11.138  0.0906  0.3218  0.0869
 3389W        W18858  13.638  12.128   2.788  0.3985  0.1963 -0.1387
 3390W        W18859   9.696  18.124   1.542  0.1111  0.3760  0.1188
 3391W        W18860  11.305  13.470   1.725  0.1532 -0.0526 -0.0090
 3392W        W18861   6.797   6.546   0.824  0.0070 -0.0457 -0.0281
 3393W        W18862  11.359   0.308  15.061  0.1578  0.2420 -0.0311
 3394W        W18863  15.054   3.115   3.350 -0.3792  0.0396  0.1470
 3395W        W18864  11.272   3.203   5.489 -0.1588  0.0863 -0.1504
 3396W        W18865   7.514  11.495  13.875 -0.1517 -0.1682  0.1215
 3397W        W18866   3.021   7.208   5.105 -0.1674  0.1672  0.0421
 3398W        W18867  17.728   6.561  14.889 -0.3187 -0.2184 -0.0598
 3399W        W18868   3.248  12.031   4.486 -0.0265  0.0353  0.1992
 3400W        W18869   6.562  18.293   3.437  0.2536 -0.2204  0.1291
 3401W        W18870  10.721   4.298   2.202 -0.2080 -0.1616  0.0225
 3402W        W18871   0.697   3.765   1.617  0.0324 -0.1599  0.3234
 3403W        W18872  15.388   5.344  12.716 -0.1175 -0.1904  0.0042
 3404W        W18873   4.868   4.402   3.770 -0.1743  0.0747 -0.2173
 3405W        W18874  15.123   3.195  13.094 -0.2085  0.3766  0.0850
 3406W        W18875   8.949   1.871   1.772 -0.1857 -0.0278  0.3249
 3407W        W18876   5.938   2.872  12.287 -0.0619  0.1466 -0.0873
 3408W        W18877   3.326   5.068   1.104 -0.0743 -0.2270  0.1213
 3409W        W18878   2.805   1.277  12.473 -0.0260 -0.1060 -0.0183
 3410W        W18879  11.852  10.183  12.319 -0.0795 -0.0345  0.1219
 3411W        W18880   5.357   1.159  14.009 -0.0112  0.1899  0.0620
 3412W        W18881  15.027   4.918   9.455  0.1085 -0.0464 -0.0454
 3413W        W18882   9.550  11.642  14.455  0.0705 -0.0481  0.0345
 3414W        W18883   0.240  11.382   5.073 -0.0566 -0.2812  0.0048
 3415W        W18884   4.032   8.914  10.323  0.2548  0.1829 -0.1197
 3416W        W18885   7.656  18.895   4.796 -0.2041  0.1745  0.2195
 3417W        W18886   8.683   9.592   2.568 -0.0754  0.0651  0.2231
 3418W        W18887  18.707   7.415   2.841  0.0233  0.1370 -0.0614
 3419W        W18888  16.708   3.795   2.525  0.1823 -0.2966  0.0291
 3420W        W18889  12.607   4.262   0.217  0.0742  0.0389  0.0909
 3421W        W18890  15.018   8.868  13.680  0.1043 -0.0110  0.2571
 3422W        W18891  18.513  16.197   1.628 -0.2508 -0.4458  0.5823
 3423W        W18892   5.023  12.322   4.581 -0.1153 -0.0474  0.2772
 3424W        W18893  18.101   3.986  10.568  0.3907  0.1106  0.1365
 3425W        W18894   0.960  13.470   2.061  0.0952  0.0269 -0.0169
 3426W        W18895   2.846  13.463   4.115 -0.0225 -0.1169  0.0374
 3427W        W18896  12.054  11.407   2.392  0.0874  0.0879 -0.0455
 3428W        W18897   7.829   6.696   4.928  0.0327  0.1890 -0.2869
 3429W        W18898  11.606   3.689   1.177  0.0685 -0.1636  0.2382
 3430W        W18899   2.627   1.291   2.042 -0.0904  0.2298  0.1930
 3431W        W18900   8.825   5.614  14.604 -0.0018  0.2004 -0.1350
 3432W        W18901   6.844  18.226  11.623 -0.0801 -0.0251 -0.0383
 3433W        W18902   8.602  11.803  14.331  0.3208 -0.1822  0.0271
 3434W        W18903  18.513   5.801   2.987  0.0944 -0.1836 -0.1230
 3435W        W18904  15.298  12.801  10.867  0.1493 -0.3119  0.1341
 3436W        W18905   7.561   5.333   3.649 -0.0054  0.1661  0.0101
 3437W        W18906   5.452  19.004   0.632 -0.2007  0.0907 -0.2209
 3438W        W18907   3.809   4.716  12.087  0.0174  0.0529  0.1656
 3439W        W18908   9.771   1.898   5.517 -0.0364 -0.0130 -0.0454
 3440W        W18909   4.881   5.498   3.020  0.1473 -0.3468  0.3717
 3441W        W18910   6.431   5.453  13.356  0.0503  0.2560 -0.3740
 3442W        W18911   4.425   2.745   1.700  0.1726 -0.0186 -0.0215
 3443W        W18912   2.722   9.375   5.076  0.0656  0.3583 -0.1091
 3444W        W18913   6.739   2.701  11.131  0.2060  0.1059 -0.3862
 3445W        W18914  15.463  11.698   9.903  0.0006  0.0248 -0.0901
 3446W        W18915  12.638  11.994   5.264 -0.0926  0.0637  0.0144
 3447W        W18916   4.153  16.606   2.335 -0.3980 -0.0909  0.1207
 3448W        W18917  15.826   8.500  10.873 -0.0589  0.0759  0.0148
 3449W        W18918  15.060  12.554  10.066  0.3160 -0.1396  0.0017
 3450W        W18919  11.405  11.799   5.060  0.2233  0.2493 -0.2451
 3451W        W18920  11.253  16.542   3.765 -0.0805  0.1071  0.5357
 3452W        W18921   5.471  17.823   0.635  0.1538  0.1012 -0.1100
 3453W        W18922  13.850   1.219   2.518 -0.4062  0.1248  0.2524
 3454W        W18923  14.540  13.142  12.891  0.0899  0.2216  0.0719
 3455W        W18924   9.804   4.800   2.226 -0.1673 -0.0431  0.0037
 3456W        W18925  11.257   5.391  13.452  0.2356  0.1140 -0.0560
 3457W        W18926   9.023   4.558   3.846 -0.0563 -0.2776 -0.2757
 3458W        W18927   1.325   0.377   1.094 -0.4390 -0.0206 -0.0446
 3459W        W18928  18.885   0.662  12.088 -0.0524  0.0991  0.0392
 3460W        W18929  17.084  16.953  13.732 -0.1705 -0.2119  0.2314
 3461W        W18930   7.043   9.700   0.288 -0.2127 -0.0886 -0.1016
 3462W        W18931   4.771  14.343  11.323 -0.0260 -0.0634  0.0098
 3463W        W18932  12.034  17.733   2.153  0.0882 -0.2015 -0.0609
 3464W        W18933  13.437   5.832   4.922  0.1969 -0.0415  0.0626
 3465W        W18934   4.957   0.541  11.770  0.1210  0.2369 -0.0193
 3466W        W18935  17.277  13.965  15.073 -0.2747 -0.1563  0.1165
 3467W        W18936   4.674   0.150  11.608 -0.3357 -0.4018  0.2039
 3468W        W18937   4.813  17.157   4.621  0.4071 -0.0072 -0.3178
 3469W        W18938  12.038   0.262   1.743 -0.2514 -0.1843  0.0388
 3470W        W18939  13.448  16.620   0.438 -0.0290  0.0550  0.1066
 3471W        W18940  15.621  18.341   4.792 -0.2857  0.2489 -0.0184
 3472W        W18941  11.483  10.644  11.189  0.3106 -0.1403  0.4116
 3473W        W18942   6.134  13.430  10.677  0.0466 -0.0004  0.1454
 3474W        W18943   8.859  10.852   0.878  0.0689  0.0139  0.2279
 3475W        W18944  10.548   4.109   4.982  0.0927 -0.1982  0.2426
 3476W        W18945   7.546   8.885  11.853  0.0060 -0.0528 -0.0005
 3477W        W18946   6.815  17.298   1.046  0.1194 -0.0034 -0.1606
 3478W        W18947   8.287   9.433   1.703 -0.3568  0.2606 -0.0481
 3479W        W18948   8.366   8.772   2.549 -0.1323  0.1208  0.0293
 3480W        W18949  11.555   1.180   2.269  0.1894 -0.1074  0.4345
 3481W        W18950  10.861  16.379  11.304 -0.1733 -0.0013  0.0933
 3482W        W18951   9.168  11.079  13.118  0.3544 -0.1107  0.2834
 3483W        W18952   8.931   1.295  10.394  0.0757 -0.3716  0.1053
 3484W        W18953   4.315  17.428   3.047 -0.0245 -0.3294 -0.1916
 3485W        W18954   3.731   0.337  10.051  0.0082 -0.1818  0.1479
 3486W        W18955   1.716  14.617   3.687 -0.4079  0.2197 -0.0794
 3487W        W18956   9.487   2.359   0.874 -0.0737 -0.2368 -0.0272
 3488W        W18957   5.240  11.060  13.187 -0.1985  0.0997 -0.0755
 3489W        W18958   1.649   8.267  12.330 -0.0321  0.0869  0.0010
 3490W        W18959  13.170   5.523  12.322 -0.0607 -0.0305  0.2359
 3491W        W18960   5.208  17.118  13.079  0.0500  0.2598 -0.2702
 3492W        W18961  12.128  10.571   2.228 -0.2795  0.1793 -0.1549
 3493W        W18962  15.690  11.075  11.603  0.2397  0.0759  0.3582
 3494W        W18963   4.054  17.555  10.836  0.0850  0.1078 -0.0229
 3495W        W18964  14.441  17.406  11.876  0.1462 -0.2117 -0.2171
 3496W        W18965   5.177   6.881   1.830  0.1386  0.2592  0.0939
 3497W        W18966  16.955  17.547  14.978  0.1884 -0.3000  0.3034
 3498W        W18967  10.360   2.711   5.310 -0.0894 -0.0097 -0.0233
 3499W        W18968   6.171  11.927  14.988 -0.1396 -0.1846 -0.1216
 3500W        W18969  17.815  14.570   2.364 -0.1189 -0.4116  0.1163
 3501W        W18970   9.066  16.006   6.072 -0.0988 -0.1610 -0.1815
 3502W        W18971  13.531   3.351  13.326  0.0768  0.2947 -0.0659
 3503W        W18972  10.378  10.243   2.771  0.2948 -0.1489 -0.1651
 3504W        W18973  11.825  13.469   1.880 -0.1146  0.1704  0.0241
 3505W        W18974   0.968   6.387   3.060  0.3994 -0.0161  0.0531
 3506W        W18975   1.609   8.347   3.099 -0.2737  0.1953 -0.2875
 3507W        W18976   3.686   8.840  13.813 -0.1053 -0.0971 -0.2908
 3508W        W18977  17.767  15.107   3.610 -0.2956  0.2997  0.3121
 3509W        W18978  10.786   3.399  13.247 -0.2142  0.1646  0.3834
 3510W        W18979  15.619  12.212  11.254  0.4724  0.5322  0.1813
 3511W        W18980  14.865  18.462   3.987  0.0417  0.1246 -0.0430
 3512W        W18981  16.589  12.548   4.838  0.0542  0.2444  0.0184
 3513W        W18982  18.778  16.666   4.834 -0.0933  0.2497 -0.0095
 3514W        W18983   2.092   8.628   2.371  0.1019  0.1803 -0.1000
 3515W        W18984   2.175   4.523   0.694  0.2449  0.0559 -0.1044
 3516W        W18985   8.766   3.831   1.017  0.1044  0.1882  0.2113
 3517W        W18986   3.232   0.835  11.008  0.0547  0.2266 -0.1582
 3518W        W18987  17.700   2.808   2.717  0.1429 -0.3008 -0.0572
 3519W        W18988  17.600  17.451   2.171  0.0021 -0.1577 -0.5128
 3520W        W18989  11.620   0.913  13.069 -0.2498 -0.2036  0.0292
 3521W        W18990  15.544   2.140   1.695  0.1502  0.0299 -0.0843
 3522W        W18991   2.410   3.581   1.845  0.2535  0.0049 -0.0547
 3523W        W18992  12.251   2.854   3.359 -0.0584 -0.2821 -0.0313
 3524W        W18993   5.294   8.596   2.542 -0.2091 -0.4860  0.0155
 3525W        W18994  17.706   6.845  12.796 -0.4076  0.1355  0.1336
 3526W        W18995   7.051   1.481   4.156 -0.0615  0.2838 -0.0298
 3527W        W18996   6.963   0.586  10.644 -0.0906  0.0222  0.3742
 3528W        W18997  10.821   1.462  13.681 -0.2457 -0.1736  0.0445
 3529W        W18998  13.852  14.441   5.514  0.0502  0.1306 -0.3049
 3530W        W18999   1.725   8.553   0.391  0.0937 -0.0961 -0.4373
 3531W        W19000   5.307   1.410  11.481 -0.3981  0.0197 -0.1132
 3532W        W19001   0.164  15.655   2.668  0.4550 -0.1227  0.1374
 3533W        W19002  14.176  13.081  11.930  0.0357 -0.0360 -0.0452
 3534W        W19003  11.051   2.613   4.677 -0.0137 -0.0479 -0.0567
 3535W        W19004  14.467  11.001   3.588  0.2703  0.3092 -0.5884
 3536W        W19005  16.371  14.882  14.180  0.0009 -0.0561  0.1177
 3537W        W19006  13.623  12.444  13.371 -0.2146 -0.2025 -0.2239
 3538W        W19007   3.214  13.824  13.094 -0.0667  0.0046 -0.1376
 3539W        W19008  12.625   3.149  15.300 -0.2860 -0.0879  0.0656
 3540W        W19009   8.016   1.373   4.192  0.0602  0.1762  0.1512
 3541W        W19010  18.476  17.980  13.432  0.0571 -0.1940  0.1340
 3542W        W19011  13.892  16.800   1.942 -0.1268  0.0747  0.3246
 3543W        W19012  15.804   8.805   5.729 -0.1323  0.2412  0.1482
 3544W        W19013  17.558   6.922   2.218  0.4620  0.1588 -0.0303
 3545W        W19014  10.907   4.568   3.397 -0.1218  0.0353 -0.4712
 3546W        W19015  18.975  11.399  14.283  0.1943 -0.0684  0.2318
 3547W        W19016   5.124   5.451  15.360  0.0889 -0.0906  0.1059
 3548W        W19017  18.829  18.344  13.432  0.1673  0.0395 -0.3231
 3549W        W19018   5.194  12.246  13.642 -0.0870  0.1494  0.1576
 3550W        W19019  16.365   7.552  11.750 -0.2320 -0.0390  0.1253
 3551W        W19020  10.422   2.149  12.941 -0.2928  0.1167 -0.2120
 3552W        W19021  12.732  14.084  12.869  0.2483  0.1954  0.1975
 3553W        W19022  17.831   8.155   1.563 -0.0548 -0.2553  0.1845
 3554W        W19023   3.570  10.773  10.486  0.2487 -0.1050  0.0702
 3555W        W19024   6.582   5.505   3.676  0.0563 -0.1764  0.1151
 3556W        W19025   6.119   5.416   4.001 -0.2132 -0.2977  0.2115
 3557W        W19026  18.785   4.677  11.390  0.1093 -0.0592  0.0026
 3558W        W19027   8.841  12.728  11.923 -0.1102  0.0365  0.3652
 3559W        W19028   1.601   8.909  14.356  0.0701  0.0143 -0.2810
 3560W        W19029   8.224  18.385   2.594  0.0049  0.0566  0.3114
 3561W        W19030   9.943   4.158  14.864  0.0918 -0.1706 -0.3088
 3562W        W19031   1.900   6.911   5.170 -0.0968  0.1088  0.0248
 3563W        W19032   2.783  12.171  11.388  0.1594  0.1588 -0.0399
 3564W        W19033   2.095   4.755  13.432  0.2189  0.3696 -0.1814
 3565W        W19034  17.898  10.796   3.164  0.0642  0.2043  0.2453
 3566W        W19035   3.260  18.320   1.069 -0.1229 -0.2624 -0.1986
 3567W        W19036  14.373   4.148   2.740  0.4175 -0.1432  0.0456
 3568W        W19037   1.902   2.716   2.979  0.2426 -0.2056  0.3218
 3569W        W19038   7.080   0.538   3.163 -0.0526  0.1397  0.0332
 3570W        W19039  10.292   4.054  11.597 -0.0168  0.0139  0.4811
 3571W        W19040  15.142   8.784   2.778 -0.2645  0.1214  0.0033
 3572W        W19041  16.637  16.177  14.193 -0.2412  0.1240  0.0409
 3573W        W19042  17.408  11.876  14.753  0.0881  0.2051  0.1280
 3574W        W19043   6.113   8.905  12.521 -0.0540  0.1388  0.1572
 3575W        W19044  10.297   3.650  13.002  0.1148  0.0203  0.1969
 3576W        W19045   5.040  15.952  11.616 -0.2312 -0.1191  0.2609
 3577W        W19046  18.862   6.049   0.982 -0.0820 -0.0018 -0.1130
 3578W        W19047  19.028  12.018  13.245 -0.3543  0.6741  0.0448
 3579W        W19048   9.874  13.091  10.933  0.2858 -0.1768  0.0515
 3580W        W19049   0.885   0.608  10.525  0.0230 -0.0819  0.0853
 3581W        W19050   5.678   2.616   3.065 -0.0729 -0.1427 -0.5139
 3582W        W19051  18.075   9.220   0.952  0.1313 -0.1010  0.1297
 3583W        W19052   0.681  13.860   2.381 -0.1909  0.0777 -0.2864
 3584W        W19053  13.669  10.412   3.537 -0.0448 -0.0931  0.2574
 3585W        W19054   2.838  14.666  13.253 -0.0558  0.0426 -0.3225
 3586W        W19055  11.098  11.113   3.267 -0.2701  0.2742  0.1452
 3587W        W19056   0.358  15.658  11.641  0.0262 -0.0644  0.0869
 3588W        W19057  10.291   5.284  14.893 -0.0846 -0.2674  0.3432
 3589W        W19058   0.149   3.811  14.973  0.1562  0.1697  0.2824
 3590W        W19059  10.717   3.848  11.773  0.2526 -0.0383  0.1729
 3591W        W19060   2.551   2.073   0.139 -0.0094 -0.1884  0.3437
 3592W        W19061  10.459   4.320  13.532 -0.2386 -0.2595 -0.2375
 3593W        W19062  10.196  16.355  14.833 -0.0491  0.1307  0.0997
 3594W        W19063   2.393  18.641   5.744  0.1291  0.1453 -0.0521
 3595W        W19064  10.802  15.494   2.871 -0.1789 -0.0229 -0.0741
 3596W        W19065  11.816   0.624   1.306 -0.1101  0.0257 -0.0235
 3597W        W19066   1.228  14.152   4.943  0.2644  0.0716 -0.1531
 3598W        W19067   0.013   8.162  13.723 -0.1788 -0.1867 -0.1940
 3599W        W19068   3.835  15.487   1.206  0.2202 -0.0590 -0.1015
 3600W        W19069   9.391   5.615   1.141 -0.0910  0.1840  0.1227
 3601W        W19070   5.447  12.156  13.211 -0.0090  0.1073  0.1116
 3602W        W19071  16.258   5.818  10.618  0.1282 -0.1693  0.0723
 3603W        W19072   1.078   0.021  12.350  0.1603  0.0893 -0.0877
 3604W        W19073  13.009  12.581  11.796  0.3049 -0.0650  0.2444
 3605W        W19074  14.079   0.104   3.615  0.1223  0.1202  0.2154
 3606W        W19075  16.814   6.538   4.709 -0.3241  0.0649 -0.1624
 3607W        W19076   1.355  13.793  14.277 -0.2580  0.1790  0.2801
 3608W        W19077  13.437  11.341  10.874  0.2458 -0.0273 -0.0783
 3609W        W19078   1.540   6.358  12.656  0.0507  0.0083  0.1245
 3610W        W19079  16.256   1.065   4.728  0.1999 -0.1835 -0.0570
 3611W        W19080  15.183   4.211   5.250 -0.1921 -0.0567  0.0010
 3612W        W19081   0.938   8.750  13.475 -0.3051  0.2215 -0.0225
 3613W        W19082   4.917  16.221   6.174  0.2560 -0.0552 -0.1380
 3614W        W19083   6.740  13.159  12.715 -0.0893  0.0659  0.2094
 3615W        W19084  10.431   4.937   0.693  0.0393  0.2210 -0.2643
 3616W        W19085   0.009   8.700  10.886 -0.2681  0.0642  0.2008
 3617W        W19086   4.500   0.983  10.903  0.3882  0.1400  0.0486
 3618W        W19087  11.091   0.746   4.390 -0.1443 -0.1028  0.1913
 3619W        W19088  15.779  18.554   0.664  0.0802 -0.3122 -0.2453
 3620W        W19089   9.057  17.712   0.271 -0.5299 -0.1760 -0.0189
 3621W        W19090  13.625   9.477   3.369  0.3147 -0.0661 -0.1736
 3622W        W19091   9.593   8.631  12.449  0.0572  0.1481  0.3456
 3623W        W19092   9.760   6.784  14.649 -0.3664  0.3075 -0.0679
 3624W        W19093   2.167   7.663   2.420  0.1465 -0.1775 -0.0973
 3625W        W19094   3.758  18.710   0.216  0.0961 -0.2608 -0.0685
 3626W        W19095   1.961  13.043   2.553 -0.0578  0.3294 -0.0152
 3627W        W19096  15.953   5.515   1.930  0.0352  0.0174  0.0266
 3628W        W19097  12.659  10.098  10.548  0.0709 -0.1210 -0.1172
 3629W        W19098   9.884  14.561   0.970  0.1880  0.1539 -0.1628
 3630W        W19099  13.115   9.156  12.782 -0.2059 -0.1145 -0.2812
 3631W        W19100  15.056   4.717   3.827  0.3304 -0.1742 -0.3236
 3632W        W19101   5.858  10.208   1.117 -0.0419 -0.3178  0.1922
 3633W        W19102   5.357  16.235   4.189  0.0795  0.4059  0.1286
 3634W        W19103  14.348  16.875   1.817 -0.0808 -0.1553 -0.1288
 3635W        W19104  14.944   3.524   0.917  0.0634  0.2065  0.1206
 3636W        W19105  15.213   1.622   3.218 -0.1918  0.4050  0.1883
 3637W        W19106   1.708  12.895  12.075  0.0832 -0.0545 -0.1797
 3638W        W19107  18.698   2.239   9.484 -0.2349  0.1692 -0.1601
 3639W        W19108   2.691   4.324  13.955  0.2904  0.3739  0.1199
 3640W        W19109   5.153   8.670  12.914  0.0639 -0.2425 -0.3044
 3641W        W19110   8.319   1.520  12.390 -0.1022 -0.1140 -0.0972
 3642W        W19111  18.051  14.955   4.610  0.1601  0.1447  0.1705
 3643W        W19112   4.784   9.098   1.196 -0.3337  0.2988  0.3173
 3644W        W19113   7.633   8.965   5.197  0.0258 -0.2037 -0.1045
 3645W        W19114  15.657   6.866  11.412 -0.0153  0.2555  0.0458
 3646W        W19115  12.523  11.995   2.155  0.0206 -0.0854  0.2183
 3647W        W19116  17.890  13.842   2.150  0.1514 -0.2128  0.4555
 3648W        W19117  11.809   8.934   4.443  0.3398  0.0601  0.4966
 3649W        W19118  18.232  11.756   3.572 -0.0288  0.2679  0.1077
 3650W        W19119   2.564   4.717  13.039 -0.1526 -0.0515 -0.0338
 3651W        W19120  15.692   8.732   1.936  0.0676  0.1006 -0.0593
 3652W        W19121  15.246   9.498   0.010 -0.0459 -0.1314  0.0211
 3653W        W19122   6.384   7.909   9.785 -0.0806 -0.0007 -0.1598
 3654W        W19123   4.900   5.559  14.893 -0.2021 -0.1255  0.2261
 3655W        W19124  11.743   2.337  14.798  0.2286 -0.1028  0.0550
 3656W        W19125   2.119  13.307   5.914  0.1865  0.0432  0.3018
 3657W        W19126  16.321  15.887  12.795  0.0760  0.0455 -0.0832
 3658W        W19127  15.983  11.000   1.561  0.0245 -0.1526 -0.1154
 3659W        W19128   1.218  17.179   2.774  0.0680  0.2754 -0.1112
 3660W        W19129   6.635   7.169   1.900 -0.1389  0.1961 -0.2694
 3661W        W19130   3.301  16.609  13.730 -0.1921  0.4009  0.0516
 3662W        W19131   1.754   6.594  10.667  0.0265 -0.2211 -0.1991
 3663W        W19132   8.938   4.280  12.421  0.0212  0.0846 -0.1046
 3664W        W19133   0.842  17.967   1.540  0.3989 -0.3849 -0.2171
 3665W        W19134  16.142  12.477   2.308 -0.2422 -0.1492  0.2463
 3666W        W19135   8.845   7.851   1.648 -0.1983 -0.0459 -0.0784
 3667W        W19136   6.283  18.834  15.359 -0.1270  0.0996  0.0094
 3668W        W19137   5.919  12.668   3.367  0.0208 -0.1401 -0.1800
 3669W        W19138   7.555  14.954   5.846  0.2573  0.2135 -0.1735
 3670W        W19139  11.555   0.309   1.688  0.1161 -0.4819 -0.0442
 3671W        W19140   0.232   1.907   9.935 -0.1459  0.3154 -0.0066
 3672W        W19141   1.221   7.958  13.875  0.0004  0.0038 -0.2872
 3673W        W19142  13.617  17.438   0.099 -0.1833  0.0301  0.1268
 3674W        W19143   3.665  15.611  12.611  0.2322 -0.1173 -0.2588
 3675W        W19144   4.089   9.668   2.494  0.1356  0.1394  0.1276
 3676W        W19145  13.494   2.311  11.237  0.0201  0.2893  0.0142
 3677W        W19146  18.542   3.424  13.512  0.2311  0.0466  0.0492
 3678W        W19147   2.773  12.298   3.155 -0.2696  0.0666 -0.4730
 3679W        W19148   6.480   0.118  14.482  0.1692  0.1027 -0.1058
 3680W        W19149  15.157  11.306   2.148  0.0245  0.1108 -0.3952
 3681W        W19150   7.416   6.452   4.569 -0.1584 -0.1234  0.0516
 3682W        W19151   2.716   3.660  12.616 -0.1350 -0.3102  0.1301
 3683W        W19152  11.148   9.284  14.366 -0.1182  0.1089 -0.0024
 3684W        W19153  14.710  12.438  14.270  0.1188  0.3299 -0.2630
 3685W        W19154   3.170  14.375  12.914  0.3590 -0.1386 -0.2118
 3686W        W19155   5.429   5.674  12.088  0.1718 -0.1528 -0.2184
 3687W        W19156   0.583   9.330   4.055  0.1432  0.1098 -0.1682
 3688W        W19157  12.382   6.812  13.128  0.1604  0.1930 -0.3114
 3689W        W19158  16.893  10.406   0.308 -0.1661  0.3404  0.0691
 3690W        W19159  11.222   2.247  11.857 -0.2119  0.2198 -0.0277
 3691W        W19160  12.270  13.644   1.502  0.1992 -0.0423  0.0662
 3692W        W19161   0.521  15.013  14.362  0.1575  0.2555 -0.1110
 3693W        W19162   2.758   0.254  11.357 -0.1315  0.0735 -0.2848
 3694W        W19163  15.676   7.743   3.957  0.0399  0.2364 -0.1951
 3695W        W19164   7.132   6.514   2.597 -0.0307  0.1880 -0.1039
 3696W        W19165  11.788   8.458   3.315 -0.0247 -0.0628 -0.2347
 3697W        W19166   3.628   3.408  13.366 -0.1009 -0.1709 -0.2975
 3698W        W19167  16.075   9.843  14.014  0.0390 -0.2571 -0.1982
 3699W        W19168  12.411   7.681  11.107  0.0556 -0.3193  0.0591
 3700W        W19169   2.323  11.877  13.616 -0.2692 -0.1676 -0.1600
 3701W        W19170  10.469  17.005   0.793 -0.0082 -0.0268 -0.3318
 3702W        W19171  11.903   5.719   0.328 -0.2984  0.0466 -0.0942
 3703W        W19172  11.119   1.602   1.623  0.3380 -0.1263 -0.1617
 3704W        W19173   3.838   0.450   4.774 -0.0917  0.0110  0.0503
 3705W        W19174   6.138  17.456   2.919 -0.2806 -0.3591 -0.2575
 3706W        W19175  11.972   0.964   3.096  0.0754 -0.1256 -0.0270
 3707W        W19176  12.283  13.618   2.063 -0.0205 -0.0640 -0.0012
 3708W        W19177   4.614   4.791   3.583 -0.1530  0.2813  0.0028
 3709W        W19178  16.666   9.867   0.435 -0.0153 -0.1890  0.2264
 3710W        W19179   2.203  10.182  10.641  0.0477  0.1311 -0.0015
 3711W        W19180   4.077   6.652  14.448  0.5258 -0.0828  0.0210
 3712W        W19181   9.365  15.622   0.171  0.3537  0.1777 -0.0339
 3713W        W19182   2.082   2.248  12.449  0.2327 -0.1215  0.3094
 3714W        W19183  12.350   2.788  11.162 -0.1125  0.3404 -0.2324
 3715W        W19184  15.617  16.092  11.855  0.0703  0.1368  0.0931
 3716W        W19185  16.029  16.545   3.213 -0.1660  0.4199  0.0771
 3717W        W19186  18.822  11.481  11.087 -0.5937 -0.1251 -0.1753
 3718W        W19187   9.162   3.283   2.212 -0.2789  0.4058  0.0919
 3719W        W19188   9.651  17.099   2.433 -0.2319 -0.0052 -0.0171
 3720W        W19189  12.371   0.672   2.017 -0.1282  0.2562 -0.2352
 3721W        W19190   6.810  10.441  14.257  0.0014 -0.0038 -0.0750
 3722W        W19191   2.367  18.958   2.555 -0.1815  0.0690 -0.2381
 3723W        W19192   5.119  11.296   2.128 -0.3821  0.0408  0.0434
 3724W        W19193   5.297   5.730  11.583 -0.2716  0.1141 -0.1675
 3725W        W19194   8.767  17.764   4.613 -0.1676  0.2999 -0.0450
 3726W        W19195   0.607  18.903  11.560  0.3858 -0.1973  0.0299
 3727W        W19196  17.966   9.181   1.432 -0.3480 -0.1119  0.0416
 3728W        W19197   5.420  14.622  12.047 -0.1023  0.0497  0.2866
 3729W        W19198   1.685   6.902  14.974 -0.3335 -0.3601  0.1333
 3730W        W19199   5.375  15.769  12.900  0.1320 -0.0751 -0.1770
 3731W        W19200  14.140   1.941  13.516  0.1436  0.5064  0.0302
 3732W        W19201   1.386  15.372   3.917 -0.1719 -0.2806  0.1008
 3733W        W19202  17.841  10.940   4.102  0.0466 -0.0547 -0.0184
 3734W        W19203  16.299  11.598   0.142  0.0217 -0.1586  0.0251
 3735W        W19204   3.818  13.256  11.802  0.1420  0.2666  0.2204
 3736W        W19205  14.571   7.447  12.719 -0.2136  0.0192 -0.1005
 3737W        W19206   1.403   3.251  13.826  0.0758 -0.2115  0.0075
 3738W        W19207   7.362  16.148   5.436  0.0343  0.1678  0.1849
 3739W        W19208   7.735   1.283  10.893  0.4892 -0.0684  0.0086
 3740W        W19209   7.615   3.149  13.388  0.0177 -0.0205  0.1024
 3741W        W19210   7.033  11.495  13.981 -0.2303 -0.3122 -0.2079
 3742W        W19211   4.390   9.673   3.596  0.4394  0.2410  0.3270
 3743W        W19212   9.579  11.050  14.001  0.0411 -0.4263  0.0947
 3744W        W19213   0.927   3.433  13.755 -0.0426 -0.3551  0.0495
 3745W        W19214  18.238  10.459   4.841 -0.1278  0.2029 -0.3549
 3746W        W19215   7.269   6.383   1.586  0.0958  0.6623 -0.1108
 3747W        W19216   9.617  16.322   4.631  0.1051  0.1222 -0.0770
 3748W        W19217  12.234   5.773  11.133  0.5932 -0.2031  0.2311
 3749W        W19218   4.002   5.817  14.225  0.0759 -0.2147  0.0324
 3750W        W19219   0.254  15.742  12.717  0.0444  0.0948 -0.4326
 3751W        W19220   2.945   5.732   3.267 -0.0996 -0.0029 -0.0083
 3752W        W19221   1.164  12.926   3.467 -0.0685  0.2795 -0.0766
 3753W        W19222  10.346   7.479  12.623  0.1983  0.3767 -0.0071
 3754W        W19223  10.543   0.193   2.620 -0.2493  0.2272  0.1553
 3755W        W19224   9.120  15.214   0.064  0.1468  0.2816  0.1706
 3756W        W19225   2.708   7.049  12.652  0.0421 -0.0070 -0.1859
 3757W        W19226   8.626   3.247   4.585  0.1968  0.2082  0.4825
 3758W        W19227  14.146  10.914  12.716 -0.4537  0.2591 -0.1554
 3759W        W19228   4.406  11.759  10.783  0.0999 -0.4399 -0.2579
 3760W        W19229   2.890   3.660  11.600  0.0602 -0.1421  0.1183
 3761W        W19230   4.632   6.001   5.479 -0.0892  0.1005 -0.4828
 3762W        W19231   8.546   7.518   0.956  0.1689  0.2217 -0.1061
 3763W        W19232  16.827  16.898   2.390  0.1218 -0.1977  0.3870
 3764W        W19233   7.498   9.145  12.676 -0.2106 -0.0374  0.2437
 3765W        W19234   0.929   9.039   2.959 -0.0766 -0.0852 -0.1924
 3766W        W19235   4.032  17.901   4.038 -0.1349 -0.0008  0.1346
 3767W        W19236   2.712  16.297  11.524  0.1704  0.2695 -0.1586
 3768W        W19237  16.859  14.920  10.415  0.0529  0.0029 -0.0702
 3769W        W19238  15.783  17.246  12.457  0.1252 -0.0087  0.4430
 3770W        W19239   9.485   2.227   5.718  0.0208 -0.1146 -0.1588
 3771W        W19240   2.844   3.179   3.095  0.1420  0.1595 -0.0534
 3772W        W19241  11.761   7.482  11.489 -0.1916 -0.0843  0.0433
 3773W        W19242  12.713   8.132   1.818 -0.3356 -0.1521 -0.2589
 3774W        W19243  12.343   1.778   0.346  0.1473  0.1532  0.2630
 3775W        W19244   3.228  10.417   0.933  0.2871 -0.2694 -0.2100
 3776W        W19245   4.344   6.063  11.515  0.2003  0.6024  0.3384
 3777W        W19246   2.899  18.577   5.685 -0.1491 -0.3513  0.0142
 3778W        W19247   8.505   6.118  10.824 -0.0548  0.1143  0.0901
 3779W        W19248   5.225   2.689   3.250 -0.0950 -0.2176  0.0052
 3780W        W19249   6.061   9.412  12.347  0.0335  0.1877  0.0351
 3781W        W19250  15.990   5.073   1.676 -0.1496  0.2756 -0.2590
 3782W        W19251   9.123   5.960   5.879  0.0291 -0.0731  0.1239
 3783W        W19252  17.967  11.030  10.132 -0.1977  0.0051 -0.0876
 3784W        W19253  16.252  16.371  13.958  0.0918 -0.0659  0.2634
 3785W        W19254   4.355  14.028  13.700  0.1263 -0.0359  0.1031
 3786W        W19255   4.490  11.197   0.424 -0.0525  0.4407 -0.2546
 3787W        W19256   0.714   3.898  14.916  0.1059  0.3804  0.1110
 3788W        W19257   7.269  15.517   3.174  0.0097 -0.0450 -0.2262
 3789W        W19258   9.766  18.256  12.477  0.1556  0.2209  0.2117
 3790W        W19259   9.015  16.296   1.226  0.0476  0.3194 -0.0029
 3791W        W19260   0.053   4.744   2.451  0.3455 -0.2303 -0.1205
 3792W        W19261  12.699   6.256   4.588 -0.2350  0.2866  0.1990
 3793W        W19262   9.833  12.751  15.027 -0.1974  0.3248 -0.0926
 3794W        W19263   2.888   2.259   5.320  0.2140 -0.3950 -0.0429
 3795W        W19264   2.949   7.026  12.077 -0.2519 -0.1641  0.0627
 3796W        W19265  10.868  13.882  13.351  0.0472 -0.1358  0.4790
 3797W        W19266  12.594   9.529   1.778 -0.0601  0.0735 -0.1816
 3798W        W19267   8.999  16.789  11.241  0.2482 -0.0990 -0.1458
 3799W        W19268   9.239   0.311  12.483  0.0136 -0.2058 -0.0329
 3800W        W19269   8.734  13.261   4.974  0.0489 -0.0282 -0.1899
 3801W        W19270   3.924   6.690   4.572 -0.2298  0.0981  0.0235
 3802W        W19271   0.801  14.359   5.646 -0.0979  0.0464 -0.1281
 3803W        W19272  18.837   4.170  12.200  0.0863  0.1762 -0.0191
 3804W        W19273  14.024  15.029  14.569  0.0491  0.3008  0.1038
 3805W        W19274   1.631  16.457   9.151 -0.1046  0.0333  0.1649
 3806W        W19275  14.126  16.184   0.564 -0.1784  0.0170  0.2180
 3807W        W19276   7.167  13.599   1.070  0.1979  0.0535 -0.0947
 3808W        W19277  16.685   1.989  15.273  0.4224  0.2404  0.0947
 3809W        W19278   7.775  13.081  10.528  0.2073  0.0944  0.0609
 3810W        W19279   9.034  11.758  11.475 -0.0529  0.0698 -0.0239
 3811W        W19280   7.536   4.245   2.167 -0.3249  0.0999 -0.1528
 3812W        W19281  14.210  11.936  10.939  0.0390 -0.1701  0.0935
 3813W        W19282  13.510   9.476  10.319  0.2442  0.1284  0.0840
 3814W        W19283   3.422  16.237  11.942  0.1257 -0.1572 -0.4552
 3815W        W19284  17.355  10.427  14.588 -0.0248 -0.4504 -0.2912
 3816W        W19285  13.759  10.707   1.723 -0.2299  0.1944  0.0649
 3817W        W19286   1.273  11.921   1.443 -0.2443 -0.0661  0.1711
 3818W        W19287  16.395   7.398  10.755 -0.3414  0.0324  0.0099
 3819W        W19288   6.076  13.263  14.026 -0.2872  0.3646  0.1192
 3820W        W19289   5.569  12.531   0.589  0.1189 -0.0753 -0.0597
 3821W        W19290   0.945   8.080  11.944 -0.0647 -0.0734 -0.0186
 3822W        W19291   4.293   1.677   9.607 -0.4033  0.0728 -0.3210
 3823W        W19292   4.908   8.146   1.311  0.2504  0.2284  0.0878
 3824W        W19293   7.886   3.314  13.819  0.3116 -0.0402 -0.0289
 3825W        W19294  13.779   4.554  11.919 -0.0462 -0.0582  0.0439
 3826W        W19295   6.563  16.400  13.305  0.1740 -0.2260 -0.1803
 3827W        W19296   7.794   3.998   0.081 -0.4794  0.0655  0.0436
 3828W        W19297  15.880  15.564   1.714 -0.3650  0.0639  0.0289
 3829W        W19298  12.833   4.038  12.247  0.0964  0.1831  0.2291
 3830W        W19299  12.910   2.479  11.041  0.4704 -0.1915 -0.2663
 3831W        W19300   4.455   4.944   4.134 -0.0901  0.1663 -0.0061
 3832W        W19301   8.360   7.277  15.092  0.1720  0.1892 -0.3422
 3833W        W19302  15.991  18.550   1.419 -0.1513 -0.2866 -0.4615
 3834W        W19303   0.255  18.017  13.250 -0.0437 -0.0101 -0.1517
 3835W        W19304   1.115   5.581  11.019  0.3424 -0.1104 -0.3620
 3836W        W19305  14.308  15.232   1.079 -0.2625  0.0299 -0.0300
 3837W        W19306  16.306   9.388   0.993  0.0986  0.0808 -0.0187
 3838W        W19307  13.575  18.188   0.760 -0.2018 -0.1886 -0.3781
 3839W        W19308   8.521   8.522   4.789  0.1287  0.0628 -0.2182
 3840W        W19309  13.347  19.014  12.149  0.2613  0.2389  0.2713
 3841W        W19310   8.879  14.954   2.233  0.2787  0.2966 -0.4483
 3842W        W19311  17.421   3.362   1.498  0.0763  0.1373  0.1169
 3843W        W19312   8.152  14.826   3.493 -0.1429 -0.0734  0.3736
 3844W        W19313   9.391  12.217  11.490 -0.3192  0.0554 -0.0482
 3845W        W19314  15.889  11.067  13.051 -0.2459 -0.2366  0.1907
 3846W        W19315  17.860  11.207  13.516 -0.0606  0.1932 -0.0347
 3847W        W19316  17.266  17.751   5.213 -0.0953 -0.0666 -0.1779
 3848W        W19317   0.809   6.881   0.578 -0.0567 -0.0454 -0.0572
 3849W        W19318   5.765  13.652   1.213  0.2688  0.1524  0.0957
 3850W        W19319   3.890  12.070   0.415  0.0096  0.2082  0.1402
 3851W        W19320   2.891   5.552   4.548  0.0519  0.6291 -0.0137
 3852W        W19321   4.901   7.624  13.489 -0.1653 -0.2115  0.2254
 3853W        W19322   1.790   0.503   4.807  0.1146  0.3217  0.3805
 3854W        W19323   4.604   1.822  11.795 -0.0012 -0.3829 -0.1069
 3855W        W19324  14.455   2.422   1.668 -0.0102 -0.2848  0.1260
 3856W        W19325   7.270   3.136   4.711  0.0446  0.1673  0.1341
 3857W        W19326   9.563   9.885   4.692 -0.2267  0.1467 -0.0589
 3858W        W19327  18.465  15.008  12.726 -0.1072  0.0290 -0.0608
 3859W        W19328  18.798  16.194  14.446 -0.1335  0.0058  0.1303
 3860W        W19329  14.264  16.719  10.221  0.3436  0.3906 -0.0671
 3861W        W19330   2.076  13.668  13.400 -0.1341 -0.0677 -0.2819
 3862W        W19331   2.901   2.827  11.080 -0.1034 -0.2875 -0.1051
 3863W        W19332   2.817  11.239   5.162 -0.2781  0.1065 -0.3281
 3864W        W19333  13.519   3.479   3.882 -0.1222  0.1037 -0.0583
 3865W        W19334   2.392  11.055  14.355  0.0761  0.5031  0.3180
 3866W        W19335  15.476   8.389   0.647 -0.0375  0.1009  0.1038
 3867W        W19336  11.315  16.705  12.429  0.0169  0.0370 -0.0620
 3868W        W19337  12.522   2.187   0.641  0.1697  0.0473 -0.4923
 3869W        W19338  11.631   5.409  14.828  0.0196  0.0572 -0.4783
 3870W        W19339  16.244   4.870   0.628  0.2075  0.0012 -0.0403
 3871W        W19340   0.322  13.527  14.720  0.0285  0.1084 -0.0788
 3872W        W19341  15.967  14.405   1.951  0.1375 -0.2940 -0.0012
 3873W        W19342  17.335  12.444  12.538 -0.5156  0.0010  0.0700
 3874W        W19343  16.964   0.919  12.642 -0.1459 -0.0082  0.0803
 3875W        W19344   1.053   3.249   4.651 -0.1361  0.1785  0.2821
 3876W        W19345  11.397  15.249  11.722 -0.3119  0.0304 -0.0442
 3877W        W19346  14.138  18.822   2.902 -0.1709 -0.0158 -0.1714
 3878W        W19347  14.227  15.813   5.000  0.1412  0.1489  0.0064
 3879W        W19348   6.801  10.909   3.879  0.4554  0.1500  0.1142
 3880W        W19349   7.254   3.823   2.241 -0.1634  0.1236 -0.2052
 3881W        W19350   4.943   3.535  14.446  0.0140  0.0235  0.0464
 3882W        W19351  11.369   6.962   4.527 -0.2453  0.2918 -0.0004
 3883W        W19352  11.790   0.184   2.182 -0.0457  0.2762 -0.0332
 3884W        W19353   1.153   4.273   3.205 -0.2502  0.1109  0.0381
 3885W        W19354   7.206   8.506  11.767 -0.0027 -0.5259  0.4237
 3886W        W19355  11.973  12.663   2.650  0.0081 -0.0408 -0.1075
 3887W        W19356  16.728   6.394  10.631 -0.1149  0.2341  0.3542
 3888W        W19357  13.880   1.263  11.918  0.5140  0.4184  0.1138
 3889W        W19358  12.539   0.783  13.486  0.0677 -0.1259  0.0885
 3890W        W19359  11.785   5.780   2.548 -0.0958 -0.1763  0.1093
 3891W        W19360   4.532   0.986   1.148 -0.0129  0.1632  0.3563
 3892W        W19361  10.331  16.956  14.393  0.3401  0.1915  0.3966
 3893W        W19362   6.692   6.770  14.430 -0.1737  0.1235  0.1944
 3894W        W19363  12.398   0.260   3.618 -0.0770  0.1200 -0.0801
 3895W        W19364  17.942   1.666   4.239 -0.0563 -0.2039 -0.1356
 3896W        W19365   9.982   7.063   0.191 -0.0555 -0.3023 -0.2357
 3897W        W19366   4.287   9.430  11.580  0.2663  0.1253 -0.1467
 3898W        W19367  17.119  18.538   2.835 -0.1556 -0.0414 -0.0463
 3899W        W19368   2.970  18.503  12.217 -0.3303  0.0922 -0.2097
 3900W        W19369  11.382  18.858   2.210 -0.0785 -0.3435  0.4605
 3901W        W19370  16.930   5.655  11.125  0.2008 -0.1700 -0.1272
 3902W        W19371   2.330  16.048  12.484 -0.2339  0.0045 -0.1665
 3903W        W19372  16.511   1.214   1.884 -0.1891 -0.0577  0.1088
 3904W        W19373  17.060   9.566   3.641  0.0628  0.1189  0.4022
 3905W        W19374   8.170  12.477  13.279 -0.1094  0.3643  0.3054
 3906W        W19375   8.432   4.424  12.536 -0.2690 -0.1429 -0.2493
 3907W        W19376  15.539  15.975  13.349 -0.1020  0.0558 -0.3870
 3908W        W19377  10.483   5.389  11.045  0.1228 -0.2533 -0.1460
 3909W        W19378   9.141   6.980   4.500 -0.2430  0.4466  0.1711
 3910W        W19379  14.241  11.157  10.370  0.1211 -0.0086  0.1652
 3911W        W19380   4.507   2.775  13.350  0.1649 -0.0951 -0.1614
 3912W        W19381  13.317   8.657  10.791  0.5411  0.1918 -0.2457
 3913W        W19382  11.736   0.674  14.889  0.3167  0.1345  0.0986
 3914W        W19383  13.508   1.339  12.286  0.1161  0.0622  0.2461
 3915W        W19384   2.205   5.191  14.913  0.1961  0.1099  0.3818
 3916W        W19385   5.509   7.699   9.628  0.1022 -0.0974  0.2151
 3917W        W19386   8.193  17.195   5.292 -0.1241 -0.0242 -0.2612
 3918W        W19387  12.208   6.526   2.983 -0.2005 -0.1712 -0.1379
 3919W        W19388   7.862  12.307  12.351 -0.0595  0.3902 -0.0317
 3920W        W19389   6.815  11.496  15.147 -0.0524  0.0551  0.0204
 3921W        W19390  12.152   9.154   4.844 -0.0792  0.3920  0.0633
 3922W        W19391   2.238  13.256   4.179 -0.0384 -0.1550 -0.0432
 3923W        W19392   2.975   6.586   3.597 -0.0640  0.0221 -0.0412
 3924W        W19393  14.089   3.134   1.219  0.0606  0.1582 -0.0938
 3925W        W19394  17.156   7.922   4.059  0.2759 -0.4844  0.2818
 3926W        W19395  14.862  17.602   0.250  0.0305 -0.3438 -0.0903
 3927W        W19396   7.127  14.117   0.792  0.0459  0.0819  0.0975
 3928W        W19397  16.262   7.633  14.305  0.3268  0.2147  0.0295
 3929W        W19398  11.148   3.919   0.384  0.2139 -0.1550  0.2253
 3930W        W19399  18.052   7.987  11.435  0.5800 -0.0989 -0.1876
 3931W        W19400   0.583   2.625   5.357 -0.2279  0.0044 -0.1840
 3932W        W19401  11.134  18.989  15.270 -0.4872 -0.1610  0.3067
 3933W        W19402   6.073   4.185   1.026  0.1439  0.1189 -0.0140
 3934W        W19403   5.571   3.813  13.891 -0.3612  0.0456  0.3737
 3935W        W19404  18.524   7.705   2.459 -0.2856  0.0849  0.2913
 3936W        W19405  17.814   5.694  10.491  0.0927  0.1506 -0.0247
 3937W        W19406  12.965  16.112  14.088  0.2084  0.1496  0.1138
 3938W        W19407   2.146   6.613   2.909  0.0752  0.0964  0.0048
 3939W        W19408  18.242  18.753   1.553 -0.0162 -0.1133  0.1638
 3940W        W19409   7.299   8.499   0.513  0.0292  0.0380  0.0787
 3941W        W19410  17.898   3.748   1.959  0.5700  0.2906 -0.1114
 3942W        W19411   7.816  15.840   3.748 -0.1890 -0.1265 -0.0207
 3943W        W19412   2.041   2.846   1.557 -0.1153  0.0350  0.0261
 3944W        W19413   0.247  11.014  11.764 -0.0056 -0.1050  0.0260
 3945W        W19414  16.426  13.583  14.114 -0.0235  0.0270  0.3103
 3946W        W19415  10.906  13.009   0.726  0.4295 -0.0090 -0.1038
 3947W        W19416   0.741   4.381  11.772 -0.0968 -0.4271 -0.0233
 3948W        W19417   7.760  16.133   2.808 -0.0932  0.0557 -0.3704
 3949W        W19418   0.821   4.683   1.374 -0.1020  0.2652 -0.0334
 3950W        W19419   7.655   7.167  14.789 -0.3948 -0.2655 -0.0704
 3951W        W19420  15.249  16.432  10.935 -0.1531 -0.0993  0.0433
 3952W        W19421   7.411   2.602   3.486  0.0782  0.2251  0.1978
 3953W        W19422  11.535  10.060  13.829  0.0076  0.0372 -0.0566
 3954W        W19423  14.002   4.130   0.718 -0.0569  0.0232 -0.1198
 3955W        W19424   9.804  14.782   1.755  0.1167  0.0947  0.2429
 3956W        W19425  17.696   5.526  12.933  0.1920  0.1528  0.1251
 3957W        W19426   4.745   6.920   3.256  0.1407 -0.0026  0.1023
 3958W        W19427   5.358   0.467   5.918 -0.0061 -0.0252  0.0664
 3959W        W19428  12.947   9.014  15.074  0.2652 -0.0073  0.0771
 3960W        W19429   3.400  16.519  15.002 -0.0349  0.1120  0.0969
 3961W        W19430   6.477   6.793   2.675  0.0095  0.0862  0.1192
 3962W        W19431   4.770   5.244   3.834  0.1327 -0.1456 -0.1973
 3963W        W19432   4.105  15.983   0.496 -0.0288 -0.2805  0.3972
 3964W        W19433   2.096  17.832   3.270 -0.1854  0.2455  0.0790
 3965W        W19434  15.308   4.267  11.217 -0.0840  0.1536 -0.0508
 3966W        W19435  15.429   9.758  13.309 -0.1976  0.1984 -0.2330
 3967W        W19436  18.818   6.117  12.522  0.0414 -0.0546 -0.1356
 3968W        W19437   0.184  13.781  11.772  0.2478 -0.3602 -0.0686
 3969W        W19438   7.706  16.426   0.297  0.0187 -0.0623  0.0816
 3970W        W19439   6.019   9.893  13.151  0.1467  0.0564 -0.0230
 3971W        W19440   4.519   9.323  14.116  0.1345  0.1122  0.2776
 3972W        W19441  15.178  10.125   0.694 -0.0655 -0.0411  0.1811
 3973W        W19442  18.388   3.500   0.890 -0.1314  0.4713  0.1001
 3974W        W19443  11.712   1.075  13.902  0.1605  0.0628 -0.1618
 3975W        W19444  15.434   2.317  11.121 -0.3605 -0.0427  0.1177
 3976W        W19445  11.073   3.835   3.155  0.0511  0.2533 -0.0234
 3977W        W19446   1.417   6.279   4.669 -0.1344  0.1288  0.1549
 3978W        W19447  14.775  10.834   1.809 -0.0894  0.0871 -0.0009
 3979W        W19448  18.296  16.339  13.783 -0.1267 -0.2505 -0.0719
 3980W        W19449   2.201  16.122  14.058  0.2324 -0.1622  0.1023
 3981W        W19450   9.990   3.938  11.125 -0.1120  0.2274 -0.2970
 3982W        W19451   9.904  17.147  11.191 -0.0320 -0.3812  0.0645
 3983W        W19452   1.921  18.433  15.350 -0.2097  0.1667  0.0832
 3984W        W19453   5.358  17.818   3.718 -0.1917 -0.1135  0.1019
 3985W        W19454  10.013   3.064  13.660  0.2132  0.1398 -0.0168
 3986W        W19455   3.683   1.796   1.924 -0.2282 -0.2401 -0.0417
 3987W        W19456  12.612   9.670   0.789  0.0178  0.0013  0.0532
 3988W        W19457  14.249  16.728  13.024  0.1994  0.1466  0.0264
 3989W        W19458  11.420  15.407  13.568  0.0316 -0.0103  0.1697
 3990W        W19459  15.814   1.860   0.195  0.0140  0.0998 -0.0832
 3991W        W19460  12.933  11.558   9.190 -0.1718 -0.2705  0.0638
 3992W        W19461   5.302   5.268   1.005 -0.1445  0.0374 -0.3886
 3993W        W19462   4.008  13.067   1.009 -0.0128 -0.0961  0.0860
 3994W        W19463  10.648   9.091   9.752 -0.0287  0.0109 -0.1406
 3995W        W19464   7.436  11.562  11.050  0.2034 -0.0260  0.1588
 3996W        W19465   5.273  16.330  11.326 -0.0266  0.0328 -0.2677
 3997W        W19466   0.782  18.030  13.400 -0.1002 -0.0320  0.1019
 3998W        W19467  10.008   9.950   4.695 -0.0742  0.2921 -0.0753
 3999W        W19468  15.812  10.800  10.664  0.0452  0.2197  0.1060
 4000W        W19469   6.764  11.166   1.465  0.3173  0.1033 -0.0013
 4001W        W19470   3.364  14.592  12.412  0.0494  0.0574  0.3726
 4002W        W19471  12.129   1.727  14.284 -0.2289 -0.1563 -0.1139
 4003W        W19472   6.596   6.833   0.340 -0.0303 -0.1207 -0.4914
 4004W        W19473   0.565  18.772  14.411  0.1179 -0.1610  0.1734
 4005W        W19474   8.303  16.777   4.241  0.0894  0.1351 -0.1289
 4006W        W19475  13.174   6.487   1.045  0.2020 -0.1119  0.2574
 4007W        W19476  18.943   1.497  14.447  0.0806  0.3649 -0.1584
 4008W        W19477  13.800  14.406   1.544 -0.1434 -0.1195 -0.0525
 4009W        W19478  13.222  12.374   2.971 -0.0865 -0.0118 -0.0189
 4010W        W19479   3.290  18.429  15.060  0.0526 -0.3423 -0.1208
 4011W        W19480   6.829   3.171   4.516  0.3381  0.3468  0.1725
 4012W        W19481   9.571   5.475  12.178 -0.4916 -0.0969 -0.2491
 4013W        W19482  11.387  17.385   2.036 -0.0877 -0.1014  0.1169
 4014W        W19483  16.188  17.419  14.044  0.0687  0.0260 -0.1599
 4015W        W19484  12.563  15.860  13.228 -0.0928  0.1330 -0.0804
 4016W        W19485   3.004   7.744   3.104  0.0964 -0.0002 -0.1064
 4017W        W19486  15.223   0.993  12.456 -0.0439 -0.1400  0.0694
 4018W        W19487  11.873   8.794  11.677  0.2329 -0.1395 -0.3487
 4019W        W19488   6.758   8.472   2.217 -0.1114  0.1125  0.3122
 4020W        W19489  13.509   4.052  15.269 -0.0311  0.0365 -0.2239
 4021W        W19490  12.478   0.054   1.842 -0.0504 -0.0679 -0.1213
 4022W        W19491  14.874  14.213   4.034  0.3128  0.1991  0.1084
 4023W        W19492  12.898  14.524   1.057  0.0886  0.0938 -0.2510
 4024W        W19493   8.021  17.379  11.815  0.1166 -0.0310  0.2645
 4025W        W19494  17.946   3.180  10.552  0.0030  0.0162  0.1921
 4026W        W19495  18.814  16.891  11.242 -0.0589 -0.0798  0.0057
 4027W        W19496   6.978  14.239  14.336 -0.0812 -0.1981  0.0311
 4028W        W19497   9.490   4.243   2.703 -0.1721  0.1163 -0.0206
 4029W        W19498  11.459   0.757   5.851 -0.1344  0.1059  0.4781
 4030W        W19499  11.801   9.723  12.499 -0.0479  0.1223 -0.1310
 4031W        W19500   2.467   1.755   0.515 -0.2881 -0.1827  0.2646
 4032W        W19501  11.616  18.947   0.805  0.0600 -0.0644 -0.2509
 4033W        W19502  11.575  19.000  14.720 -0.0161 -0.0809  0.0273
 4034W        W19503   2.530   9.168   1.926  0.0824  0.0107  0.2416
 4035W        W19504  14.006   9.882  10.726 -0.0340 -0.3784 -0.3152
 4036W        W19505   7.972   2.241  12.456 -0.0102  0.0490  0.0024
 4037W        W19506   6.354   8.004  11.183  0.0048  0.0078 -0.1190
 4038W        W19507   4.900  14.688   9.869  0.1091 -0.1171  0.4207
 4039W        W19508   5.021   7.282  11.242 -0.0452  0.1500  0.0862
 4040W        W19509   4.691   2.080   0.454  0.0368 -0.0396  0.4732
 4041W        W19510   7.575  13.077  14.199 -0.0894  0.1071  0.0091
 4042W        W19511  15.421  10.338   4.381 -0.1741  0.0735  0.1341
 4043W        W19512  14.899   2.328  12.320  0.1922 -0.1713  0.3226
 4044W        W19513  17.992   0.849   2.221  0.0850 -0.0017 -0.1118
 4045W        W19514  18.286  15.235   2.031 -0.2313  0.0106 -0.1855
 4046W        W19515  18.085   9.026   2.486  0.2239 -0.2903 -0.1037
 4047W        W19516  14.717   5.937   4.603 -0.1858 -0.0988  0.4729
 4048W        W19517  17.393   0.186  14.185  0.1919 -0.2391  0.1115
 4049W        W19518  13.899   8.209  12.247 -0.0266 -0.0589  0.0199
 4050W        W19519  18.226  11.927  14.242 -0.1155  0.0415 -0.1653
 4051W        W19520  12.430   5.763  14.695 -0.2093  0.1665  0.2965
 4052W        W19521   2.460  15.824   4.166 -0.3171 -0.1268  0.3180
 4053W        W19522  15.560   2.387  11.657 -0.0197  0.1143 -0.2365
 4054W        W19523   6.419  14.140   3.412 -0.1425  0.1916 -0.1019
 4055W        W19524  17.039  18.147  11.657 -0.1693  0.3250  0.4381
 4056W        W19525  10.080  10.692   3.118 -0.0717 -0.0492  0.1044
 4057W        W19526   0.068  16.963   4.109  0.0469 -0.2698  0.2728
 4058W        W19527   3.435   9.256   0.170  0.4472  0.1567 -0.2278
 4059W        W19528  15.894  11.049  14.619 -0.1118  0.0397 -0.1403
 4060W        W19529   4.386   8.082   0.388  0.1618  0.0307 -0.0573
 4061W        W19530  16.531   2.016   4.849  0.0375 -0.0459 -0.1384
 4062W        W19531   3.498   0.127   4.441  0.3873 -0.0176 -0.0640
 4063W        W19532  10.578   2.788  10.817  0.1715 -0.7864 -0.0961
 4064W        W19533   0.442   0.986   1.952  0.0429 -0.0100  0.1772
 4065W        W19534  12.905  16.676   0.520  0.2205  0.0441  0.2172
 4066W        W19535  14.554  17.277  10.531 -0.2461  0.3224 -0.1194
 4067W        W19536   6.635   9.158   0.713 -0.1298 -0.3158  0.3138
 4068W        W19537  16.045  18.318   9.201 -0.0379 -0.0139  0.1575
 4069W        W19538  11.036   6.458   4.994 -0.2610  0.2066 -0.1728
 4070W        W19539   9.624  15.665   1.535 -0.3385  0.2189 -0.1471
 4071W        W19540   4.344   6.116   2.665 -0.0394 -0.2535  0.2518
 4072W        W19541   3.436   6.668   5.282  0.1336 -0.1963  0.0376
 4073W        W19542  11.294   0.083  11.632  0.1528 -0.0032  0.0947
 4074W        W19543  10.343   9.581  15.114 -0.0730  0.1784  0.0153
 4075W        W19544  12.675   6.787  12.446  0.2042 -0.2056 -0.1758
 4076W        W19545  12.430  11.411  14.828  0.1118  0.0457  0.1425
 4077W        W19546   7.555  13.352  13.734  0.1149  0.3209 -0.2205
 4078W        W19547   2.402  15.088  15.103  0.0346 -0.0023 -0.1755
 4079W        W19548  15.147  13.795  12.446 -0.1207  0.2920 -0.1072
 4080W        W19549   9.719  12.598  11.672 -0.0842  0.0272 -0.0033
 4081W        W19550  15.553  11.868  15.147 -0.1127 -0.1013  0.2599
 4082W        W19551   1.953   9.794   1.461 -0.0257 -0.0355  0.1542
 4083W        W19552  14.334   7.336   1.283 -0.0067  0.2415  0.1038
 4084W        W19553   0.771  11.385   4.856 -0.1915  0.0715 -0.0910
 4085W        W19554   6.631  13.714   3.138  0.1023 -0.2563 -0.2281
 4086W        W19555   7.342   6.590  10.954 -0.1218  0.0079 -0.2698
 4087W        W19556   5.474   6.658  14.922 -0.0744  0.1139  0.2409
 4088W        W19557  12.258   4.954   1.487 -0.2184 -0.3533  0.2617
 4089W        W19558  12.878   0.733  11.407  0.1157 -0.1626  0.1624
 4090W        W19559  10.256   0.812  10.726  0.3447 -0.1104  0.0356
 4091W        W19560   1.751   7.584  11.461 -0.1909 -0.0308 -0.0194
 4092W        W19561   8.408   8.529   2.066  0.0351 -0.0650 -0.1864
 4093W        W19562   5.475   0.781  14.345  0.0585 -0.0418  0.2678
 4094W        W19563   4.886   5.830   1.965 -0.1263  0.0670 -0.3163
 4095W        W19564   3.825   0.064  14.761  0.1215  0.2707 -0.1556
 4096W        W19565   1.798  13.497   1.230  0.0189 -0.0793 -0.0434
 4097W        W19566   9.821  10.148  11.553  0.0452 -0.0439  0.1563
 4098W        W19567  14.450   6.203  10.765 -0.3915 -0.1281 -0.1754
 4099W        W19568  16.424   5.320   4.380 -0.2821  0.0726 -0.0337
 4100W        W19569  12.480   8.464  13.179  0.3505 -0.0934 -0.3355
 4101W        W19570   0.260  12.056   2.348 -0.1518  0.1196  0.0441
 4102W        W19571  10.691   9.771   0.832  0.1719  0.1207  0.0764
 4103W        W19572   8.182   6.510   1.972  0.2602  0.2648  0.1425
 4104W        W19573   9.340  15.647  13.226 -0.0734  0.4633 -0.5786
 4105W        W19574  11.391  10.480  13.702  0.4006  0.1346  0.0335
 4106W        W19575  17.270   6.110   3.458 -0.0747  0.2530  0.1061
 4107W        W19576   0.103   4.375   5.013 -0.0290  0.1455 -0.0481
 4108W        W19577  16.409  16.103   2.516  0.1055 -0.1050 -0.2433
 4109W        W19578   3.230   9.950  10.567  0.0530  0.2011 -0.1681
 4110W        W19579   4.914  11.146   1.099  0.0336 -0.0720 -0.0794
 4111W        W19580   2.837   4.819   0.128  0.1135  0.0888 -0.2577
 4112W        W19581  17.415  18.609   2.369 -0.0776  0.0973  0.0617
 4113W        W19582  11.986  13.263  10.534  0.2640 -0.0163  0.0295
 4114W        W19583   9.736   6.355   4.233  0.1466 -0.4111 -0.1340
 4115W        W19584   3.152   3.287   1.571 -0.3711  0.2191 -0.0618
 4116W        W19585   7.704   0.120  13.960 -0.1332  0.1371 -0.1725
 4117W        W19586   5.953   5.508  10.509 -0.3394 -0.1417  0.0373
 4118W        W19587  10.574  16.496  14.319  0.0948  0.2284  0.0323
 4119W        W19588   5.278   4.574   3.081 -0.0321 -0.1664  0.0959
 4120W        W19589  15.999   9.365   1.479 -0.1278  0.2124  0.0860
 4121W        W19590  12.643  11.854   4.761 -0.2022 -0.1592 -0.0485
 4122W        W19591  16.810   8.432   0.564  0.1695  0.1029 -0.0320
 4123W        W19592  12.446   0.819  12.975 -0.1434 -0.2248 -0.5781
 4124W        W19593  18.500   9.910   1.165 -0.3772 -0.0923 -0.1216
 4125W        W19594  10.488  12.141  12.109  0.2564 -0.2096 -0.2509
 4126W        W19595  18.836   7.252  14.195  0.2019 -0.0657  0.3852
 4127W        W19596   6.711   3.374  14.369  0.1364 -0.2128  0.2048
 4128W        W19597   3.235  11.798   2.433  0.0579  0.3198  0.1362
 4129W        W19598  12.506   7.273   2.234  0.1819 -0.1057  0.2231
 4130W        W19599  13.104  17.561   2.496 -0.4062  0.4146  0.1018
 4131W        W19600   6.244   4.789  10.972 -0.3137 -0.0886  0.3098
 4132W        W19601  13.133  18.217  10.239  0.1192  0.1176 -0.4769
 4133W        W19602  15.821   2.324   1.354  0.0858  0.2120  0.3069
 4134W        W19603  12.022   9.943  14.713  0.3207  0.1969  0.4317
 4135W        W19604  16.845  11.174   3.814  0.0643 -0.0401  0.1337
 4136W        W19605  10.079   7.472  11.187  0.1025 -0.4089 -0.3073
 4137W        W19606   0.555  16.580   1.918  0.3112  0.0610 -0.1856
 4138W        W19607  10.755   5.059   3.125 -0.0850 -0.2150  0.1468
 4139W        W19608  14.046   8.586  10.346 -0.1990 -0.1911  0.1462
 4140W        W19609   2.267   5.468   0.827  0.0288  0.0259 -0.0888
 4141W        W19610   3.816   3.948  10.884 -0.0657  0.0893 -0.0937
 4142W        W19611   2.964  18.072   5.554  0.2338 -0.1884 -0.2022
 4143W        W19612  16.929  11.364  14.177 -0.1472  0.0115  0.2736
 4144W        W19613   4.511   4.757   2.339 -0.1809  0.1674 -0.0530
 4145W        W19614  17.823   9.401  13.721  0.3079  0.2802 -0.0187
 4146W        W19615  10.234   2.283   4.886 -0.0230 -0.2991  0.1136
 4147W        W19616   5.799  18.671   3.475  0.0664 -0.0274 -0.2394
 4148W        W19617  11.796   5.642   9.919 -0.0769 -0.1252 -0.1638
 4149W        W19618   6.066  11.026  14.955  0.0543  0.0899 -0.1177
 4150W        W19619  11.737   1.239  12.589  0.0720  0.0591 -0.3285
 4151W        W19620   2.240   5.060  13.039  0.1433  0.0609  0.1499
 4152W        W19621   5.700   3.362   2.819  0.1003  0.0204 -0.1278
 4153W        W19622  18.889  15.263  10.643 -0.1916  0.3359  0.3261
 4154W        W19623  10.736   1.529   0.458 -0.3155  0.2729  0.0909
 4155W        W19624  11.721   4.060  12.958  0.1640 -0.3794  0.1679
 4156W        W19625   4.640  10.920  12.608 -0.5297 -0.0448  0.0700
 4157W        W19626   4.838   2.380  13.305  0.1826 -0.0354  0.1181
 4158W        W19627   1.845  14.477  15.096 -0.0058 -0.0764 -0.0964
 4159W        W19628   4.631   8.808   2.027 -0.0885  0.2276  0.1389
 4160W        W19629  17.108  18.385   0.886  0.0499  0.0103 -0.3791
 4161W        W19630  10.023  18.802  12.142  0.1628  0.0886 -0.0591
 4162W        W19631  19.001   3.001  12.914 -0.0593  0.0065  0.0178
 4163W        W19632   5.218  10.846   3.927  0.2687 -0.1475 -0.0793
 4164W        W19633  15.822   9.517  12.627  0.0575  0.0275  0.1863
 4165W        W19634   6.814   7.839   4.394 -0.0740 -0.1270  0.0936
 4166W        W19635   8.397   1.202  11.885 -0.1535 -0.1539  0.3818
 4167W        W19636  14.936  17.999   1.209  0.0290 -0.1215  0.1186
 4168W        W19637  17.458  10.363   2.005 -0.0730  0.0159 -0.2751
 4169W        W19638   1.579  18.231  12.327 -0.0329 -0.0446  0.0995
 4170W        W19639  15.326   1.811  14.643 -0.0082  0.1747 -0.1395
 4171W        W19640   8.018  18.586  12.262 -0.3197 -0.2370 -0.5069
 4172W        W19641   2.305   7.720  11.641 -0.0455 -0.3179  0.0403
 4173W        W19642   3.265  13.681   1.239  0.2059  0.1632  0.0311
 4174W        W19643   6.548  14.314  12.073 -0.0366 -0.0219 -0.0675
 4175W        W19644  13.009   6.297  12.522 -0.1743 -0.3654  0.4175
 4176W        W19645  10.104  17.314   0.942 -0.1487 -0.2325  0.1531
 4177W        W19646   6.116   5.763   2.685  0.0289 -0.1855 -0.2609
 4178W        W19647   9.037   8.730  13.580 -0.3711  0.0356  0.4354
 4179W        W19648  12.937  13.600  10.235  0.2217 -0.2540  0.3875
 4180W        W19649  12.748  14.450  12.376 -0.0734 -0.1638 -0.1499
 4181W        W19650  15.708  14.111   1.295  0.2252 -0.0828 -0.3646
 4182W        W19651   5.315   5.203   2.306 -0.2291  0.0563  0.2095
 4183W        W19652  16.173  15.897  12.104 -0.3360  0.2400 -0.0890
 4184W        W19653  10.565  10.988  11.490 -0.1562  0.2869 -0.3757
 4185W        W19654   7.372   3.134   0.451 -0.1619 -0.2747  0.1428
 4186W        W19655   6.493  11.103   0.134 -0.0035  0.2941 -0.1386
 4187W        W19656   2.885   5.219   1.469  0.0763 -0.1023  0.3069
 4188W        W19657  11.224  17.986   5.744 -0.1269  0.0451  0.0706
 4189W        W19658   3.295  17.055   0.593  0.1768  0.1557  0.1382
 4190W        W19659   9.032   3.842   0.437  0.1291 -0.3363  0.0667
 4191W        W19660  17.070   7.502  12.798 -0.2607 -0.4224 -0.1014
 4192W        W19661  14.076  15.409  11.359  0.1198  0.3415 -0.1170
 4193W        W19662  18.142  13.532  14.836 -0.1926 -0.0482 -0.3066
 4194W        W19663  12.375   6.819   3.915 -0.0642  0.0860 -0.3662
 4195W        W19664  17.210   2.163   2.613 -0.0781  0.0360  0.0300
 4196W        W19665   9.432  13.421  11.712 -0.0007 -0.0879 -0.0234
 4197W        W19666  17.201   1.330   2.482  0.0083 -0.2060  0.0110
 4198W        W19667   0.847  12.233   0.872  0.2676 -0.0138 -0.0273
 4199W        W19668  12.289   5.237   2.974  0.1922  0.0912 -0.1126
 4200W        W19669   9.722  18.415   3.860  0.1300  0.0116  0.0719
 4201W        W19670   3.463   0.940   1.833  0.0892 -0.1119  0.0642
 4202W        W19671   6.577   2.892   3.294  0.1181 -0.0708  0.1241
 4203W        W19672   4.147  11.380  13.487  0.1043 -0.3023 -0.2155
 4204W        W19673   7.072  15.109  11.822  0.0664 -0.1405 -0.3267
 4205W        W19674  16.090   8.507  12.952 -0.0922 -0.0424 -0.0360
 4206W        W19675   0.471  13.073  14.390 -0.0679 -0.0760  0.0583
 4207W        W19676   7.773   2.506   0.227 -0.2408 -0.2755  0.0619
 4208W        W19677   9.889  12.692   4.683 -0.0772 -0.4063 -0.0595
 4209W        W19678  13.587   9.451  11.460 -0.4032 -0.4471 -0.3890
 4210W        W19679  15.003   2.309   1.361  0.1291  0.0878 -0.4971
 4211W        W19680   0.425   9.807  14.887  0.1642 -0.1436 -0.0658
 4212W        W19681   3.152   0.002  12.287  0.2725  0.0716  0.1905
 4213W        W19682  16.885  18.141  13.026 -0.2808 -0.2268 -0.1914
 4214W        W19683   0.254  11.400  11.133  0.2476 -0.0378 -0.2950
 4215W        W19684  12.340   5.908  13.276  0.3624 -0.2676 -0.1876
 4216W        W19685  16.475  16.891   2.790  0.2428  0.0927 -0.0024
 4217W        W19686  15.257   8.582   1.600  0.2507 -0.2258 -0.2169
 4218W        W19687  13.525  12.388   3.859  0.1574  0.1312  0.2625
 4219W        W19688  17.442   9.125   0.483 -0.0454 -0.0580 -0.1195
 4220W        W19689  18.347  14.807   0.249  0.0017  0.1441  0.0076
 4221W        W19690  16.950   3.787  11.148 -0.0744  0.0984  0.0645
 4222W        W19691   6.642   8.196  13.673  0.2076 -0.0838 -0.1733
 4223W        W19692   2.105   7.856   5.074  0.0235  0.0132  0.0862
 4224W        W19693  15.329  13.537   2.754 -0.1713 -0.1015  0.5034
 4225W        W19694   7.877  10.632   2.629 -0.0951 -0.0418 -0.0913
 4226W        W19695  15.498   1.463   1.662 -0.0413  0.1115  0.0775
 4227W        W19696  16.325  14.619  11.392  0.0215  0.1044 -0.0824
 4228W        W19697  12.129   2.013  10.693  0.1202 -0.2151  0.0906
 4229W        W19698   0.489   4.224  13.984  0.1565 -0.0032 -0.0106
 4230W        W19699   9.028   5.720  12.410  0.1176  0.0624 -0.3347
 4231W        W19700   7.685  11.292   5.569  0.1888  0.2960  0.0628
 4232W        W19701  11.872   0.014   4.569  0.0624 -0.0337 -0.1317
 4233W        W19702   4.586   3.262  10.103  0.0611 -0.0296  0.0165
 4234W        W19703  14.423   2.846   0.895  0.2880 -0.0018 -0.0206
 4235W        W19704  18.287  15.740  11.064  0.1071 -0.2232 -0.3658
 4236W        W19705  12.657  15.202  10.929  0.0586  0.3502  0.0242
 4237W        W19706   6.462  13.290   4.826 -0.1206 -0.1149 -0.2354
 4238W        W19707   5.561  15.221   3.091 -0.1629  0.1522  0.0449
 4239W        W19708   6.117   0.284   0.044  0.0651  0.1194  0.1925
 4240W        W19709  16.700  18.819   2.692 -0.1352  0.2927 -0.0416
 4241W        W19710  12.428  13.435  10.725  0.0658 -0.0044 -0.1129
 4242W        W19711  16.652  15.692  14.155  0.3553  0.3421 -0.0428
 4243W        W19712   9.127  15.074  14.479 -0.2948  0.2571 -0.0777
 4244W        W19713   9.788   7.744  14.855 -0.2210 -0.3135  0.0598
 4245W        W19714  16.387  17.716  12.778 -0.0417  0.2515 -0.1509
 4246W        W19715  14.397  17.847   4.296 -0.1446 -0.0923 -0.2367
 4247W        W19716   2.014   6.597  13.917  0.6647  0.1279 -0.0585
 4248W        W19717  15.653  11.582   4.571  0.1697  0.3086 -0.0388
 4249W        W19718  15.461   4.314  14.367 -0.2732 -0.1345  0.1038
 4250W        W19719  14.332   0.147   4.642  0.1176 -0.0129 -0.2616
 4251W        W19720  13.931  16.827   5.335 -0.0750 -0.0339  0.0217
 4252W        W19721   0.276   2.117   2.750 -0.0065  0.1288 -0.1174
 4253W        W19722  11.643  13.819  14.793 -0.2493 -0.1452  0.2693
 4254W        W19723  10.678  17.382  11.456 -0.1655 -0.0427  0.2683
 4255W        W19724  18.800  10.140   2.826 -0.0853 -0.0375 -0.3248
 4256W        W19725  11.026   9.186   0.944  0.0409  0.1904 -0.0104
 4257W        W19726  10.072  12.888  11.442 -0.1153  0.0210  0.2106
 4258W        W19727  16.415   3.425   2.293  0.1477 -0.0030 -0.1550
 4259W        W19728   2.878   4.871   2.660 -0.1806  0.1458 -0.2508
 4260W        W19729  11.970   8.095  15.074  0.1359 -0.4589 -0.2050
 4261W        W19730   4.961   3.517   4.336 -0.0223  0.2437  0.3254
 4262W        W19731  15.207  11.968  13.327  0.1068 -0.0025  0.0332
 4263W        W19732   9.887   5.521  10.604  0.0485  0.1842  0.0373
 4264W        W19733  12.382   7.257  12.313  0.0490 -0.0358 -0.0021
 4265W        W19734   3.175   4.530  12.800 -0.1562  0.0363 -0.1117
 4266W        W19735   2.894  17.952   0.397 -0.0245 -0.0337 -0.0774
 4267W        W19736   9.805   3.760  11.584 -0.1062  0.1509 -0.5110
 4268W        W19737  10.663  14.008  12.423 -0.2498 -0.0718  0.1117
 4269W        W19738  13.529  12.400   1.819  0.0209  0.0085 -0.0785
 4270W        W19739   3.982  11.487  13.939 -0.1199  0.1862  0.1125
 4271W        W19740  12.598   3.711   0.528  0.0175 -0.2547 -0.1967
 4272W        W19741   7.022   9.047   4.623 -0.1721 -0.0897  0.3788
 4273W        W19742  10.985   4.881  11.777  0.1604 -0.1621  0.2123
 4274W        W19743   7.660   0.127  11.163 -0.0144 -0.0896  0.0314
 4275W        W19744   4.691  11.788  11.668  0.3642  0.1267  0.0478
 4276W        W19745  15.488   3.590  14.473  0.2194  0.0730  0.0930
 4277W        W19746   1.521   9.061   1.128  0.4029  0.1865  0.0656
 4278W        W19747   6.354  12.771  13.612 -0.1645 -0.0895  0.1784
 4279W        W19748   6.772  15.383   3.939  0.4512 -0.3243  0.0217
 4280W        W19749   0.417  16.140   2.746  0.0623  0.1083  0.0102
 4281W        W19750   6.150   5.901  13.366 -0.3070 -0.2094 -0.3309
 4282W        W19751   0.651   9.640  12.245  0.3977  0.0862 -0.3083
 4283W        W19752   1.809  13.605  10.719  0.0673  0.0408  0.3193
 4284W        W19753  16.586   0.879  14.383  0.1798 -0.0462  0.1307
 4285W        W19754  12.721   4.054   4.319  0.0500 -0.0005  0.2181
 4286W        W19755   0.312   0.414  13.675 -0.1486 -0.0127  0.2150
 4287W        W19756   5.783  15.018  10.784  0.0152  0.3047 -0.0897
 4288W        W19757  12.550   4.359   3.389  0.0968 -0.2136  0.0895
 4289W        W19758   3.211   3.366   0.359  0.0211 -0.0781  0.2764
 4290W        W19759  11.015   2.663   5.298 -0.0789  0.4114  0.0658
 4291W        W19760  12.505   2.431   3.664  0.1515  0.0878  0.0159
 4292W        W19761   7.154  17.284  11.904  0.0868  0.0612 -0.0445
 4293W        W19762  17.410   6.029  11.276  0.0477 -0.0573  0.0794
 4294W        W19763   1.111   0.847  13.834  0.4102  0.2677  0.4384
 4295W        W19764   1.706   4.761   2.391 -0.1791  0.0252  0.1621
 4296W        W19765   2.520   2.842   0.920 -0.1771 -0.0434  0.0003
 4297W        W19766   4.266   1.811   0.496  0.0003  0.0002  0.0739
 4298W        W19767   0.637   5.397  13.455  0.2343 -0.3450  0.3451
 4299W        W19768   3.903   8.618   1.430  0.1326  0.2693 -0.1066
 4300W        W19769  10.309  17.736  13.832 -0.0976 -0.2186 -0.2692
 4301W        W19770   6.595  15.411   1.069 -0.0220 -0.1292 -0.4446
 4302W        W19771   3.005   4.994  14.573 -0.4205  0.1428  0.3634
 4303W        W19772  12.321   2.440  13.837  0.1516  0.2992 -0.1449
 4304W        W19773   7.129  17.139   2.259  0.0574 -0.1249 -0.3732
 4305W        W19774   6.220  10.791   0.332  0.2050 -0.0368  0.1032
 4306W        W19775  11.240  18.176  11.973 -0.2138 -0.2105 -0.0422
 4307W        W19776   3.086  16.576  12.905 -0.1958 -0.1867  0.0040
 4308W        W19777   6.562  15.277   0.158  0.1419 -0.2466  0.5037
 4309W        W19778   9.482   7.239   3.667 -0.2965 -0.0975 -0.1629
 4310W        W19779  18.302  10.387   0.316 -0.0503 -0.0548  0.0467
 4311W        W19780   8.532  18.457  12.242 -0.2640 -0.2153 -0.0557
 4312W        W19781   3.482   1.959  15.009 -0.1546  0.6491  0.0293
 4313W        W19782  15.600   6.951  15.204  0.1061 -0.2304 -0.3983
 4314W        W19783  15.337  17.873  14.321  0.1962  0.2343 -0.0131
 4315W        W19784   7.542   7.966   9.617  0.1241  0.1583 -0.3057
 4316W        W19785  13.924  18.823  11.814 -0.1560  0.2501  0.1478
 4317W        W19786   0.343   4.598   2.835  0.0372  0.2196 -0.0606
 4318W        W19787   6.656  15.707  10.902  0.1465  0.0255  0.0938
 4319W        W19788  11.418   5.912   0.392 -0.1729 -0.0464 -0.2414
 4320W        W19789   4.806  14.420   0.464  0.1917 -0.4128  0.0049
 4321W        W19790   3.950   1.835   0.078 -0.2229  0.0253  0.0178
 4322W        W19791   1.500   5.746   3.456  0.0897 -0.1393 -0.4268
 4323W        W19792  11.207   5.259   2.852  0.0815 -0.0940  0.2015
 4324W        W19793  18.420   6.868   2.766 -0.0167  0.0069  0.1951
 4325W        W19794   5.578  15.087  14.428 -0.1244 -0.2818  0.0456
 4326W        W19795  18.098  11.341  10.553  0.0258 -0.0135 -0.0891
 4327W        W19796  14.152   9.284   5.273 -0.0774  0.1706 -0.0133
 4328W        W19797   8.674   2.974   1.165  0.1840 -0.0621 -0.0345
 4329W        W19798   1.241  10.150   1.524 -0.3045  0.2497  0.1051
 4330W        W19799   7.811  10.677  10.771  0.1113  0.4787 -0.0461
 4331W        W19800  12.552  10.334   2.084 -0.0580 -0.0072  0.0383
 4332W        W19801   4.549   3.221   4.429  0.2807  0.0471  0.0350
 4333W        W19802   4.253  11.704   4.336 -0.0545  0.2432 -0.0042
 4334W        W19803  10.177   2.250   2.117 -0.0269  0.3132 -0.0729
 4335W        W19804   7.197  14.477   0.224 -0.0376  0.1496 -0.1622
 4336W        W19805   6.053  12.157   2.448  0.4918 -0.1461  0.0057
 4337W        W19806  15.965   2.765   1.263  0.1298 -0.3259  0.3603
 4338W        W19807   1.765  18.498   1.937  0.0479  0.0917 -0.1822
 4339W        W19808   1.773  15.739   3.496  0.0583  0.2182  0.0565
 4340W        W19809   8.905  11.032  12.503 -0.0970 -0.3861  0.0728
 4341W        W19810   7.702   7.561   3.161  0.1535  0.0875 -0.0791
 4342W        W19811   7.677  12.300  15.360  0.1336 -0.2251  0.4399
 4343W        W19812  15.485  11.724  11.999  0.1378  0.1472 -0.1882
 4344W        W19813  11.983   4.738  10.200 -0.3197  0.2972 -0.2102
 4345W        W19814   5.943   9.810  11.959 -0.0150  0.1392  0.3258
 4346W        W19815  10.678   4.458  11.564  0.2549 -0.2147 -0.2524
 4347W        W19816   9.575   4.201  11.016  0.1354 -0.2103 -0.0573
 4348W        W19817  17.047  10.733   2.511 -0.0669  0.3330 -0.1597
 4349W        W19818   6.369  11.033   1.113  0.1087 -0.0296  0.0484
 4350W        W19819  15.099  17.012   2.673 -0.1946  0.1083 -0.0009
 4351W        W19820   9.115  15.269  12.920 -0.2354  0.1308  0.0834
 4352W        W19821   1.562  15.479   4.423 -0.5595 -0.0603  0.1837
 4353W        W19822  18.723   7.531   1.200 -0.3032 -0.0122 -0.0644
 4354W        W19823   5.304  13.023  12.501 -0.0722  0.2308  0.0538
 4355W        W19824   0.699   0.397  11.498  0.2376 -0.2719  0.1866
 4356W        W19825  15.478  13.913   0.377 -0.4369  0.1292  0.3862
 4357W        W19826   1.739  15.067   1.235  0.0326  0.0086 -0.0397
 4358W        W19827  13.849   5.583   2.219 -0.2656 -0.2293 -0.3355
 4359W        W19828  13.137   0.013   0.421 -0.3074  0.2450  0.2004
 4360W        W19829  17.456   6.333   4.551  0.3338 -0.0338 -0.0465
 4361W        W19830   7.453   2.733   0.738  0.2631 -0.2255 -0.2121
 4362W        W19831   4.318  10.642   3.332  0.1454  0.0540 -0.4757
 4363W        W19832  13.587  13.553   1.912  0.0673  0.0788 -0.0722
 4364W        W19833  12.961  14.967   0.823 -0.1566  0.0982  0.2321
 4365W        W19834   8.883   9.640  11.932 -0.0441 -0.0153 -0.2090
 4366W        W19835   7.312   5.734  13.485 -0.0317  0.0951  0.2414
 4367W        W19836   9.587   9.107  12.211  0.0858 -0.1105 -0.0519
 4368W        W19837   6.647   9.611  15.299 -0.4150  0.2381 -0.1336
 4369W        W19838   9.664  16.403  14.910 -0.2689 -0.3095  0.0054
 4370W        W19839  15.227  13.675   2.014  0.2538  0.2461  0.3916
 4371W        W19840   7.275  11.963   1.407 -0.2881 -0.3742 -0.3501
 4372W        W19841   2.882   6.813   9.756  0.1352  0.0434 -0.0635
 4373W        W19842   5.390   1.935  13.450 -0.0667  0.3265  0.1023
 4374W        W19843   9.513   4.753  11.431 -0.2355 -0.0435  0.1831
 4375W        W19844   5.704  16.946   2.396  0.4287  0.0031  0.3200
 4376W        W19845  14.244   6.169  11.683  0.2107  0.0074 -0.2061
 4377W        W19846  11.726   0.167  10.492 -0.1579 -0.2883 -0.3462
 4378W        W19847  14.557   5.426  10.268  0.0822  0.1204 -0.0959
 4379W        W19848   5.326  18.421   5.019 -0.1439  0.0581 -0.3904
 4380W        W19849  15.075   3.780   3.905 -0.0719  0.0462 -0.1435
 4381W        W19850  16.439  15.651  10.699  0.0088 -0.0752 -0.2402
 4382W        W19851  14.407   7.025  12.558 -0.0184  0.2156 -0.2068
 4383W        W19852  10.595  14.978  10.335  0.2296 -0.0491 -0.2293
 4384W        W19853  15.758  15.714   3.263  0.2703  0.3531 -0.0976
 4385W        W19854   6.039  11.425   9.252  0.1385  0.0731  0.0793
 4386W        W19855   8.024   8.848   4.857  0.2029  0.0526  0.0563
 4387W        W19856   4.660   1.156   3.853  0.2734 -0.2018 -0.0568
 4388W        W19857  18.455   3.318  11.578  0.2220  0.0324 -0.2814
 4389W        W19858  17.203   9.755  13.097  0.0953 -0.2139 -0.0381
 4390W        W19859   4.969   4.514   0.687  0.1063  0.3917  0.0479
 4391W        W19860   4.258   2.052  14.519 -0.1051 -0.2410 -0.2018
 4392W        W19861   5.274   7.428  14.842  0.5122 -0.0211 -0.0631
 4393W        W19862  11.432   5.384   0.371 -0.2049  0.0194  0.1040
 4394W        W19863   2.220   8.325   4.201 -0.1659  0.0051 -0.1247
 4395W        W19864  15.051   9.040   1.763  0.3783  0.1760  0.2015
 4396W        W19865   4.299   7.301  12.857 -0.0094 -0.0676  0.0493
 4397W        W19866  18.357  18.848  10.272 -0.2602  0.2593 -0.1259
 4398W        W19867   5.958   5.743   3.571 -0.2345  0.1341  0.0416
 4399W        W19868  18.093  10.280  15.243 -0.1041 -0.0492  0.0452
 4400W        W19869  10.245  16.740  12.677  0.1599 -0.3258 -0.2218
 4401W        W19870  11.076  13.046  14.861 -0.3936  0.0999 -0.5208
 4402W        W19871  12.543  16.337  11.386 -0.1221  0.0462  0.2944
 4403W        W19872   6.247   2.916  13.340 -0.4419  0.0991 -0.3246
 4404W        W19873   2.285   0.434   4.895  0.1912  0.0210  0.1045
 4405W        W19874   1.812  16.667   3.458  0.0276  0.1408 -0.0139
 4406W        W19875   8.038  17.361  14.697 -0.0395 -0.0654  0.1290
 4407W        W19876  16.272  16.144  10.919  0.0512 -0.2304  0.1909
 4408W        W19877   5.799   1.735   4.194 -0.2078  0.3293  0.1090
 4409W        W19878   6.996  10.681  13.871 -0.0950 -0.2005  0.1912
 4410W        W19879  14.027   0.536   2.074  0.0307  0.3643 -0.0524
 4411W        W19880   5.863   1.304   5.678  0.1852 -0.4093 -0.2423
 4412W        W19881   6.569   8.853   9.631 -0.0982  0.0780 -0.0589
 4413W        W19882   6.542   2.337   3.183  0.1557  0.1841 -0.1255
 4414W        W19883   4.044  17.264   3.645 -0.1208 -0.0879 -0.0357
 4415W        W19884   9.905   1.045  10.384 -0.0706 -0.1247 -0.0273
 4416W        W19885  15.827  10.278  12.190  0.0909 -0.3521  0.0506
 4417W        W19886  15.802   6.923  12.568  0.2418  0.4200  0.2309
 4418W        W19887   7.723  16.304   3.695  0.0598  0.0384  0.2302
 4419W        W19888   6.655   4.020   3.432 -0.0471 -0.0530 -0.0590
 4420W        W19889   5.748  15.861  10.582 -0.2535 -0.0634  0.1102
 4421W        W19890  17.634   7.478   4.944 -0.2606 -0.0340 -0.0929
 4422W        W19891  15.906  15.923   9.803 -0.1402 -0.3894  0.0782
 4423W        W19892  13.927  10.393  10.667 -0.1211 -0.3568 -0.1944
 4424W        W19893   3.784  16.595  14.001  0.1944 -0.2901  0.1946
 4425W        W19894   1.947   9.149  10.665  0.1014 -0.2671 -0.0589
 4426W        W19895  18.657   5.571   4.391 -0.3068 -0.0208  0.4963
 4427W        W19896   4.050   1.425  10.974 -0.1942  0.1795  0.1037
 4428W        W19897   2.375  13.147   1.106  0.2316  0.0488 -0.2721
 4429W        W19898   5.507   0.817   5.005  0.4684  0.1540 -0.2379
 4430W        W19899   4.442   7.923   4.915  0.0877 -0.2665 -0.2825
 4431W        W19900   6.696   3.992  10.514  0.2421 -0.0123 -0.1454
 4432W        W19901  15.852  12.025   4.434 -0.1782 -0.2318 -0.3468
 4433W        W19902   1.088   2.727  10.006 -0.2542 -0.0738 -0.0117
 4434W        W19903  17.618   8.767   4.144 -0.3625 -0.1078  0.2123
 4435W        W19904   0.809   7.291   3.120 -0.3154 -0.1891  0.0731
 4436W        W19905  10.474  18.152   3.581  0.5419  0.0466 -0.0638
 4437W        W19906  10.870   6.476  14.037 -0.0314 -0.1872  0.0980
 4438W        W19907   6.816  16.984  13.208  0.2292  0.0586  0.0440
 4439W        W19908   4.907  10.586   4.622 -0.2215 -0.3207 -0.3431
 4440W        W19909   5.512  11.509  11.987 -0.3474 -0.1209  0.0655
 4441W        W19910  15.403   3.360  11.559  0.0221 -0.1721  0.0061
 4442W        W19911   1.440  10.019   2.659  0.3480  0.0055 -0.0920
 4443W        W19912  16.078  12.386  11.277 -0.1102 -0.0126 -0.1272
 4444W        W19913  18.900  13.728   9.739  0.4044  0.2286 -0.1427
 4445W        W19914  18.998  12.098   5.138 -0.4644  0.0357 -0.2585
 4446W        W19915   0.587   6.476   1.530 -0.0625 -0.0714  0.0912
 4447W        W19916  15.269  17.735   0.586  0.0334 -0.1877 -0.3806
 4448W        W19917  11.198  16.802  15.241 -0.1690 -0.0772  0.0700
 4449W        W19918   6.812  16.587  11.407 -0.0735 -0.1042 -0.0709
 4450W        W19919  10.247  16.266   3.841  0.0326 -0.1059  0.0503
 4451W        W19920   2.518  10.480   1.998  0.3333 -0.0067  0.0221
 4452W        W19921  18.164   2.439   1.010 -0.0651  0.2075  0.3325
 4453W        W19922  11.078   1.907   3.489  0.0596 -0.1327  0.0069
 4454W        W19923   0.688  15.565   0.555  0.1557  0.1499 -0.0232
 4455W        W19924   1.773   1.099  11.757  0.4352  0.0706  0.1849
 4456W        W19925  11.417   3.870   5.448 -0.2027  0.1464 -0.1401
 4457W        W19926   7.971  14.383   1.135  0.1157  0.2701 -0.2824
 4458W        W19927  16.167   3.140   1.057 -0.0945 -0.1685 -0.2482
 4459W        W19928   2.451  11.885   1.757  0.4002 -0.0906  0.2319
 4460W        W19929  10.818   8.706   0.957  0.1706  0.0643 -0.0152
 4461W        W19930   1.982   1.081  11.047  0.0312  0.0335  0.3010
 4462W        W19931  12.551  11.125  14.422  0.2201  0.0031  0.0386
 4463W        W19932   8.186   6.924  13.598 -0.0071 -0.0770 -0.1680
 4464W        W19933  15.394  14.165   2.850 -0.1984 -0.2299  0.1350
 4465W        W19934   0.673   9.181  13.405  0.2794 -0.1914 -0.4623
 4466W        W19935   4.157  11.061  11.690 -0.0642  0.0994 -0.0220
 4467W        W19936   5.403   6.708   6.140  0.0772  0.1565 -0.1326
 4468W        W19937   8.026   8.359   1.758 -0.2955 -0.0799 -0.1116
 4469W        W19938  16.492   4.929  13.131 -0.0221  0.1000 -0.3996
 4470W        W19939  11.804   8.380   0.316  0.3240 -0.0059 -0.3034
 4471W        W19940   8.695  17.161   4.396 -0.0844  0.1315  0.1219
 4472W        W19941   6.757  18.365  14.024  0.2575 -0.0002 -0.2316
 4473W        W19942   6.754   2.416   4.124 -0.2105 -0.0797  0.0181
 4474W        W19943   3.405  11.965   0.115 -0.0108 -0.1085  0.1506
 4475W        W19944  10.924   5.742   2.953  0.2197 -0.4629 -0.0170
 4476W        W19945   5.890  12.573   2.173 -0.1808 -0.1306  0.0462
 4477W        W19946  16.025  11.190  13.606 -0.0470  0.2998 -0.0890
 4478W        W19947   2.036  17.211   3.957 -0.0091 -0.0285  0.1057
 4479W        W19948  16.184  10.533  12.428  0.1989  0.1747  0.1293
 4480W        W19949   1.374  18.584   1.221  0.2469 -0.2139 -0.0380
 4481W        W19950  18.406   8.317   1.637 -0.2328  0.0023  0.0376
 4482W        W19951  15.176   5.913  13.172 -0.1443 -0.0302  0.1790
 4483W        W19952  11.220  11.121  12.037  0.1511  0.0291  0.1193
 4484W        W19953  12.600   9.158   0.562 -0.4547 -0.2338 -0.1499
 4485W        W19954   1.059  18.836   8.957 -0.3724 -0.0292 -0.2810
 4486W        W19955  11.884   3.997   4.007  0.2764 -0.0629 -0.0264
 4487W        W19956   6.263   6.434  12.766 -0.2340  0.2458 -0.2473
 4488W        W19957  13.617   2.064   3.398  0.5199 -0.1200 -0.0657
 4489W        W19958   3.730   5.960  11.449  0.0920 -0.5111  0.1641
 4490W        W19959  10.226   8.964  11.571  0.0011  0.0692 -0.0660
 4491W        W19960  17.403  15.269   1.844 -0.0434  0.2276  0.1546
 4492W        W19961   5.256  15.500   3.756 -0.1389  0.0735 -0.0246
 4493W        W19962  17.915   0.007  10.002 -0.2613 -0.0660 -0.0615
 4494W        W19963   8.117   6.365   1.416  0.1873  0.2716 -0.0973
 4495W        W19964  18.456   5.311  14.405  0.2091 -0.2297 -0.1483
 4496W        W19965  17.353   4.849  10.541 -0.3127  0.0494  0.2470
 4497W        W19966   8.498  10.341  14.234 -0.2079 -0.0837 -0.2762
 4498W        W19967  11.314  10.553   1.598 -0.3751  0.0768 -0.0002
 4499W        W19968   8.855  15.506   3.795 -0.1791 -0.1376 -0.2370
 4500W        W19969  10.849  18.674  13.151  0.0858 -0.0879 -0.1175
 4501W        W19970  15.111   9.638   4.967  0.0034 -0.0138 -0.0951
 4502W        W19971  16.834  10.019   2.906  0.0747  0.1002 -0.5186
 4503W        W19972   3.115   9.363  13.964 -0.1032  0.1010 -0.2411
 4504W        W19973  11.296   1.631   0.327  0.3500 -0.0939 -0.0847
 4505W        W19974  15.916  15.056   0.238 -0.1567  0.2416  0.3134
 4506W        W19975  11.394   0.467  14.617  0.3764 -0.1575 -0.0727
 4507W        W19976   7.509   1.534  14.220  0.0683 -0.1172  0.2501
 4508W        W19977  18.878   9.841   0.901  0.1379  0.0426  0.2253
 4509W        W19978   1.076   7.095  12.376 -0.1611 -0.0495  0.0135
 4510W        W19979  16.375  12.947   3.188  0.1024 -0.0885  0.0567
 4511W        W19980   7.333   6.477  13.960 -0.0066  0.0207  0.2287
 4512W        W19981   4.625   4.269  13.242  0.1781 -0.1141 -0.1142
 4513W        W19982  14.110  13.457   5.170 -0.0929  0.2613 -0.0889
 4514W        W19983   5.044   7.646   1.531  0.0007  0.0998 -0.4684
 4515W        W19984  14.169   8.898   4.602  0.1281  0.0278 -0.0570
 4516W        W19985   2.939   0.651   1.322 -0.0645 -0.0972 -0.1402
 4517W        W19986  17.762   2.988  11.884 -0.1450  0.2134  0.0605
 4518W        W19987   0.004  16.357   1.593  0.4813  0.1338 -0.0123
 4519W        W19988  16.210   5.203  12.326  0.1336  0.2251 -0.0116
 4520W        W19989   3.039   9.136   1.984 -0.1682  0.0968 -0.1473
 4521W        W19990  16.274   4.038  11.673 -0.5858  0.1650  0.1038
 4522W        W19991   0.841  18.189   4.300  0.0841  0.2255 -0.0425
 4523W        W19992  15.418  14.517  13.874 -0.0090  0.0663 -0.1359
 4524W        W19993  17.599  16.177   2.574 -0.1003 -0.1437  0.0939
 4525W        W19994  15.170   8.831   0.720  0.0342 -0.1519 -0.0027
 4526W        W19995  18.544   2.874   2.693 -0.5387 -0.1428  0.1437
 4527W        W19996  14.400  17.858  11.659  0.0987  0.1249 -0.1447
 4528W        W19997  15.132   8.946  14.903  0.3344 -0.4468 -0.1092
 4529W        W19998   9.612  17.234   4.260  0.0219 -0.0541  0.0223
 4530W        W19999   0.685  17.902   4.909 -0.2246 -0.1051  0.2661
 4531W        W20000  13.494  10.470   2.098  0.3226 -0.1583 -0.0175
 4532W        W20001   4.741   5.713  11.618  0.3399  0.1988  0.0263
 4533W        W20002   4.829  17.169  12.084 -0.3923  0.3573  0.1042
 4534W        W20003   7.994  15.275  11.964  0.0005 -0.0313 -0.0533
 4535W        W20004  18.410   1.137  10.507  0.4078  0.0184  0.1074
 4536W        W20005  14.008   1.401  12.383 -0.2431 -0.1141 -0.3653
 4537W        W20006  13.909   9.609   2.430 -0.1031 -0.2695 -0.0049
 4538W        W20007   0.779  16.479   3.869 -0.0525  0.2113 -0.0667
 4539W        W20008   6.757   0.729   3.525 -0.0791  0.0380 -0.0818
 4540W        W20009   6.807   9.926  14.254  0.2174  0.3879  0.1381
 4541W        W20010   6.136  10.642   3.485  0.1887 -0.1895  0.0009
 4542W        W20011   0.961   6.297  10.354 -0.1236 -0.0389 -0.0933
 4543W        W20012  13.703   8.137  14.862 -0.2734  0.1627 -0.1943
 4544W        W20013  18.767   0.299  14.054  0.0384  0.3169 -0.0345
 4545W        W20014  17.862   8.844   1.838  0.1635  0.1487  0.0038
 4546W        W20015   2.702  15.373   5.126  0.0493 -0.2608  0.2530
 4547W        W20016  10.578  17.324   2.456  0.2351  0.1082 -0.2079
 4548W        W20017   9.418   1.835  14.272 -0.2455  0.6123  0.1535
 4549W        W20018  17.217  13.658  14.644  0.2433  0.0469 -0.2552
 4550W        W20019   0.612  13.773  11.480 -0.1483  0.5061  0.0637
 4551W        W20020  16.589   6.214   1.899 -0.1505 -0.1525 -0.2346
 4552W        W20021   2.704  14.621  11.198 -0.3688 -0.3017  0.0179
 4553W        W20022  10.478   3.305  11.999 -0.1854  0.0270 -0.2223
 4554W        W20023   6.664   1.444   0.059 -0.3544  0.2827  0.2375
 4555W        W20024  16.962   5.735  12.259  0.0909 -0.0457  0.1368
 4556W        W20025  10.953  13.519   3.009 -0.2795 -0.3439  0.2413
 4557W        W20026  17.767   7.345  15.052  0.1556  0.0319 -0.0128
 4558W        W20027   4.720  10.452  14.664 -0.1473 -0.1462  0.1073
 4559W        W20028  17.132   3.451   0.697  0.0263  0.0909 -0.0263
 4560W        W20029   1.849   4.750   4.555 -0.2773  0.0898 -0.0867
 4561W        W20030   7.721  10.183  13.036  0.1546  0.0100  0.1759
 4562W        W20031  15.232   5.076   0.102 -0.1615  0.0596  0.1726
 4563W        W20032   9.821   9.348   2.926 -0.3001  0.0834 -0.2328
 4564W        W20033   4.048   7.864   1.982 -0.0614  0.1793 -0.0253
 4565W        W20034  12.195   6.852  12.051 -0.0919  0.0921 -0.0513
 4566W        W20035   4.557  14.801  13.305 -0.2707  0.2684  0.0413
 4567W        W20036  13.651  11.366  14.860  0.1511  0.0248 -0.2650
 4568W        W20037  14.770   6.471   2.935 -0.1479  0.0800  0.0768
 4569W        W20038   7.561  11.399  12.774  0.1129 -0.1416  0.1698
 4570W        W20039   8.565  11.806  10.145  0.1486  0.0499  0.2334
 4571W        W20040   8.380   6.540   4.053 -0.2897 -0.0306  0.2782
 4572W        W20041   0.677  15.095  12.275 -0.0580 -0.0207  0.0180
 4573W        W20042   5.176  16.487   3.741  0.0479  0.0722 -0.1334
 4574W        W20043   0.023  16.021   5.124 -0.2249  0.1862 -0.1488
 4575W        W20044   0.653  16.044  12.434  0.0151 -0.1661 -0.0456
 4576W        W20045   9.179   9.593   1.731 -0.3184 -0.2008 -0.1191
 4577W        W20046   7.504  13.519  12.624 -0.0859 -0.0661 -0.0718
 4578W        W20047   4.187  18.659   2.425 -0.0445 -0.2036 -0.3635
 4579W        W20048   3.931  13.604   1.289  0.1236  0.0911 -0.0390
 4580W        W20049   0.694  14.279   4.802 -0.0867  0.0608  0.0584
 4581W        W20050  10.016   3.417  15.025  0.1075 -0.3526 -0.0679
 4582W        W20051   5.888  15.868  12.850  0.3225 -0.3105 -0.0419
 4583W        W20052   9.541  13.828  12.470 -0.2852 -0.2079  0.1411
 4584W        W20053   2.135  11.443   4.894  0.0320 -0.2281  0.0550
 4585W        W20054   3.434   6.126  15.209  0.0134 -0.0121  0.2362
 4586W        W20055   9.526  11.717   5.075 -0.0610  0.0854  0.0492
 4587W        W20056  15.979   7.300  13.501  0.0121  0.0196  0.2047
 4588W        W20057  15.812  13.860   3.528 -0.0012 -0.0058  0.1392
 4589W        W20058  17.984  15.478  13.482 -0.4300  0.1020 -0.1245
 4590W        W20059  13.386   2.291  14.604 -0.0325 -0.2283 -0.2325
 4591W        W20060   2.214   8.754   3.228  0.0892  0.1143  0.1528
 4592W        W20061   2.396   1.790  11.969 -0.1031 -0.2505 -0.1150
 4593W        W20062  11.868   7.514  15.214 -0.0237  0.4159  0.0860
 4594W        W20063   4.106   4.591  14.914  0.0850 -0.1117  0.1788
 4595W        W20064  17.084   1.779   1.303 -0.0937  0.2008 -0.2346
 4596W        W20065  13.676   3.344   4.984 -0.0301 -0.1944  0.1342
 4597W        W20066  11.913   7.701  12.806  0.3253 -0.1960 -0.1468
 4598W        W20067  17.820   1.506   5.660 -0.1696  0.0214  0.1197
 4599W        W20068  14.388  18.231   1.879 -0.0087  0.1867 -0.0576
 4600W        W20069   7.740   5.125  12.433  0.0663 -0.2739 -0.1453
 4601W        W20070  14.995   0.524   0.280 -0.0443 -0.2524 -0.1444
 4602W        W20071  18.838  12.210   4.556  0.0471  0.1709 -0.1799
 4603W        W20072   4.234  13.387  11.477  0.0513  0.0917 -0.0565
 4604W        W20073  14.252  15.482  10.313  0.4085 -0.0393  0.0864
 4605W        W20074  12.160   0.614   5.618 -0.1238 -0.2002 -0.0364
 4606W        W20075   7.564   8.172  13.558  0.0888  0.2349 -0.0883
 4607W        W20076   9.441   6.378  15.091 -0.0467 -0.2668 -0.1550
 4608W        W20077  13.277   6.061  10.200 -0.0791 -0.3310 -0.1583
 4609W        W20078  13.780  18.410   4.849 -0.2635 -0.1270  0.2059
 4610W        W20079   0.533  10.516   3.439 -0.0162 -0.1194  0.1971
 4611W        W20080   8.215   8.366  10.743  0.1206  0.1578 -0.0463
 4612W        W20081   7.765   3.335  12.357 -0.3784  0.0884  0.1544
 4613W        W20082   1.998  12.812  14.811  0.1009  0.1392  0.1487
 4614W        W20083   8.665   0.433   0.206  0.0859  0.2044 -0.0542
 4615W        W20084  16.961   3.423  14.981  0.1480 -0.0092 -0.1554
 4616W        W20085   9.116   9.509  13.495  0.0690 -0.2036  0.3375
 4617W        W20086  14.037  15.849  11.071 -0.0069  0.2034  0.3735
 4618W        W20087  10.805   6.380  10.891 -0.0372 -0.1256  0.2774
 4619W        W20088  13.609   7.151   2.927  0.1822  0.3787  0.1824
 4620W        W20089  13.650  10.816   5.727  0.3383  0.0268  0.1391
 4621W        W20090   4.209  11.691  12.450  0.0358  0.1725 -0.0048
 4622W        W20091  10.727  11.235   3.578 -0.0184 -0.1557 -0.0654
 4623W        W20092   4.796   4.003  11.050 -0.1195 -0.0893  0.4872
 4624W        W20093  15.437   1.415  11.095  0.5365  0.1680  0.1241
 4625W        W20094  15.968   6.353   2.353  0.0792 -0.1182  0.0797
 4626W        W20095   7.170   7.068   3.375 -0.1961  0.4145  0.0664
 4627W        W20096   2.863   7.626   0.834  0.1118  0.4034  0.1427
 4628W        W20097   0.116   2.213  15.345 -0.0802 -0.1291 -0.3894
 4629W        W20098   5.644  14.850   4.423  0.2948  0.0362 -0.0048
 4630W        W20099   5.820  13.509  13.049  0.2426 -0.1491 -0.1545
 4631W        W20100   0.545  18.362   0.508  0.0250  0.0970 -0.0254
 4632W        W20101  15.650   0.207   4.787  0.0029 -0.1262  0.1564
 4633W        W20102  12.898   6.137  13.427 -0.2552 -0.4014  0.0576
 4634W        W20103   2.272  17.216   5.599  0.3141  0.2801  0.1822
 4635W        W20104  14.600   0.170  11.440  0.2823  0.1182 -0.0391
 4636W        W20105  13.857  11.422  10.420 -0.1704  0.0519 -0.0340
 4637W        W20106  13.832  11.306  12.784 -0.0560  0.0821  0.0078
 4638W        W20107  14.547  18.802   3.742  0.1256  0.2038 -0.0616
 4639W        W20108   9.049   5.973   4.442 -0.3265  0.2088  0.0737
 4640W        W20109   2.495  10.114  11.787  0.2100 -0.0783 -0.0027
 4641W        W20110   5.635  11.961  13.680  0.4738  0.2915 -0.2956
 4642W        W20111   8.894   4.736   3.310  0.2723 -0.0836 -0.0087
 4643W        W20112  15.950   7.678  14.899  0.0072 -0.0859  0.1000
 4644W        W20113  16.984   2.095   3.252 -0.1572  0.1431  0.3023
 4645W        W20114   6.021   3.299  10.447 -0.3051 -0.1786 -0.3531
 4646W        W20115   5.569   4.112   2.047  0.2888  0.0212 -0.2841
 4647W        W20116   7.866  17.608   0.769  0.0149  0.2384  0.2923
 4648W        W20117   5.607   7.100  14.720  0.0729  0.2772  0.0063
 4649W        W20118  12.875  18.344   4.557 -0.1278 -0.0702  0.2317
 4650W        W20119  16.974   6.518  14.316  0.0936  0.1634  0.0151
 4651W        W20120   5.974  10.798   4.423  0.5070  0.2786  0.1014
 4652W        W20121   3.873  14.819  12.241  0.1346  0.1916  0.0371
 4653W        W20122  16.685   5.243   0.966 -0.0061  0.0736  0.1968
 4654W        W20123   8.190  17.629  10.691  0.0180 -0.2793 -0.3329
 4655W        W20124  12.724  14.379   0.165  0.1462 -0.0986  0.2631
 4656W        W20125  12.548   2.361  12.914  0.1116 -0.1366  0.3169
 4657W        W20126   1.803  12.333   3.878  0.1481 -0.3520  0.0923
 4658W        W20127   7.463  18.484   9.939  0.0835  0.2365 -0.0228
 4659W        W20128  11.687   6.338   0.372  0.1801  0.0050 -0.1944
 4660W        W20129   8.486  14.569  10.625  0.1368  0.2308  0.0770
 4661W        W20130  16.184  15.678   3.591 -0.1887  0.2604  0.1309
 4662W        W20131  17.126   6.644  13.400 -0.0589  0.1822  0.1720
 4663W        W20132   4.138  13.388  12.524 -0.2549 -0.2625 -0.3530
 4664W        W20133  17.795  15.791  10.769  0.0098  0.1222  0.0265
 4665W        W20134  14.561  18.845   4.330  0.0641 -0.1260  0.4125
 4666W        W20135   1.521   5.097   4.996 -0.0795 -0.1860 -0.2031
 4667W        W20136   7.874   5.626  12.318 -0.2452  0.2710  0.2658
 4668W        W20137  10.536   2.107   2.395  0.1387  0.0812  0.1099
 4669W        W20138   7.505   3.505  10.806 -0.1356  0.1168  0.0732
 4670W        W20139  13.090  12.162   5.597 -0.0766  0.4025 -0.3653
 4671W        W20140   7.151  13.766  11.173  0.0297 -0.0515 -0.0076
 4672W        W20141  11.032  18.136   1.579  0.0855 -0.1006  0.1361
 4673W        W20142   3.611  12.533   3.666  0.1297 -0.0505 -0.2144
 4674W        W20143   0.943  11.615   3.675  0.1488  0.2557 -0.4138
 4675W        W20144  13.120  12.975  11.525 -0.1694 -0.2194  0.0661
 4676W        W20145  10.573   7.483  14.162  0.3405 -0.0479 -0.2043
 4677W        W20146   1.045   6.782  11.964 -0.0619 -0.1172 -0.0707
 4678W        W20147  14.434   2.979   1.547 -0.0640 -0.0882 -0.1380
 4679W        W20148   4.549   6.703  11.959  0.0557  0.2161  0.0505
 4680W        W20149  12.515  10.192   0.096 -0.1264 -0.1288 -0.4682
 4681W        W20150  14.683   7.928  12.892  0.1271 -0.1641  0.1196
 4682W        W20151  18.755  12.136   2.372 -0.1922 -0.6267  0.1156
 4683W        W20152   5.168   9.657  13.140 -0.3137 -0.0220  0.1937
 4684W        W20153   3.142  14.255   4.923  0.1092 -0.0261  0.0970
 4685W        W20154  11.987   7.501  13.313 -0.3716  0.0421 -0.0345
 4686W        W20155  11.793  11.574  12.053 -0.1233 -0.1032 -0.1722
 4687W        W20156  13.611  13.544   5.218  0.2075  0.0293 -0.1011
 4688W        W20157  14.423  11.142  14.505  0.0846 -0.1090 -0.0720
 4689W        W20158   9.719   1.546  12.767 -0.1688  0.0134 -0.0549
 4690W        W20159   1.639  17.102   3.606 -0.0535  0.0046  0.1576
 4691W        W20160   6.671  14.702  10.032 -0.1211 -0.0210 -0.0575
 4692W        W20161  17.100   9.732   1.462  0.1959  0.0715 -0.0155
 4693W        W20162  14.545  18.344   0.514 -0.1237  0.1824  0.1182
 4694W        W20163   5.185   7.212  13.398 -0.2750 -0.0019  0.3045
 4695W        W20164  12.898   6.363  10.255  0.2369  0.1976 -0.1455
 4696W        W20165  17.413   1.075   3.743  0.0899  0.1632  0.3300
 4697W        W20166  10.357  17.279  12.394  0.3371  0.1032  0.0714
 4698W        W20167   8.286   5.510  14.328  0.0038 -0.0046  0.2641
 4699W        W20168  18.289  10.045   2.872 -0.0450 -0.0851  0.1387
 4700W        W20169  15.476  14.606  11.695  0.0255 -0.0910  0.1920
 4701W        W20170  16.983   2.588   2.568 -0.1779 -0.0478 -0.1342
 4702W        W20171   7.894   3.621  15.156  0.0910 -0.0253  0.4092
 4703W        W20172   7.550  11.107  12.331 -0.2658  0.3530 -0.0507
 4704W        W20173   0.100   4.672  13.937  0.2436  0.0829 -0.0950
 4705W        W20174   8.723   7.039   0.864  0.1107 -0.0474 -0.1710
 4706W        W20175  13.379   3.815   1.130  0.1457 -0.1677  0.0095
 4707W        W20176  17.054  14.964  12.089  0.1977  0.2093  0.0325
 4708W        W20177   8.716  13.145   4.102 -0.1728  0.2026 -0.0802
 4709W        W20178  18.603  10.153  13.471  0.1197  0.0443  0.1953
 4710W        W20179  13.164  13.038   9.709  0.0250 -0.0630  0.4069
 4711W        W20180  10.483   2.886  13.299  0.1433  0.1798 -0.2550
 4712W        W20181  18.827   4.735   4.661  0.1347 -0.0759 -0.2155
 4713W        W20182   9.803  16.547  12.922 -0.0234  0.1689 -0.1941
 4714W        W20183   4.437   1.721  10.907  0.2455  0.3906  0.2508
 4715W        W20184   4.317  18.549  14.279  0.0746  0.0249 -0.5447
 4716W        W20185   4.229   9.589  14.854 -0.4976  0.1442  0.2929
 4717W        W20186  15.653  17.695  13.279 -0.1348  0.1623  0.1257
 4718W        W20187   4.196   0.505   3.918 -0.1622  0.1412 -0.2971
 4719W        W20188  17.467  14.637   0.921 -0.4917  0.2572 -0.1230
 4720W        W20189  18.782  10.938  14.281  0.1448 -0.0078 -0.1369
 4721W        W20190   0.539   3.679   3.095  0.1490  0.0967  0.2682
 4722W        W20191  11.544   4.200  12.481  0.0249  0.0138  0.2352
 4723W        W20192   2.167   8.366  11.552  0.0465 -0.1138 -0.2168
 4724W        W20193  10.884   5.304   1.546 -0.1249 -0.1506 -0.1679
 4725W        W20194   9.971  14.099  14.058  0.1479  0.1011  0.2328
 4726W        W20195  14.788  16.789  14.194  0.2058  0.0086  0.1366
 4727W        W20196   2.188  15.484  14.770  0.3740 -0.0933  0.0861
 4728W        W20197   5.137   7.760   3.670 -0.4088  0.3973 -0.0048
 4729W        W20198  16.196  14.445  13.904 -0.3872  0.1457  0.0414
 4730W        W20199  13.554   4.906   2.815  0.2935  0.2617  0.1187
 4731W        W20200  11.609  13.380  13.078  0.3408 -0.1853 -0.1158
 4732W        W20201   9.391   7.263   4.203 -0.1696  0.0553  0.4481
 4733W        W20202  13.781  16.897  12.199 -0.0244  0.0083 -0.0087
 4734W        W20203   5.844  14.230  15.172  0.2557  0.2415 -0.3317
 4735W        W20204   3.448  10.280  14.365  0.1055 -0.1841  0.0115
 4736W        W20205  16.109  12.481  13.146 -0.1778  0.5119 -0.3055
 4737W        W20206   2.112  12.290  10.768  0.3709 -0.1308  0.1049
 4738W        W20207  18.358   1.259  11.213 -0.1867 -0.3189  0.2233
 4739W        W20208  17.952   5.868   0.254 -0.3305 -0.4183  0.2278
 4740W        W20209   1.387   5.930   5.322  0.1065  0.2839 -0.0416
 4741W        W20210  18.230  17.535  13.405 -0.0305 -0.2313  0.0767
 4742W        W20211   0.947  14.695  11.028  0.1424 -0.2834 -0.1031
 4743W        W20212  10.042   6.064   2.128 -0.3602 -0.1319  0.1083
 4744W        W20213   9.366   0.480   1.430  0.0508 -0.0976  0.0745
 4745W        W20214   4.834   8.309  14.973 -0.0098  0.0438  0.0155
 4746W        W20215   0.068   7.208   1.658 -0.0750  0.1408 -0.0444
 4747W        W20216   8.230   9.888  12.499 -0.0261  0.2519  0.3056
 4748W        W20217   7.232   5.209  11.108 -0.0675  0.1342 -0.3546
 4749W        W20218  17.095   2.213   0.055  0.0642 -0.0223  0.2587
 4750W        W20219   8.620   6.987   2.647  0.1900  0.2330  0.4195
 4751W        W20220   6.055   6.339  13.214  0.2086  0.3440  0.0471
 4752W        W20221   1.479   6.954  12.673  0.0636 -0.0593  0.3414
 4753W        W20222   5.230   7.453   0.641  0.4390 -0.2698  0.1958
 4754W        W20223   7.331   4.354  10.912  0.2781 -0.2112  0.0542
 4755W        W20224  10.565   5.479   3.704 -0.2325 -0.0439  0.0931
 4756W        W20225   0.412  13.011   1.966  0.0768  0.2160 -0.0791
 4757W        W20226   4.457   0.524   3.418  0.2959 -0.2469 -0.1843
 4758W        W20227   3.367   2.732   3.398  0.1507  0.0013  0.1060
 4759W        W20228  15.852  13.388   2.547 -0.2146  0.0234 -0.0214
 4760W        W20229  16.695   1.735  13.778 -0.3561 -0.1570 -0.0276
 4761W        W20230   2.443   1.302   0.556  0.1329  0.0896 -0.1100
 4762W        W20231   3.502   0.729   0.307  0.1502 -0.3605  0.0547
 4763W        W20232  18.084   9.300   5.997  0.2210 -0.3221  0.1121
 4764W        W20233  13.897   6.406  13.184 -0.0462 -0.3127  0.3547
 4765W        W20234   6.699   4.448   4.940 -0.0246  0.1581 -0.1328
 4766W        W20235  13.843   1.767   2.034  0.0738 -0.1782 -0.5353
 4767W        W20236  10.090  18.871   5.766  0.0279  0.0464  0.1548
 4768W        W20237   2.487  18.475   1.668  0.0370  0.0614  0.1053
 4769W        W20238   9.858   4.251   4.454  0.3935  0.3167  0.1100
 4770W        W20239  13.332  12.645  14.767  0.0384  0.0941  0.0123
 4771W        W20240   4.594   5.096   0.564  0.1994 -0.2244 -0.3196
 4772W        W20241  12.265   7.086   9.374 -0.0313  0.0936 -0.2498
 4773W        W20242  12.225   8.749   2.580  0.3271 -0.2681  0.0346
 4774W        W20243   7.290   4.439   4.206  0.1675 -0.0207 -0.0223
 4775W        W20244  14.602  14.946  13.248  0.1156 -0.1050  0.0990
 4776W        W20245  13.022   5.120  10.153  0.0101  0.1610 -0.1033
 4777W        W20246  15.633  11.483  13.688  0.0979 -0.0998  0.4630
 4778W        W20247   4.223   2.245  12.562  0.3011  0.0004 -0.2880
 4779W        W20248  11.318   0.342  12.116  0.0860  0.2279 -0.0179
 4780W        W20249   7.972   7.296   2.298 -0.2448  0.0529 -0.0338
 4781W        W20250   0.868  10.428   3.912  0.4587 -0.1192 -0.0074
 4782W        W20251  16.796   4.301   2.414  0.2917 -0.0508 -0.0764
 4783W        W20252  18.558   2.886  15.264  0.0671  0.0678  0.1121
 4784W        W20253  14.284   0.190  11.840 -0.1364  0.1698 -0.1462
 4785W        W20254  14.999   4.479  14.224 -0.1568  0.3995 -0.2846
 4786W        W20255  13.610   2.904   1.356 -0.0597 -0.0923  0.2322
 4787W        W20256  10.891  18.390  14.721 -0.2060 -0.0381 -0.0574
 4788W        W20257   6.186   1.789   4.478 -0.2710  0.0551 -0.2449
 4789W        W20258  12.476   3.588   2.189  0.0553  0.2445 -0.2109
 4790W        W20259   2.318   4.879   0.273  0.2170  0.0281 -0.1574
 4791W        W20260  16.306   3.967   5.675 -0.2685  0.2862  0.2536
 4792W        W20261   7.445  18.773   3.066  0.1648  0.1508  0.1168
 4793W        W20262   1.496  18.946  15.319  0.0346 -0.2959 -0.1475
 4794W        W20263  18.096   9.630   3.734 -0.0729 -0.2739  0.3531
 4795W        W20264  11.477  18.690   5.136 -0.0451 -0.3387  0.2042
 4796W        W20265   7.349   8.933   3.211 -0.3924  0.2489 -0.0701
 4797W        W20266   4.359  10.678   4.824 -0.2275 -0.0071  0.2948
 4798W        W20267   1.055  16.046  10.762 -0.0288 -0.0126  0.0714
 4799W        W20268  13.261   1.792  13.386 -0.2566  0.1481 -0.1399
 4800W        W20269  17.912  16.678  11.178  0.1008  0.2022  0.0430
 4801W        W20270   4.992  18.751  12.542  0.0769  0.1353 -0.0526
 4802W        W20271  11.811   9.080  12.856  0.0916 -0.1188 -0.0572
 4803W        W20272   2.479  10.304   5.732  0.6622 -0.1292 -0.1076
 4804W        W20273  13.766   1.101  11.414 -0.2456  0.0809 -0.2455
 4805W        W20274   2.359   3.799   5.615 -0.2070  0.2649  0.2029
 4806W        W20275  10.743  18.809  11.262 -0.0044 -0.1585  0.1273
 4807W        W20276  10.058   0.980   0.388  0.0393 -0.0322  0.1685
 4808W        W20277  17.610   6.315  13.098  0.1094  0.1618 -0.1952
 4809W        W20278  13.972  12.514  12.194 -0.2938 -0.0472 -0.0219
 4810W        W20279  12.253  10.538   2.876  0.0451 -0.0297  0.0909
 4811W        W20280   3.464   8.635   1.677  0.4093 -0.1180  0.1695
 4812W        W20281   8.023   7.126  14.012  0.0774  0.1205 -0.1168
 4813W        W20282  10.911   6.423  14.599  0.0050  0.1080  0.1214
 4814W        W20283  17.011  14.813   2.251  0.2320 -0.4050  0.3209
 4815W        W20284   9.509   3.160  12.064  0.1304 -0.1984 -0.1747
 4816W        W20285   7.965   2.559   3.571  0.1954 -0.0117  0.4444
 4817W        W20286  18.672   0.861   3.323  0.2395  0.1077 -0.2667
 4818W        W20287   8.116   4.553  14.833 -0.0318 -0.0850 -0.1398
 4819W        W20288  14.689  12.365   3.419 -0.2327 -0.0429 -0.2566
 4820W        W20289   8.035  16.975  13.695  0.1534 -0.0956  0.0055
 4821W        W20290   9.721  16.048   3.339 -0.0163  0.2239 -0.0007
 4822W        W20291   0.281  14.363   4.266 -0.4289 -0.1153  0.0308
 4823W        W20292  14.325   3.464   4.383 -0.0119  0.1974 -0.1004
 4824W        W20293  12.394  17.455  14.650  0.3231 -0.1760  0.2059
 4825W        W20294  15.078   4.835   4.669 -0.1596  0.2019 -0.0732
 4826W        W20295  10.480  17.710  12.734 -0.2876  0.2981  0.6527
 4827W        W20296  10.817   7.030  12.855 -0.0690 -0.2499 -0.2028
 4828W        W20297   4.041  12.844  13.249  0.1028  0.1539  0.1349
 4829W        W20298  19.010  17.991  10.354  0.1503 -0.1578  0.0895
 4830W        W20299   8.635  15.648   5.213 -0.0779  0.0121  0.1686
 4831W        W20300   6.710   6.418  15.226 -0.1723  0.3290 -0.0004
 4832W        W20301  14.870   7.096   0.374  0.3457 -0.0194 -0.0041
 4833W        W20302   3.123   3.849   0.216 -0.0395 -0.0862 -0.2511
 4834W        W20303  16.102   6.216   0.235 -0.0194 -0.0421 -0.1112
 4835W        W20304  12.677  17.286   5.819 -0.0499  0.0820 -0.0890
 4836W        W20305  12.822   9.415  12.122  0.0876  0.0548 -0.1911
 4837W        W20306  14.561   2.791  14.025  0.1723 -0.0894  0.0633
 4838W        W20307  15.728  14.571   1.500 -0.1680 -0.1053 -0.0746
 4839W        W20308   2.122  17.204  11.666 -0.1108 -0.1335 -0.2234
 4840W        W20309   2.376  12.257  15.181 -0.0156 -0.2715 -0.3653
 4841W        W20310   0.819   1.194   0.258  0.0308 -0.0755  0.1429
 4842W        W20311  14.980  13.422   2.446 -0.3355 -0.2475 -0.1126
 4843W        W20312  14.992   3.529  13.490 -0.1009  0.0303  0.1770
 4844W        W20313  13.477  17.340   4.000  0.1053  0.1004  0.2007
 4845W        W20314  10.135  19.025   0.836 -0.0101  0.1870 -0.1259
 4846W        W20315   4.180   6.338   3.026 -0.2070 -0.1588 -0.0240
 4847W        W20316   7.101   5.251   2.219  0.1419 -0.2843  0.1708
 4848W        W20317   1.670   8.252  14.605 -0.2834  0.1335 -0.0447
 4849W        W20318  16.278  15.634   2.550 -0.4269 -0.1493 -0.1764
 4850W        W20319  10.226  10.459   2.276  0.3125 -0.1125 -0.1080
 4851W        W20320   9.961   3.819  12.555 -0.0376  0.0547 -0.2457
 4852W        W20321   2.148  16.752   2.238 -0.1265  0.1833  0.0780
 4853W        W20322  11.124  13.525  13.468  0.0515 -0.0954  0.3116
 4854W        W20323  17.137  16.035   2.576 -0.0393 -0.1729 -0.0201
 4855W        W20324   1.987  10.969   4.725 -0.1921  0.1963 -0.2676
 4856W        W20325   3.080  18.445   5.259  0.0440 -0.3664  0.3985
 4857W        W20326   3.599  10.579  13.960  0.3156  0.0258  0.2029
 4858W        W20327  14.755  17.439  11.474 -0.1240 -0.0265  0.0891
 4859W        W20328   0.600   1.431  13.410  0.2824  0.1063 -0.0918
 4860W        W20329  14.779   4.223   4.670 -0.2468  0.2960  0.1058
 4861W        W20330  18.368  16.676  11.070 -0.0070 -0.3914 -0.2543
 4862W        W20331   5.781   4.606   2.836  0.0964  0.0184  0.0883
 4863W        W20332   1.804  16.669   4.454  0.0684 -0.2695  0.0205
 4864W        W20333  12.070  10.083   3.808  0.2825 -0.0061  0.4570
 4865W        W20334  10.025  12.195  12.954 -0.0026  0.0416 -0.2439
 4866W        W20335  18.272   4.206  15.247  0.0886  0.0652  0.3406
 4867W        W20336   4.728   2.804   2.421  0.0456 -0.0525  0.2949
 4868W        W20337  16.192  15.456   1.300  0.0770 -0.1052 -0.0303
 4869W        W20338   7.017  12.656   4.614 -0.0385  0.1648 -0.1367
 4870W        W20339  16.136  16.521  11.314 -0.4168  0.0879  0.2038
 4871W        W20340   7.361   8.840   1.206 -0.0318 -0.1436 -0.2089
 4872W        W20341   4.046  15.570  12.254 -0.3956  0.3003 -0.0101
 4873W        W20342  12.253   9.109  12.689  0.0188  0.0148 -0.3278
 4874W        W20343   4.983  17.061  13.573  0.3536 -0.0068  0.0606
 4875W        W20344  11.868  15.144   2.512  0.0620 -0.0275  0.0400
 4876W        W20345   8.501   9.961   9.703  0.2581 -0.0463 -0.1079
 4877W        W20346  18.327  18.733   2.065  0.3043 -0.4394 -0.3538
 4878W        W20347  11.250   4.127   1.479 -0.0204 -0.2125  0.2656
 4879W        W20348  18.147  18.693   0.028  0.1626 -0.0497 -0.1387
 4880W        W20349  11.583   1.180  11.967  0.0198 -0.2494 -0.5286
 4881W        W20350   0.470   4.355  13.017  0.0948 -0.0225  0.0667
 4882W        W20351  14.842  15.639   2.872  0.1964  0.0674 -0.1641
 4883W        W20352   4.331  12.836  11.686 -0.0334 -0.1613  0.0147
 4884W        W20353   2.557  16.636   0.594 -0.0694 -0.2234 -0.1913
 4885W        W20354  10.234   4.117   5.424  0.3400  0.2014  0.3248
 4886W        W20355   5.294  10.419  15.320  0.1472  0.2930 -0.0828
 4887W        W20356  12.991  16.121  15.083  0.1063  0.1478  0.0283
 4888W        W20357  17.289   1.109   4.648  0.5545 -0.1252 -0.3341
 4889W        W20358  10.661   2.273   5.233  0.0041 -0.0823 -0.2548
 4890W        W20359  16.644   3.113   4.664 -0.0778 -0.1138  0.1306
 4891W        W20360  14.489  13.645  13.985 -0.1855 -0.1268  0.1012
 4892W        W20361  14.003  16.599   2.381  0.2197 -0.0482 -0.1804
 4893W        W20362  10.154  11.137   0.498  0.0081  0.0539  0.0150
 4894W        W20363   9.496  18.417   2.436 -0.2735 -0.1942 -0.1446
 4895W        W20364   7.237  15.191   4.827  0.1028  0.0492 -0.0335
 4896W        W20365   6.609   0.212  10.088 -0.2277  0.0722 -0.1464
 4897W        W20366  14.635   3.277  14.949  0.0096 -0.1156 -0.0195
 4898W        W20367   3.087  12.450  13.876 -0.2852 -0.1163  0.0264
 4899W        W20368  15.720   3.177  11.153 -0.1693 -0.0068 -0.0299
 4900W        W20369   5.393  17.114  13.849 -0.4499 -0.0353 -0.3885
 4901W        W20370  15.745  14.190  14.030  0.0803 -0.1343 -0.0482
 4902W        W20371  14.903  18.763  10.757 -0.3714 -0.2339  0.0295
 4903W        W20372  12.345   7.632   3.657 -0.4124  0.2257 -0.1984
 4904W        W20373  16.434  14.976   3.157 -0.0833  0.2536 -0.0625
 4905W        W20374   5.473   8.114  12.754 -0.0063  0.3878 -0.1945
 4906W        W20375   3.670   4.000  11.419 -0.1274  0.0437  0.1916
 4907W        W20376   1.795  16.614   1.505 -0.0277  0.1869 -0.1883
 4908W        W20377  14.564   8.513   5.008 -0.1408  0.1500  0.0233
 4909W        W20378  10.901  18.524   0.785  0.2279 -0.2826  0.0187
 4910W        W20379   0.011   2.054   3.901  0.1144  0.3972 -0.0392
 4911W        W20380  18.555  13.202  14.250 -0.0070 -0.0291  0.0018
 4912W        W20381  10.419  12.691  14.368 -0.0399  0.2640  0.2930
 4913W        W20382  15.138   9.627  14.891  0.1219 -0.0319 -0.1282
 4914W        W20383   8.897  19.036   3.822 -0.1096 -0.0401 -0.0784
 4915W        W20384   6.289   1.942  13.715  0.1626  0.1966 -0.1000
 4916W        W20385   2.032  15.141  12.409 -0.3452 -0.3553 -0.1138
 4917W        W20386   6.059  12.199   4.339  0.1198 -0.0392  0.1989
 4918W        W20387  10.486  18.124   1.122 -0.1267 -0.2749  0.0044
 4919W        W20388   5.853   7.444   4.168  0.0980 -0.2327  0.1027
 4920W        W20389  14.642   4.597  11.391  0.0623 -0.0320 -0.1326
 4921W        W20390   2.426   0.228   4.361 -0.1424  0.1394  0.1569
 4922W        W20391  18.252  16.596   4.244 -0.0883 -0.0229 -0.0102
 4923W        W20392   8.029  14.032   4.734  0.1017 -0.1107  0.0225
 4924W        W20393  13.364  17.818  13.019  0.2788 -0.1048 -0.0101
 4925W        W20394   4.497  14.984  11.622  0.4021 -0.0125 -0.1837
 4926W        W20395   1.630  11.513   0.703  0.0503 -0.3847 -0.2144
 4927W        W20396  10.571   7.192  10.383 -0.1731 -0.2380 -0.1319
 4928W        W20397   7.851   2.289  11.423  0.4046  0.0327 -0.2119
 4929W        W20398  18.802   2.136   4.510 -0.0485 -0.2392  0.1213
 4930W        W20399   4.810   4.006   9.583 -0.0811 -0.0985  0.1757
 4931W        W20400   5.381   2.346   0.615  0.2078  0.0163 -0.1661
 4932W        W20401   0.255   3.808  13.921  0.0612  0.2641 -0.0820
 4933W        W20402  16.355   9.764  11.577  0.0024 -0.2651  0.0993
 4934W        W20403   6.280  15.276   3.800  0.1749  0.0878  0.1583
 4935W        W20404  11.279   8.455   2.577 -0.0804  0.1161 -0.1261
 4936W        W20405   8.643  16.454   3.860 -0.3131 -0.1008 -0.5934
 4937W        W20406   6.286  16.571  15.222 -0.2347 -0.0912  0.0818
 4938W        W20407   8.737  17.862  13.598 -0.0193  0.1991  0.3213
 4939W        W20408   2.047  13.934   3.571 -0.3601 -0.3221  0.2488
 4940W        W20409  12.330  16.029   1.827 -0.0350  0.0871  0.0818
 4941W        W20410   1.735   4.247   5.238  0.0157  0.2890 -0.1090
 4942W        W20411   8.577  13.947   2.585 -0.1016  0.0489 -0.2156
 4943W        W20412   0.704   2.380  14.602 -0.1292  0.3207  0.0193
 4944W        W20413  13.300   3.920   2.793  0.3178 -0.0161  0.1387
 4945W        W20414  15.495   0.794  13.064 -0.0019 -0.1537 -0.1532
 4946W        W20415  13.614  18.221  10.127  0.0221  0.3797  0.3214
 4947W        W20416   7.018   0.756  14.532 -0.0238 -0.3177  0.1141
 4948W        W20417   9.713  14.555  13.275  0.1554  0.0162  0.0195
 4949W        W20418   9.337   8.808  15.332 -0.1129  0.1472  0.3753
 4950W        W20419   7.414   4.771   2.931  0.1177 -0.2304  0.0782
 4951W        W20420   8.579  16.022  15.179  0.1265 -0.2990 -0.2329
 4952W        W20421  16.383   4.883  14.035  0.1550 -0.3328  0.2163
 4953W        W20422   8.552   6.095   2.230  0.0382 -0.0329  0.2885
 4954W        W20423  12.650  16.231  12.916  0.2146 -0.4173 -0.4278
 4955W        W20424  15.531   4.055  12.267  0.1323  0.2481  0.0537
 4956W        W20425  17.811  10.471  14.331  0.2733  0.0312  0.1841
 4957W        W20426  10.527   2.405  13.376 -0.0415  0.0330  0.2777
 4958W        W20427  17.033  14.801  10.907 -0.1818 -0.0849 -0.3320
 4959W        W20428   7.994   2.203   2.696  0.0961  0.1750  0.1675
 4960W        W20429  17.515  12.443   1.284 -0.2651  0.1159  0.1892
 4961W        W20430   8.313  17.176  10.942  0.5012 -0.3339  0.0814
 4962W        W20431  14.270   6.539  15.191 -0.2130  0.0416 -0.2884
 4963W        W20432   4.114   4.811   1.526 -0.2689 -0.2628 -0.0538
 4964W        W20433   2.250   8.775  15.181 -0.0021 -0.2030 -0.0991
 4965W        W20434  14.260   3.055   0.237 -0.0742 -0.0780 -0.0356
 4966W        W20435   0.979  17.322   3.680 -0.2469  0.2970 -0.0109
 4967W        W20436   5.546   3.401   3.286  0.4173 -0.0044  0.1587
 4968W        W20437   3.736  16.427  11.613  0.3089  0.0360  0.0504
 4969W        W20438  11.267   6.513  13.611  0.0729  0.0361 -0.2107
 4970W        W20439   8.361  13.165  12.049 -0.2539 -0.1543 -0.3648
 4971W        W20440  18.324  16.801  12.861  0.0406  0.0537  0.0567
 4972W        W20441  12.095  10.714  12.584 -0.2434 -0.0804 -0.1019
 4973W        W20442  13.305   8.284   2.114  0.3842  0.2209 -0.2831
 4974W        W20443  11.540  16.442   5.540  0.2439 -0.0874  0.1125
 4975W        W20444   3.763  17.329  12.573 -0.3250  0.1490 -0.0978
 4976W        W20445   4.151   9.082  14.484 -0.0174  0.0168  0.3225
 4977W        W20446   2.750   8.541   2.830 -0.0877  0.1725  0.1229
 4978W        W20447   1.383   4.539   3.851  0.4232  0.1547 -0.1848
 4979W        W20448   7.750   3.954   5.537  0.2490 -0.1291  0.1079
 4980W        W20449   6.547   6.391   4.963  0.2283 -0.2291  0.3084
 4981W        W20450   8.699  16.101  12.827  0.2240  0.0033 -0.4030
 4982W        W20451  10.571  18.357   4.477 -0.1699 -0.0151 -0.5636
 4983W        W20452  18.560   5.395  11.835  0.1775  0.2996 -0.1901
 4984W        W20453  11.493   7.095  12.548 -0.2485 -0.2533  0.3521
 4985W        W20454   2.898  18.122   4.927 -0.1526 -0.0253 -0.1070
 4986W        W20455   4.543  17.796  13.026 -0.0763  0.3132  0.2040
 4987W        W20456  13.098   4.381   4.562  0.1821  0.0147 -0.2910
 4988W        W20457   1.714  17.263   5.011  0.1282  0.0422 -0.0001
 4989W        W20458   3.179  17.018   1.499 -0.1632 -0.1947  0.1460
 4990W        W20459   0.590   8.521   0.288  0.2110  0.2734  0.1426
 4991W        W20460   3.389  15.059  15.244  0.0350  0.2503  0.0143
 4992W        W20461   3.461  11.851   1.073  0.1930  0.4162  0.0004
 4993W        W20462   9.999   9.273   9.992 -0.0353 -0.1785  0.0079
 4994W        W20463  12.378  14.243  12.043 -0.3109 -0.0580 -0.0401
 4995W        W20464   6.998   1.999  10.941  0.0164 -0.0465  0.1242
 4996W        W20465  11.836  10.518   3.808 -0.3291  0.2407  0.0444
 4997W        W20466   7.470  13.669  13.179  0.1562 -0.1176  0.1321
 4998W        W20467   1.221  14.230   0.417 -0.0246 -0.0498  0.0795
 4999W        W20468  14.016  10.620   5.198 -0.3056  0.1523  0.2574
 5000W        W20469   9.580   2.440  12.721  0.3166  0.0135  0.0886
 5001W        W20470  11.192   7.801   2.245  0.0579 -0.1312  0.1429
 5002W        W20471   5.803  18.140  11.033  0.0605  0.2038 -0.0369
 5003W        W20472   1.279   4.714   9.845 -0.0501  0.0917 -0.1221
 5004W        W20473   6.120  11.884   0.696 -0.0250 -0.1372 -0.2142
 5005W        W20474  14.426   6.661  10.969 -0.1907 -0.0746  0.1634
 5006W        W20475  11.065  15.150   0.338  0.1380 -0.2662  0.3696
 5007W        W20476  14.872  15.187   1.134  0.0920  0.2646  0.1653
 5008W        W20477  14.168  13.824   4.395 -0.6691 -0.1155  0.0647
 5009W        W20478   7.333   9.681  13.767 -0.3161 -0.0299 -0.0263
 5010W        W20479   9.749   4.275   2.259  0.0323 -0.4689 -0.1332
 5011W        W20480   3.490  10.659  15.269 -0.2129 -0.1566 -0.1128
 5012W        W20481  15.509  10.842  14.813  0.0724 -0.2706  0.0497
 5013W        W20482   3.356  15.136   2.513 -0.0256  0.1309 -0.0987
 5014W        W20483  11.694   1.925   0.275 -0.0731 -0.1436  0.2904
 5015W        W20484  18.207   0.271  11.028  0.0230 -0.0084 -0.2233
 5016W        W20485   5.972  16.692   5.271  0.0334 -0.1491 -0.0548
 5017W        W20486   9.076   4.506  11.336  0.0594  0.2027 -0.1243
 5018W        W20487  17.774  11.957   1.472  0.1155  0.1583  0.0477
 5019W        W20488   4.693   8.646  12.805  0.0960 -0.0102 -0.1340
 5020W        W20489   4.086   8.660   0.478  0.0759  0.0612 -0.2043
 5021W        W20490  17.524  14.660  13.435  0.0684 -0.2876 -0.4076
 5022W        W20491   6.750   4.491   2.531  0.1678 -0.2360 -0.3197
 5023W        W20492   7.066   3.973  11.153  0.0120  0.1633 -0.3697
 5024W        W20493   5.198   4.146  11.555 -0.3672  0.1985 -0.0599
 5025W        W20494  11.362  18.952   5.529 -0.3621 -0.2669 -0.1448
 5026W        W20495   0.082  18.455   3.638 -0.3648 -0.2266  0.2846
 5027W        W20496   3.260   8.103  15.116  0.0870 -0.1814 -0.1330
 5028W        W20497   5.457   9.600  11.068 -0.2617 -0.0606  0.1668
 5029W        W20498   6.261   7.580   3.321 -0.0878  0.1826  0.1765
 5030W        W20499   4.416   7.621  11.602  0.0744  0.1545  0.3690
 5031W        W20500   0.482   6.953   1.699 -0.1421 -0.0427 -0.0716
 5032W        W20501   4.453  14.469  15.067 -0.2487 -0.3833  0.0885
 5033W        W20502  12.631  17.377  15.062 -0.1333 -0.0763 -0.1023
 5034W        W20503   0.805   9.549   3.181  0.1668 -0.5079  0.1093
 5035W        W20504   7.389   8.754  12.326 -0.0292 -0.3236 -0.0141
 5036W        W20505   1.726   4.855   0.538  0.2913 -0.0369  0.0429
 5037W        W20506  12.656  11.195   9.402  0.2870 -0.0564  0.1508
 5038W        W20507   3.491  13.010  15.124  0.0552 -0.0289  0.1312
 5039W        W20508  12.685  15.966  13.727  0.0934  0.1268  0.1216
 5040W        W20509   8.404  18.483   0.505  0.0164  0.0066  0.0733
 5041W        W20510  12.166   8.754   1.628 -0.2519 -0.1553 -0.3541
 5042W        W20511   8.766  11.893   4.800  0.2537  0.1694  0.1808
 5043W        W20512  13.847  17.715  10.656 -0.2304 -0.1368  0.1768
 5044W        W20513  13.441  10.515  14.924 -0.1261  0.1237  0.1089
 5045W        W20514   2.933   5.801   1.654  0.0080  0.0265 -0.6995
 5046W        W20515   8.049   0.008  11.559  0.0425  0.0988  0.4776
 5047W        W20516  13.105  14.809  13.208 -0.2498  0.0116  0.1525
 5048W        W20517   5.761   3.160   1.221  0.0264 -0.1158 -0.0950
 5049W        W20518   0.371  17.882   4.280  0.1513  0.0249 -0.0998
 5050W        W20519   3.334  13.955  11.141  0.1868  0.1537  0.0595
 5051W        W20520  17.638  18.244   3.699  0.5685 -0.1859  0.3007
 5052W        W20521   5.062  11.635  11.290 -0.3318 -0.2569 -0.0098
 5053W        W20522  10.133   3.160  11.681  0.3101  0.0520 -0.2249
 5054W        W20523   7.832  12.342   0.804 -0.1103 -0.2828  0.1198
 5055W        W20524  17.445   8.646   4.621 -0.3262  0.0545  0.0835
 5056W        W20525  13.759  13.652   0.444 -0.2294 -0.0510  0.3122
 5057W        W20526  12.330   0.618  10.073  0.1695  0.1592  0.0756
 5058W        W20527  10.113   8.259  10.912 -0.3324 -0.5302  0.1480
 5059W        W20528   0.025  11.263  12.916  0.0047  0.2046  0.1392
 5060W        W20529  15.017   4.457   3.282 -0.3039  0.1694 -0.0856
 5061W        W20530  17.289   5.469  11.533 -0.2760 -0.4522  0.0444
 5062W        W20531  16.441   6.525   2.917 -0.1010  0.2086  0.1875
 5063W        W20532   7.778  15.754  12.781 -0.1713  0.0824 -0.1684
 5064W        W20533   5.484   5.723  10.970  0.3428 -0.0203 -0.0250
 5065W        W20534   7.262  12.131   5.637 -0.3048 -0.0013  0.0121
 5066W        W20535   4.160  11.475   2.768  0.2760 -0.1515 -0.2346
 5067W        W20536   2.730  18.910  13.598 -0.0123  0.1121 -0.4864
 5068W        W20537   5.509   8.211  10.938  0.1264 -0.1104 -0.1054
 5069W        W20538   2.945   6.946  15.177 -0.0127 -0.1663  0.0795
 5070W        W20539  17.623   4.144  13.747  0.0499  0.4164 -0.3026
 5071W        W20540  18.556   4.881  12.113  0.1275  0.0186  0.0721
 5072W        W20541   8.675   7.286   4.859  0.1667  0.0090  0.0487
 5073W        W20542  13.835   2.170  12.313 -0.4028 -0.1210 -0.3711
 5074W        W20543   9.191   0.916  13.701  0.2199  0.0437  0.2705
 5075W        W20544  15.344  17.719   0.037  0.2803  0.1731 -0.2287
 5076W        W20545   5.772  11.783   1.088  0.4215  0.3348 -0.0898
 5077W        W20546  12.004  10.652  13.148  0.0520 -0.0651 -0.1031
 5078W        W20547   8.629  12.846  12.332 -0.0489  0.3429  0.1312
 5079W        W20548  15.330   2.211  12.126 -0.0385  0.0879 -0.0595
 5080W        W20549   1.344   8.449  13.746 -0.1064  0.2762 -0.1479
 5081W        W20550  15.437  10.428   1.087  0.0623  0.0920 -0.2576
 5082W        W20551  16.358   5.678   5.422  0.2725 -0.2066  0.1241
 5083W        W20552   5.146   7.392  12.160 -0.0425  0.1145  0.1386
 5084W        W20553  15.794   7.326   3.723  0.1513  0.1655 -0.2458
 5085W        W20554  16.519   1.938  14.652  0.1642 -0.2710  0.0743
 5086W        W20555  12.930  16.680   4.421  0.1622 -0.1270  0.2276
 5087W        W20556   6.954   6.759   1.387  0.1885  0.1019 -0.1538
 5088W        W20557   6.884  13.291   5.547  0.0930 -0.1212  0.2813
 5089W        W20558   4.699  17.224   0.272 -0.1011 -0.1754 -0.1225
 5090W        W20559   6.041  17.701  13.986 -0.1369 -0.3305 -0.0448
 5091W        W20560  17.055  13.187   1.528  0.1913 -0.3723 -0.2529
 5092W        W20561   2.546  17.054   1.536  0.2028 -0.0568 -0.1396
 5093W        W20562   4.182   2.703  12.868 -0.1849 -0.0621  0.2108
 5094W        W20563   3.633  13.818   4.327 -0.1149  0.3005  0.2237
 5095W        W20564  13.358   3.940  11.479 -0.2370 -0.2617 -0.1156
 5096W        W20565   1.516  16.222   3.310 -0.1781 -0.2537  0.0046
 5097W        W20566  12.816  17.197   0.473 -0.2837  0.0604  0.1694
 5098W        W20567   6.211   9.139   1.651 -0.1959 -0.0103  0.1509
 5099W        W20568  15.400   8.756  12.086 -0.5103  0.2475  0.0503
 5100W        W20569  15.511   3.886   0.785  0.3006 -0.0015  0.1206
 5101W        W20570   2.393   8.450  13.845 -0.0890  0.1055 -0.0778
 5102W        W20571  11.823  12.713  13.744  0.0090  0.3812 -0.3819
 5103W        W20572   8.150  13.221  10.810  0.0537 -0.0515 -0.0113
 5104W        W20573  14.318  12.727  15.039 -0.1827  0.1040  0.0492
 5105W        W20574  12.530   4.382  13.615 -0.0582  0.0571 -0.0568
 5106W        W20575   0.722  11.240  11.739 -0.0378  0.1460  0.2802
 5107W        W20576  10.671   4.047  14.992  0.0694 -0.1932  0.4128
 5108W        W20577  16.717  10.105   4.358 -0.2469 -0.1663  0.0961
 5109W        W20578  16.874   2.876   0.780 -0.0416  0.1229 -0.0599
 5110W        W20579   0.760   9.851   0.175  0.3465  0.3123 -0.1476
 5111W        W20580  13.078   6.778  14.813 -0.1403 -0.1105  0.2143
 5112W        W20581   8.058   2.734  15.137  0.0609 -0.0652  0.1833
 5113W        W20582   2.219  14.295   2.019 -0.2746 -0.1860 -0.0670
 5114W        W20583   3.841   3.723   3.975 -0.1268  0.1413 -0.0248
 5115W        W20584   4.538   0.758  10.496 -0.0852  0.3077 -0.0352
 5116W        W20585  18.200  17.881   0.193  0.4215 -0.0426  0.2820
 5117W        W20586   3.497  14.092   2.156 -0.2263 -0.3519  0.3800
 5118W        W20587  18.309  14.838   4.202  0.0940  0.1958 -0.1337
 5119W        W20588  12.310  15.458  14.144  0.0154 -0.4203  0.0069
 5120W        W20589   9.349   6.287  11.710  0.2180  0.1633  0.0568
 5121W        W20590   3.776  10.120   2.372 -0.3181 -0.1024  0.0533
 5122W        W20591   4.662  16.712   0.458 -0.0773  0.4505  0.1715
 5123W        W20592   3.553  14.161  10.272  0.1698 -0.0585  0.1606
 5124W        W20593   7.916  14.910  12.677  0.1395 -0.1991 -0.2005
 5125W        W20594   9.549   0.399   2.220 -0.4131  0.2035 -0.1425
 5126W        W20595  12.272  13.725   0.469  0.0846 -0.2572 -0.1796
 5127W        W20596   9.295   9.359  14.775  0.1685  0.2045 -0.0842
 5128W        W20597  11.375   3.322  15.251 -0.0545  0.0305  0.2850
 5129W        W20598   0.850   0.784   3.813 -0.1034  0.0312  0.1431
 5130W        W20599  10.255  17.795  12.302  0.0583  0.1700  0.0113
 5131W        W20600  18.219   6.963   0.048  0.2602  0.0771  0.1990
 5132W        W20601   5.381  17.936   5.897 -0.0655  0.3654 -0.3777
 5133W        W20602  11.396   3.874   3.961  0.1261  0.2389  0.0457
 5134W        W20603   1.183   1.188   3.288  0.4184 -0.2580 -0.1117
 5135W        W20604   1.386  14.769  11.259  0.1364  0.4288 -0.3719
 5136W        W20605   9.923  15.991   2.848  0.2669 -0.0880 -0.5037
 5137W        W20606  15.518  17.120  14.775  0.2436 -0.1126 -0.0881
 5138W        W20607   4.998   5.969  11.125  0.3538 -0.1187  0.3657
 5139W        W20608  18.094   8.491  12.640 -0.0209  0.0333 -0.0450
 5140W        W20609  17.012  17.970  15.161 -0.0953  0.0663  0.0483
 5141W        W20610   6.197  15.108  12.106 -0.1796  0.0601  0.1434
 5142W        W20611   4.709   0.616  14.938 -0.3397  0.0976 -0.2370
 5143W        W20612  13.933   9.354   1.966  0.0939  0.1276 -0.2814
 5144W        W20613   7.729  12.968   3.084 -0.0097  0.3823 -0.1456
 5145W        W20614  13.282   2.050   2.333 -0.4231 -0.0924  0.2162
 5146W        W20615  11.745   3.327   3.965  0.0102  0.1467 -0.1097
 5147W        W20616  13.329   4.873   3.896  0.0982  0.0690 -0.0100
 5148W        W20617  15.672  11.382   2.886  0.0390  0.0507 -0.1869
 5149W        W20618  16.406  12.340  12.206  0.0023 -0.2005 -0.2159
 5150W        W20619   6.590   2.191  10.750  0.1330 -0.1280  0.4290
 5151W        W20620  14.093  16.636  15.316  0.2367 -0.2180 -0.1329
 5152W        W20621   8.767  11.295  12.065  0.3573 -0.0491 -0.2213
 5153W        W20622   5.498  15.088  11.289 -0.1114 -0.1155 -0.2202
 5154W        W20623  17.232   8.492  14.655 -0.1561  0.0707  0.1191
 5155W        W20624  12.887   1.232   0.458  0.2908 -0.1620 -0.2207
 5156W        W20625   5.178  12.762  14.163  0.0221 -0.3057 -0.1394
 5157W        W20626  14.129   1.912  14.638 -0.1185  0.1046 -0.1522
 5158W        W20627   9.762   9.082  14.093  0.1456  0.2182  0.3466
 5159W        W20628  14.664   1.804   2.306  0.3716  0.1882  0.2684
 5160W        W20629   9.505  19.024   3.206  0.0642  0.1867 -0.1511
 5161W        W20630  11.583   5.747   1.157 -0.1196  0.5699  0.0704
 5162W        W20631   9.365  16.634   2.187  0.0358 -0.0899 -0.1398
 5163W        W20632   8.297   9.486  12.737  0.1364 -0.0911 -0.0417
 5164W        W20633   3.021  16.918   1.001  0.0418 -0.3708  0.1758
 5165W        W20634   3.068  13.775   1.677 -0.3507 -0.3150 -0.0151
 5166W        W20635  11.622  17.921   0.766  0.1394  0.2183  0.0737
 5167W        W20636   1.428   1.347  12.042 -0.0186  0.0588 -0.0105
 5168W        W20637  15.465   8.050   2.505  0.0674 -0.0876 -0.1583
 5169W        W20638   6.575   6.248   0.396 -0.0269 -0.2813  0.1160
 5170W        W20639   3.432  18.575   0.707 -0.1605 -0.6282  0.2075
 5171W        W20640   3.526   0.152  14.305 -0.0031  0.0749 -0.3527
 5172W        W20641   9.680  14.268  12.178 -0.0306  0.2876 -0.0617
 5173W        W20642  11.039  18.486   2.342 -0.1818 -0.0469 -0.1901
 5174W        W20643  11.773   5.223   4.840  0.0254 -0.1120  0.0171
 5175W        W20644  13.868   8.518  11.262  0.1402  0.2683  0.0724
 5176W        W20645   2.922   0.843  13.220  0.0343  0.1493  0.2518
 5177W        W20646   3.325   9.756  13.025  0.0112  0.0038  0.2211
 5178W        W20647   3.281   9.964   1.087 -0.3345  0.1788  0.0874
 5179W        W20648  12.419  17.502   1.806  0.1343  0.2627  0.0043
 5180W        W20649  14.254  18.317   4.067  0.3282 -0.3956 -0.1291
 5181W        W20650  16.942   3.113   0.334  0.1223  0.2682  0.0458
 5182W        W20651   4.196  13.754   3.724  0.3728  0.1465  0.1915
 5183W        W20652   0.326   7.421  14.755 -0.2162 -0.4989  0.0887
 5184W        W20653   8.166  10.387   5.154 -0.3152 -0.1731 -0.1573
 5185W        W20654   2.831   1.367  13.203  0.1966 -0.2389 -0.2086
 5186W        W20655  15.365  10.175  13.585 -0.0196 -0.1896  0.1297
 5187W        W20656  16.839  10.006   3.435 -0.1452 -0.3577 -0.1693
 5188W        W20657  18.286   6.660   0.858 -0.0740 -0.0610  0.1360
 5189W        W20658  11.486   7.486   5.357  0.0459  0.0166 -0.1328
 5190W        W20659   1.483   4.462   4.367 -0.0268  0.0345  0.0090
 5191W        W20660   6.693  11.824  10.586  0.1310 -0.0013 -0.0969
 5192W        W20661   7.795   0.331   5.040 -0.0198 -0.0447 -0.4617
 5193W        W20662  16.840   7.201  13.790 -0.3027 -0.2900  0.0033
 5194W        W20663  16.169   5.617  11.114  0.0389 -0.1284 -0.0979
 5195W        W20664   2.210  15.745   5.581  0.0456 -0.2040 -0.2051
 5196W        W20665   5.466   2.068   2.204  0.0162 -0.0239  0.0419
 5197W        W20666   9.979   2.417  15.297 -0.0016  0.4304 -0.1646
 5198W        W20667  18.006  13.426  11.272  0.0161 -0.2801 -0.3003
 5199W        W20668   6.142   8.147  13.661  0.0820  0.0215  0.0723
 5200W        W20669   0.207   4.540   4.512  0.2234  0.0448  0.2675
 5201W        W20670   4.978   6.433  10.700  0.0092 -0.2432  0.1218
 5202W        W20671   9.050   1.063   1.895 -0.1340 -0.0219 -0.2016
 5203W        W20672   0.312   4.690  11.766  0.2863  0.0330  0.0825
 5204W        W20673   5.431   8.414  12.310  0.1214 -0.1744  0.2719
 5205W        W20674  12.281   4.175  11.297  0.3496 -0.0206  0.1126
 5206W        W20675  17.829  13.724  14.505  0.1465  0.0156  0.1002
 5207W        W20676   5.537   6.685  12.562  0.1503  0.1226 -0.0676
 5208W        W20677   4.282  15.053   1.827 -0.1305 -0.1097  0.0058
 5209W        W20678   9.040   7.033   9.479  0.3827 -0.2532 -0.2121
 5210W        W20679  14.648   7.565  14.295 -0.3082 -0.0084 -0.3094
 5211W        W20680   3.652  13.506   3.242  0.1160 -0.0038  0.1220
 5212W        W20681  15.269   8.133   9.894  0.0985 -0.1207 -0.0636
 5213W        W20682  13.471  15.930  14.000  0.2113 -0.1098  0.0244
 5214W        W20683  10.481   0.398  14.582 -0.3195  0.1741  0.3652
 5215W        W20684  14.133  14.013  10.039  0.1490  0.0663 -0.1794
 5216W        W20685  15.900   1.816   4.630 -0.1185 -0.0551  0.2417
 5217W        W20686   3.234  10.998  14.878  0.0708  0.2203 -0.3010
 5218W        W20687   2.554   0.835   3.074 -0.0551  0.2464 -0.4473
 5219W        W20688   2.097  11.195   0.652 -0.0737  0.3115  0.1108
 5220W        W20689   3.162   3.630   3.692  0.1372  0.0290  0.0287
 5221W        W20690  10.804   2.882  14.127  0.1440  0.0799 -0.1503
 5222W        W20691   2.988   1.630   4.544 -0.1219  0.0671 -0.1017
 5223W        W20692   3.424   6.687  15.248  0.2042  0.4324 -0.3000
 5224W        W20693   5.908  14.187   1.986  0.2867  0.1538  0.0033
 5225W        W20694  12.843   3.940   9.415 -0.2878 -0.4391 -0.2498
 5226W        W20695  13.684  11.778   0.325 -0.2393 -0.0853  0.0596
 5227W        W20696  15.923  13.151   4.732  0.4758 -0.1281 -0.1530
 5228W        W20697   8.931   1.247  11.392 -0.1822 -0.2908  0.0153
 5229W        W20698  13.470   0.563   3.801 -0.2449 -0.1604  0.3565
 5230W        W20699  13.340   1.598   2.014 -0.0001  0.0006 -0.1201
 5231W        W20700  13.210  12.823  13.328 -0.1828  0.0756 -0.0848
 5232W        W20701  10.451   9.821  10.983 -0.0222  0.1742 -0.0451
 5233W        W20702  17.002  13.743  12.733 -0.1028  0.0385  0.1998
 5234W        W20703   2.021  12.049   2.041  0.2443  0.0610 -0.3503
 5235W        W20704  15.583   2.687   3.879  0.0072 -0.2055 -0.1279
 5236W        W20705   8.184   7.975  14.423  0.0875  0.3250 -0.3296
 5237W        W20706   5.481   9.130  10.768 -0.4234 -0.1637  0.1709
 5238W        W20707   6.113  12.933   0.579 -0.3823  0.0340  0.0278
 5239W        W20708  17.569   3.907   3.770 -0.1338  0.0667  0.0852
 5240W        W20709  11.924   4.561  12.848 -0.0450  0.0544 -0.0991
 5241W        W20710  15.053  10.397  14.276  0.1025  0.1434  0.0996
 5242W        W20711  18.256  14.928   3.276  0.2348  0.1599 -0.3247
 5243W        W20712   6.314   9.669   3.858 -0.2079  0.0763  0.0106
 5244W        W20713   5.853  15.320  14.771  0.2061 -0.2372  0.0997
 5245W        W20714  13.922   1.655   3.342  0.1043  0.0460 -0.0303
 5246W        W20715  13.236   5.999  12.109 -0.1257 -0.1892  0.1507
 5247W        W20716   0.483  18.967  12.423  0.2308  0.2308  0.2795
 5248W        W20717  10.964   6.665   4.528  0.2734 -0.0166  0.1580
 5249W        W20718   0.234   6.257  12.179  0.2464  0.1287  0.1082
 5250W        W20719   7.836   6.299   0.543 -0.1939  0.1295 -0.1878
 5251W        W20720  16.044  13.513   3.939 -0.1772 -0.1130 -0.0106
 5252W        W20721   6.165   0.686   0.306 -0.1111 -0.1478 -0.0464
 5253W        W20722   6.768  11.203  12.511 -0.3054  0.0865 -0.1359
 5254W        W20723  16.896  16.834  12.001 -0.1634  0.0301  0.0381
 5255W        W20724  13.411   1.065  10.772  0.1914  0.2707 -0.0228
 5256W        W20725  10.176  14.021  14.532  0.0952  0.1781 -0.1264
 5257W        W20726  11.552   7.932  11.327  0.2733  0.2703 -0.0988
 5258W        W20727   2.006   1.235  13.904  0.1738  0.1801 -0.0167
 5259W        W20728   5.232   8.675  14.295 -0.0164  0.1756 -0.2658
 5260W        W20729   6.445   3.958   0.844 -0.1932 -0.0914  0.0693
 5261W        W20730  15.650   4.853  13.492 -0.1690  0.1294  0.2385
 5262W        W20731  16.698   4.000   3.814 -0.0200 -0.1503  0.1907
 5263W        W20732  11.082   6.683   3.173  0.1838 -0.0174 -0.0806
 5264W        W20733  19.029  15.783  14.181 -0.0159  0.0519  0.2166
 5265W        W20734   4.768   1.856  14.538 -0.0508 -0.0838  0.0063
 5266W        W20735  18.009  17.087   3.357 -0.0043 -0.0153 -0.3107
 5267W        W20736   1.124  17.609  12.859 -0.0971  0.0019 -0.0163
 5268W        W20737  18.187  13.775   1.217  0.0691  0.2638  0.1826
 5269W        W20738   5.904  10.633  12.271 -0.0735  0.0076  0.2211
 5270W        W20739  11.604   4.407   0.245  0.2231  0.2847 -0.0035
 5271W        W20740   5.638  17.686  11.088  0.1504 -0.0276  0.4708
 5272W        W20741  18.442   5.944   4.636 -0.1315 -0.0839  0.1176
 5273W        W20742  13.524   1.052   4.045  0.2574  0.1886  0.0556
 5274W        W20743   6.735   8.100  11.627 -0.0293 -0.2186  0.1002
 5275W        W20744  17.655   5.325   2.849  0.0151 -0.0299  0.2063
 5276W        W20745  18.530  17.192  10.937 -0.2881  0.1674  0.3031
 5277W        W20746   3.009   1.170   1.509  0.4116  0.1738 -0.2098
 5278W        W20747  17.823  18.548   0.600 -0.0220  0.2858 -0.1283
 5279W        W20748   2.666   9.297   3.806  0.1845  0.2754  0.0787
 5280W        W20749  13.655   8.038   3.425  0.0738 -0.2233  0.0313
 5281W        W20750  10.454   0.876   1.853  0.0329 -0.2008 -0.1612
 5282W        W20751   0.620  10.701  13.914 -0.1277  0.0630 -0.4616
 5283W        W20752   8.765   7.529  12.102  0.0297  0.0519  0.3259
 5284W        W20753  16.761   2.035   0.900  0.2383  0.0793 -0.1267
 5285W        W20754  17.949  11.442  14.431  0.0337  0.0055  0.1631
 5286W        W20755   8.366   7.262   1.339 -0.1115  0.0077  0.3420
 5287W        W20756   5.273   6.326   2.813  0.0500  0.0335  0.1236
 5288W        W20757  14.448   6.293   9.428  0.3565 -0.1769 -0.1315
 5289W        W20758   7.502   9.048   4.111 -0.2368 -0.2463 -0.1230
 5290W        W20759   5.440  12.718  12.058  0.0365 -0.0322 -0.1179
 5291W        W20760  13.518  13.730   3.252  0.0466 -0.2367  0.1205
 5292W        W20761  17.877  13.672  14.024 -0.0339 -0.0610 -0.2029
 5293W        W20762   5.811  17.823   3.331  0.0776 -0.0211  0.2690
 5294W        W20763   3.181   7.287   4.448  0.0320 -0.0292  0.1995
 5295W        W20764  16.045  17.370   3.714  0.0148 -0.2115  0.0261
 5296W        W20765  15.337   7.746   2.080  0.1740 -0.0662 -0.0157
 5297W        W20766   8.080   2.130  10.885  0.2934  0.0171 -0.0660
 5298W        W20767   2.837   8.032   2.761 -0.0753  0.1182  0.0297
 5299W        W20768   4.997   0.051   0.753  0.1021  0.1486  0.0575
 5300W        W20769   4.117  17.189  14.711 -0.0674 -0.1121 -0.3314
 5301W        W20770  16.695   0.761   1.518 -0.1714 -0.3058 -0.3264
 5302W        W20771  10.840   0.093   3.760  0.1171  0.1527 -0.0423
 5303W        W20772   8.211   9.927   1.400 -0.0572  0.0433 -0.3709
 5304W        W20773  17.375   2.831   4.216  0.2150 -0.0833  0.1208
 5305W        W20774   4.949  15.664   1.213  0.1839  0.2436  0.0830
 5306W        W20775   7.620   0.254   3.941  0.3395 -0.0878  0.1110
 5307W        W20776   6.341   9.982  14.074  0.0836  0.0414  0.0524
 5308W        W20777   8.429   4.596  13.081 -0.1201 -0.5488  0.1325
 5309W        W20778  10.365  14.580   1.841 -0.1723 -0.1614  0.1382
 5310W        W20779  16.176  18.433   2.935  0.4440 -0.0255  0.1014
 5311W        W20780   4.671   5.184   2.199  0.2454 -0.1997 -0.0654
 5312W        W20781  18.471  13.559  15.190  0.0163  0.1154  0.0606
 5313W        W20782   6.065   8.981   4.900  0.1636 -0.1969  0.2667
 5314W        W20783   4.173  15.689  12.701  0.1100 -0.2161 -0.1583
 5315W        W20784   8.192   6.146   4.873  0.0259  0.0546 -0.0404
 5316W        W20785   3.527   8.748  13.331 -0.1453  0.1860 -0.0653
 5317W        W20786   4.374  10.920   1.367  0.2342  0.2780 -0.1060
 5318W        W20787   3.752  13.599   5.587 -0.3803  0.4527  0.0804
 5319W        W20788  18.116  12.691  15.013  0.1313 -0.1749 -0.2042
 5320W        W20789  14.636   7.291  13.876  0.1383 -0.0404  0.0920
 5321W        W20790  14.662  17.438   1.901 -0.0288  0.1733  0.0874
 5322W        W20791  16.458  13.897   3.095  0.2093 -0.0483  0.2735
 5323W        W20792   0.359   3.541   2.643 -0.3013 -0.0424  0.4512
 5324W        W20793  16.485  16.389   2.937  0.0408  0.1383 -0.0589
 5325W        W20794  10.428  12.092   3.298  0.1333 -0.0975 -0.1011
 5326W        W20795  18.345   4.608   2.903  0.1568  0.2251 -0.4058
 5327W        W20796   1.474   7.847  14.327 -0.3430  0.0140 -0.3888
 5328W        W20797   9.807   9.548  15.009 -0.2101 -0.0403 -0.0123
 5329W        W20798  16.845   7.943  14.022  0.0163 -0.2349 -0.1296
 5330W        W20799   2.682  18.396  13.712 -0.2832  0.0051 -0.2044
 5331W        W20800   6.497  10.106  11.851 -0.0399 -0.0137  0.1932
 5332W        W20801  12.955   4.644  12.001 -0.3570 -0.1983  0.1140
 5333W        W20802  16.980  15.207   2.520  0.0193 -0.0130 -0.0781
 5334W        W20803  13.088   1.687  11.428 -0.0457  0.4465  0.1657
 5335W        W20804   5.854   4.093   4.545  0.0915 -0.2615  0.2664
 5336W        W20805  11.470   8.470   4.606  0.3742  0.1580  0.3145
 5337W        W20806  14.877   8.383   0.820  0.2358  0.1391 -0.3975
 5338W        W20807   7.378   2.281  14.778 -0.0437 -0.2031  0.3386
 5339W        W20808   2.981   2.770   0.534  0.2392 -0.2874  0.0498
 5340W        W20809   2.676   0.503   3.741  0.0378 -0.4532  0.3067
 5341W        W20810   8.546  17.287  14.878 -0.1104  0.0205 -0.3354
 5342W        W20811  16.667  13.099  13.839 -0.3538  0.0581  0.0675
 5343W        W20812   9.925  17.623   4.293 -0.1346 -0.3522  0.1529
 5344W        W20813  12.755  12.496   0.285  0.2341 -0.2231  0.0823
 5345W        W20814  12.470   6.199  10.494  0.2898 -0.0837  0.1443
 5346W        W20815   8.866   7.661  14.940  0.2962  0.0010 -0.1430
 5347W        W20816   8.873   2.619   1.418 -0.1093 -0.1238  0.0619
 5348W        W20817  10.452   8.473   1.236 -0.1955 -0.3431  0.1291
 5349W        W20818  16.388  13.309  11.971  0.3716 -0.2416  0.2126
 5350W        W20819   3.718   4.496  12.609 -0.3435  0.2475  0.2591
 5351W        W20820  18.571  11.393  10.673 -0.0284  0.0172 -0.1024
 5352W        W20821   1.744  17.221   0.768  0.2162 -0.0697 -0.1384
 5353W        W20822  12.231   0.126   0.010  0.1268  0.2314  0.0868
 5354W        W20823  13.985  16.537  11.384  0.3548 -0.2639  0.0576
 5355W        W20824   5.214   9.527  10.510  0.2311 -0.3768 -0.1255
 5356W        W20825   8.120  18.172   0.068  0.1563  0.4072 -0.2275
 5357W        W20826  16.670  17.620  14.146 -0.3395  0.1541 -0.0566
 5358W        W20827  17.667   8.550  12.964  0.1739  0.2587  0.0579
 5359W        W20828  17.867   0.494   0.855 -0.1859 -0.4597 -0.0353
 5360W        W20829  14.570   9.294   5.654  0.2033  0.0495  0.0686
 5361W        W20830   2.401   5.063   2.951  0.0577 -0.0180 -0.2959
 5362W        W20831   8.209  10.038   0.950  0.5339  0.0715 -0.1812
 5363W        W20832   6.050   4.541   4.200  0.3601  0.4940  0.4233
 5364W        W20833  11.917  11.976  10.787 -0.1743 -0.0574  0.0338
 5365W        W20834  13.334  15.602   2.122 -0.1005  0.0848 -0.0717
 5366W        W20835  11.821  12.363   0.697 -0.0594  0.2368 -0.1231
 5367W        W20836   5.401   3.147   1.678 -0.1325  0.1205 -0.0420
 5368W        W20837  14.075  13.192  11.443 -0.2215  0.0617 -0.0706
 5369W        W20838   5.908  18.562   3.986  0.0030  0.0147  0.1008
 5370W        W20839   6.055   3.770   2.817 -0.1145  0.1672  0.0456
 5371W        W20840  11.062  12.581  15.266 -0.3252  0.0583 -0.1021
 5372W        W20841  18.761   8.046   1.794 -0.3703 -0.4511 -0.3336
 5373W        W20842   8.198  18.501  14.549 -0.2052 -0.2000 -0.2631
 5374W        W20843  16.188  10.833  14.321  0.1764 -0.0416 -0.2675
 5375W        W20844   3.419   1.649  12.331 -0.0775  0.1984  0.3131
 5376W        W20845   3.159  13.894   0.713  0.1809  0.1145 -0.2382
 5377W        W20846  18.062   7.218   4.842  0.2023  0.0977 -0.1226
 5378W        W20847   9.055  14.688  12.585 -0.2495 -0.0816  0.0102
 5379W        W20848   9.115   2.680   4.974 -0.1290  0.0924 -0.1272
 5380W        W20849   0.413   8.852   4.005 -0.0341  0.0533  0.0202
 5381W        W20850   5.748   8.937  13.587  0.1831 -0.1927 -0.0555
 5382W        W20851   9.865   0.641  12.367  0.1008  0.1660 -0.0399
 5383W        W20852  16.602   3.450  11.741  0.0192 -0.3369  0.0891
 5384W        W20853   5.852   9.510   1.699 -0.3131  0.0156 -0.3000
 5385W        W20854   5.241  15.691  11.198 -0.1014  0.1524 -0.1928
 5386W        W20855   5.353   9.844  15.148 -0.0631  0.1747 -0.1235
 5387W        W20856   1.089  17.529   2.332 -0.3278  0.2105 -0.0151
 5388W        W20857  12.670  13.899   2.272 -0.0072  0.3018 -0.1385
 5389W        W20858  15.256   2.812  11.431  0.1025 -0.3179 -0.1287
 5390W        W20859  15.127  10.323   1.557 -0.0461  0.3137  0.0039
 5391W        W20860   5.479  10.602  13.041  0.0228 -0.1377 -0.0960
 5392W        W20861  10.129  18.511  13.564  0.3869 -0.2564  0.1853
 5393W        W20862   8.508   0.361  11.363  0.2136 -0.1736 -0.1619
 5394W        W20863  13.158   5.867  13.985 -0.0162  0.4074 -0.0224
 5395W        W20864   4.042  13.621   1.793  0.0652  0.3475 -0.1249
 5396W        W20865  16.065   2.649   9.296  0.1361  0.0698 -0.3668
 5397W        W20866  16.753  13.561   3.267 -0.1556 -0.0409 -0.2677
 5398W        W20867   3.866   4.078   3.680  0.3880 -0.0880  0.3565
 5399W        W20868  12.024  11.894   1.490  0.1134 -0.2415  0.2186
 5400W        W20869   9.084   3.823  12.631 -0.0333 -0.0257  0.2130
 5401W        W20870   8.706   0.189  14.298 -0.0738  0.1155 -0.1099
 5402W        W20871  16.916  15.808   4.815 -0.1305 -0.1083 -0.2896
 5403W        W20872  17.914   9.222   3.995 -0.1502  0.3143 -0.3768
 5404W        W20873  13.015   1.453   2.881 -0.0601  0.2837 -0.1857
 5405W        W20874   1.673   4.662  13.723  0.0639  0.0060  0.1220
 5406W        W20875   0.107   2.037   0.973  0.0583 -0.0938 -0.1093
 5407W        W20876   2.957   6.901   5.539 -0.0003  0.0999 -0.2478
 5408W        W20877   2.050  10.520   4.929  0.0810 -0.2576 -0.0382
 5409W        W20878   0.803   5.956   2.353  0.0208  0.4538  0.3017
 5410W        W20879   4.996  11.429   2.659 -0.0525  0.2288  0.4385
 5411W        W20880  17.305  18.222  14.877 -0.0065  0.2430 -0.0361
 5412W        W20881  18.976   8.940   0.769 -0.1684  0.1485 -0.0004
 5413W        W20882   0.924  11.866   5.032 -0.0708  0.1282 -0.1032
 5414W        W20883  10.387   2.700   2.248  0.3067 -0.1313  0.1008
 5415W        W20884  10.048   0.445  14.864  0.0703  0.0342 -0.1955
 5416W        W20885  15.741  15.073   0.775  0.1103 -0.1338 -0.0514
 5417W        W20886  11.954  11.266   4.502  0.0829 -0.0602  0.4992
 5418W        W20887  13.884  14.708   3.464  0.1835 -0.1628 -0.1976
 5419W        W20888   1.555   8.903   3.054  0.0555 -0.2354 -0.2792
 5420W        W20889   4.447  17.861   4.320 -0.0251 -0.2654  0.1114
 5421W        W20890   6.212   4.456   5.266  0.2849 -0.0935  0.1785
 5422W        W20891  13.060   5.490  10.573 -0.0250 -0.2157  0.0428
 5423W        W20892   6.355  15.261  14.970 -0.3309 -0.1616  0.0521
 5424W        W20893   6.125   1.514  13.279  0.0267 -0.1405 -0.2153
 5425W        W20894  12.904  13.309  14.518 -0.2484 -0.0362  0.2829
 5426W        W20895   5.650   7.732   3.774 -0.1325 -0.0827  0.2051
 5427W        W20896  11.345  17.356  13.664  0.0766 -0.1831  0.0339
 5428W        W20897   2.974   9.324   0.029  0.3727  0.0457  0.0907
 5429W        W20898   2.544   0.835  13.539 -0.1515 -0.2686 -0.4477
 5430W        W20899  13.867   1.630  11.564 -0.0526 -0.4391 -0.0848
 5431W        W20900   3.570  12.580  10.652  0.4078 -0.1220  0.2208
 5432W        W20901  14.086   5.421  11.094 -0.1846 -0.1974 -0.1490
 5433W        W20902   8.935  18.830   2.369 -0.1355 -0.3306 -0.0546
 5434W        W20903   3.341  16.908  11.479 -0.3667 -0.2850  0.0126
 5435W        W20904   4.972   4.937   9.611  0.4355 -0.2677 -0.2077
 5436W        W20905  10.842   1.865   2.082 -0.0076  0.2290  0.0414
 5437W        W20906  15.772   6.367   1.689  0.0485 -0.1536  0.3383
 5438W        W20907  13.065   7.983   3.523  0.2832  0.1642 -0.1766
 5439W        W20908  15.724   6.571  10.983  0.0111  0.2936 -0.0519
 5440W        W20909   6.422  15.563   4.775 -0.0557  0.1704 -0.0408
 5441W        W20910   8.276   1.753  11.970  0.0225  0.4175 -0.2225
 5442W        W20911   0.916   0.490   0.913 -0.1117 -0.1135 -0.0334
 5443W        W20912   8.841   2.111   1.373 -0.1420  0.2294  0.1846
 5444W        W20913  14.372   3.277   1.917  0.1247  0.3096  0.0310
 5445W        W20914   0.069  13.287   9.783 -0.2582  0.2360  0.0585
 5446W        W20915   2.607   0.520  13.897 -0.3600  0.0241  0.2518
 5447W        W20916   7.756   5.759   4.289 -0.0344 -0.1734 -0.0566
 5448W        W20917  18.652   0.214  11.552  0.0351 -0.2612 -0.2946
 5449W        W20918   2.699   0.539   5.928  0.1413  0.3481  0.2674
 5450W        W20919   4.310  16.629  12.309 -0.0975 -0.1306  0.2900
 5451W        W20920  11.212   0.842  14.940 -0.1920 -0.0525 -0.0319
 5452W        W20921  10.338   9.492   1.171  0.1910 -0.2028  0.2889
 5453W        W20922   7.256  18.228   1.461  0.2366  0.0137  0.0900
 5454W        W20923  18.982   1.413   2.731  0.1756  0.0789  0.1808
 5455W        W20924  10.135  14.084  10.952 -0.0091 -0.0174  0.1252
 5456W        W20925   4.382   5.572   2.005 -0.0480 -0.1078  0.1222
 5457W        W20926  15.767  16.469  10.899  0.4873 -0.1695 -0.0081
 5458W        W20927  18.237   0.627   5.277  0.0181 -0.3502  0.1162
 5459W        W20928   5.156   0.015   2.941 -0.0060  0.1296 -0.1850
 5460W        W20929   7.936  10.871  12.089  0.1916 -0.1211  0.1058
 5461W        W20930   9.724   7.164   4.658  0.2958  0.2252  0.1874
 5462W        W20931   6.495   7.095   4.705  0.1021 -0.1911 -0.1748
 5463W        W20932  15.431  18.020   5.126 -0.3058 -0.0847 -0.4236
 5464W        W20933   8.931  17.878  13.094 -0.1103 -0.3452  0.0895
 5465W        W20934  17.949  10.248  11.022 -0.0162  0.2968 -0.2036
 5466W        W20935   2.996   4.499   1.917 -0.1152  0.2120 -0.0619
 5467W        W20936   1.678   0.576   3.650 -0.0477 -0.1988  0.0492
 5468W        W20937  14.303   1.583  11.303  0.2564 -0.0762 -0.0978
 5469W        W20938  12.846  12.800   3.221  0.0050 -0.2276  0.0105
 5470W        W20939   5.946   0.156  11.240  0.0719 -0.1434 -0.0157
 5471W        W20940  19.008  10.971   5.337 -0.3010  0.3436 -0.3675
 5472W        W20941   2.185  13.858   4.089  0.1109 -0.3723  0.3129
 5473W        W20942   4.683   8.523  11.396 -0.0522  0.1259  0.1286
 5474W        W20943  12.646  14.527  14.220 -0.1028  0.2172  0.1519
 5475W        W20944   4.396   0.422   1.147 -0.2559  0.1256  0.1579
 5476W        W20945  15.007  14.511  10.695  0.0425  0.1118  0.0118
 5477W        W20946  14.581  11.243   1.488  0.2116  0.0963 -0.0048
 5478W        W20947   7.223   3.284   5.364 -0.0373  0.0483  0.1570
 5479W        W20948  15.744  13.056  15.011 -0.1713 -0.0928 -0.0097
 5480W        W20949   4.958  12.201   1.792 -0.1275 -0.1768 -0.1776
 5481W        W20950  18.434   7.525  12.059 -0.0700  0.2022  0.0052
 5482W        W20951  17.649   8.422   3.809  0.0353  0.2641 -0.1501
 5483W        W20952   5.766  15.015   1.698 -0.2556 -0.1424  0.0678
 5484W        W20953  11.001   7.149   0.795  0.0057 -0.0445 -0.0411
 5485W        W20954  10.127   5.760  11.239 -0.1050  0.0479  0.0864
 5486W        W20955   3.507  13.957   4.835 -0.1149  0.0189 -0.0133
 5487W        W20956  14.763  15.816  12.092  0.1846  0.0747  0.1900
 5488W        W20957   3.739   3.795   2.941 -0.1477 -0.3131  0.3534
 5489W        W20958  16.568  11.007  10.376  0.1443 -0.1330 -0.1010
 5490W        W20959  16.664  16.680  14.139 -0.2674 -0.0722  0.3658
 5491W        W20960  12.365  16.670  14.069  0.0836  0.0123  0.3025
 5492W        W20961   6.869  17.940  15.181  0.1991 -0.0659 -0.0880
 5493W        W20962   6.395   7.583  12.015 -0.0856  0.3091 -0.0255
 5494W        W20963   8.198   3.330   4.361 -0.1615 -0.1587  0.3670
 5495W        W20964  10.368   1.879   0.448  0.0162  0.1931  0.0203
 5496W        W20965  17.694   3.825  12.826 -0.1133  0.0174 -0.0989
 5497W        W20966  16.144  11.609  13.387  0.0353 -0.5536 -0.1021
 5498W        W20967  14.378  13.262  10.693 -0.0003  0.0840  0.0402
 5499W        W20968   7.287  17.703   2.221 -0.2249 -0.0131  0.0471
 5500W        W20969   4.882   3.188  12.228  0.1031 -0.3035  0.0568
 5501W        W20970   9.718  17.499   1.308 -0.0765 -0.1623 -0.1915
 5502W        W20971   2.636  10.649   2.538  0.1128  0.0643  0.1899
 5503W        W20972   9.460   5.049  14.901  0.0597  0.0602  0.0202
 5504W        W20973   2.014  16.821  10.377  0.0317 -0.0191  0.1556
 5505W        W20974  16.018   0.096  10.653  0.5814  0.1005 -0.0904
 5506W        W20975   8.269   0.618  14.407 -0.1650  0.1747 -0.1237
 5507W        W20976  12.371  14.139   1.371  0.1494 -0.0431 -0.0183
 5508W        W20977  18.296  16.277  14.821  0.2503 -0.1777 -0.0372
 5509W        W20978   2.016  14.164  13.099 -0.2251  0.3385  0.1936
 5510W        W20979  14.050  13.218  15.321  0.4026  0.1302  0.2389
 5511W        W20980   3.884  15.064   2.208 -0.0927  0.1036  0.0696
 5512W        W20981  13.032   2.397   5.028 -0.0580 -0.2514  0.0600
 5513W        W20982  15.170  13.186  14.735  0.1188 -0.0423  0.0153
 5514W        W20983  18.357  18.079  11.013  0.0035  0.1067  0.3013
 5515W        W20984  18.046   0.131  12.414 -0.0554 -0.0530 -0.0320
 5516W        W20985   3.044  14.239  10.464 -0.2022 -0.0096 -0.0596
 5517W        W20986  16.096  10.694   0.593  0.0898 -0.4167 -0.0682
 5518W        W20987  12.507   8.992  14.867  0.2197  0.2454 -0.0274
 5519W        W20988   8.576  14.072  10.350  0.1152  0.0133 -0.2065
 5520W        W20989  17.014  17.336  11.989 -0.0457 -0.0934 -0.2725
 5521W        W20990   3.663  16.626   3.727  0.2482  0.3626  0.1745
 5522W        W20991   5.610  10.415   0.351 -0.0516  0.4000  0.0562
 5523W        W20992  16.633   7.840   4.147  0.0917 -0.0037 -0.0737
 5524W        W20993  15.035   7.466  11.791  0.0047  0.0872 -0.0916
 5525W        W20994   4.812   2.545   1.890  0.0497 -0.2742 -0.4701
 5526W        W20995   4.172  10.614  11.861  0.1202 -0.4264  0.0808
 5527W        W20996  16.149  12.112  14.375  0.2048 -0.2099 -0.1487
 5528W        W20997  10.561  11.745  14.690 -0.0309 -0.2305 -0.1372
 5529W        W20998  11.070  10.253  12.158 -0.3625  0.0048 -0.0289
 5530W        W20999  14.060  18.348   0.775 -0.1315 -0.1569  0.0475
 5531W        W21000  16.552   3.519   5.852  0.0754 -0.2245 -0.2933
 5532W        W21001   4.901   7.939   4.686 -0.2648  0.0074  0.0149
 5533W        W21002   9.728  13.961  11.237 -0.1591  0.0870  0.0429
 5534W        W21003  18.299   4.930  12.582 -0.1145  0.4653  0.0886
 5535W        W21004   0.065  11.850  11.239  0.3746  0.0931 -0.0575
 5536W        W21005   6.947   8.503   5.042  0.3261  0.1127  0.1820
 5537W        W21006   5.394   7.297  10.565  0.1876 -0.1004 -0.0381
 5538W        W21007   6.796   3.282  12.613  0.1470 -0.0783  0.0093
 5539W        W21008   5.405   7.645  13.545 -0.4645 -0.2108 -0.1913
 5540W        W21009   8.764  13.719   9.895  0.3442  0.1232  0.2825
 5541W        W21010  17.704   5.256   0.803  0.2180 -0.1905 -0.1967
 5542W        W21011   1.611   6.160  15.335  0.4726 -0.2389  0.4019
 5543W        W21012  17.403   7.329  13.985  0.1344 -0.1810 -0.1649
 5544W        W21013   0.458   0.481   4.104 -0.0568 -0.2102  0.0038
 5545W        W21014   2.469   4.679   9.630 -0.0342  0.2227 -0.2140
 5546W        W21015  15.452   0.813   5.010 -0.0065  0.0164  0.0968
 5547W        W21016  14.681   0.746  11.006  0.2722  0.0243  0.3265
 5548W        W21017  10.701  11.374  12.816  0.2960 -0.1744  0.0437
 5549W        W21018   1.772   8.031  11.725 -0.1026 -0.3583  0.4086
 5550W        W21019   1.950   3.684   3.208  0.0137  0.0557  0.1916
 5551W        W21020   0.618  16.600   2.817  0.0292  0.0293 -0.3166
 5552W        W21021  16.346  18.781  11.780  0.2359  0.0967 -0.2982
 5553W        W21022   8.275   5.662  13.668 -0.3545 -0.1048  0.1366
 5554W        W21023   5.814  13.220   2.157 -0.1244  0.2368 -0.2579
 5555W        W21024  18.683   2.061   3.247  0.3290 -0.0876  0.3498
 5556W        W21025  11.600   6.590   9.856  0.3069 -0.2156  0.3405
 5557W        W21026  17.973  16.884   0.545  0.2223  0.1022  0.0946
 5558W        W21027   2.310   1.489  10.246 -0.1025  0.3351  0.1536
 5559W        W21028  17.859  14.470  13.829 -0.0550 -0.2403 -0.4417
 5560W        W21029   7.137   5.217  10.120  0.1479  0.0120 -0.1530
 5561W        W21030   2.033  14.527  10.189  0.1430 -0.1699  0.0926
 5562W        W21031   7.185   7.490   4.148  0.0094  0.1741  0.1222
 5563W        W21032   7.077   0.433  13.383  0.2917  0.0198 -0.2167
 5564W        W21033  13.766   4.396  13.892 -0.2060 -0.1015  0.1819
 5565W        W21034   8.482  16.431   2.857 -0.0070  0.1538 -0.2237
 5566W        W21035   9.320   7.864   1.470 -0.1018  0.0065 -0.0756
 5567W        W21036  14.469  10.788   2.634 -0.1343  0.4179  0.0599
 5568W        W21037  14.430  12.318  12.464  0.1368 -0.2127  0.0900
 5569W        W21038  15.635   9.407   3.578  0.0003 -0.0427  0.0416
 5570W        W21039  17.786  15.391  11.735 -0.2033 -0.0105 -0.0448
 5571W        W21040   0.651  11.986   2.022  0.0337  0.0741  0.1400
 5572W        W21041  11.996   4.925   2.429  0.0076 -0.2923 -0.1488
 5573W        W21042  14.666   2.902  13.162  0.1196 -0.0550  0.2013
 5574W        W21043   4.838  12.437   3.812 -0.1071 -0.1633 -0.2764
 5575W        W21044  15.271  14.188  11.022 -0.3800  0.2664  0.1449
 5576W        W21045  14.866   1.774   2.770  0.2648  0.0775 -0.1899
 5577W        W21046   3.463  14.228  14.617 -0.0031  0.1715 -0.0410
 5578W        W21047   0.372   0.361   0.055  0.0647 -0.0368  0.1535
 5579W        W21048   0.980  15.565   3.734 -0.1003 -0.1624 -0.2415
 5580W        W21049   3.780   8.498  14.307 -0.1641  0.0148 -0.0535
 5581W        W21050  14.980  12.624   3.073  0.2986 -0.0259  0.1997
 5582W        W21051   9.769   1.213  13.804  0.0432  0.4253  0.2515
 5583W        W21052  14.572  14.727   0.961 -0.0373  0.0759 -0.0786
 5584W        W21053  11.389   5.197  15.275  0.2346 -0.2180  0.3257
 5585W        W21054  10.688  13.713  12.032 -0.3442  0.0556  0.2643
 5586W        W21055   2.936  16.089   0.365  0.2290  0.1420 -0.1801
 5587W        W21056  14.944   5.416   1.808 -0.1681  0.1818  0.1478
 5588W        W21057   1.662   1.265   3.463 -0.1774 -0.0039 -0.3015
 5589W        W21058   6.777  13.641   1.525 -0.2401 -0.1808 -0.0880
 5590W        W21059  10.812  14.663  11.793  0.1955  0.0652  0.0673
 5591W        W21060   1.184   8.031  10.887  0.1471  0.1098 -0.3876
 5592W        W21061   5.537  16.379  10.498  0.3143 -0.0205 -0.0639
 5593W        W21062   3.063  11.316  13.961  0.0602 -0.1021 -0.3141
 5594W        W21063   7.492   2.005   0.339 -0.0111 -0.1180 -0.0216
 5595W        W21064  14.713  11.701  12.547  0.2343 -0.0398 -0.2658
 5596W        W21065  12.096  18.594  13.783 -0.0168 -0.1672  0.0725
 5597W        W21066   5.919   7.946   3.390 -0.0928 -0.1207 -0.2913
 5598W        W21067  18.316   1.794   3.963  0.0535 -0.1936 -0.0448
 5599W        W21068  18.829   1.390  11.164 -0.0489  0.1942  0.1837
 5600W        W21069  10.931  10.580   5.671 -0.2793  0.3592  0.0112
 5601W        W21070  13.590   0.014   5.646  0.0850 -0.6039  0.0954
 5602W        W21071  13.642   0.781   1.754 -0.4712 -0.0236  0.1972
 5603W        W21072   3.764   1.344  14.411  0.0238  0.0164  0.4404
 5604W        W21073   5.833   6.418  11.021  0.1380 -0.0382 -0.0681
 5605W        W21074   0.045   1.587  11.682 -0.3626  0.3316  0.0808
 5606W        W21075   0.151   7.540   0.268 -0.2716  0.1725  0.4331
 5607W        W21076  11.674   6.327  12.683 -0.1032 -0.0005 -0.3877
 5608W        W21077  10.710  12.003   2.058 -0.1500 -0.0031 -0.1269
 5609W        W21078  10.130   4.735   3.729  0.2952 -0.0488 -0.0299
 5610W        W21079  17.677  12.403   1.758  0.1675 -0.3408  0.0317
 5611W        W21080  17.179  10.454  10.153  0.0579  0.1292 -0.0711
 5612W        W21081  16.080  13.857   2.151 -0.2377  0.1551  0.0185
 5613W        W21082   9.667   6.614   1.367 -0.0308 -0.2345  0.0528
 5614W        W21083   2.030  12.268   0.256  0.0802 -0.2616 -0.0800
 5615W        W21084  10.708  12.001  15.119 -0.3931  0.0485  0.1837
 5616W        W21085   0.558   4.474   4.810 -0.1314  0.3918  0.0598
 5617W        W21086  17.848   4.495   4.646  0.1390  0.2962  0.1784
 5618W        W21087   0.583  14.613   2.906  0.1828 -0.0918 -0.2007
 5619W        W21088   3.521  11.399   0.812 -0.1853 -0.2420  0.0936
 5620W        W21089  12.304   1.423  15.116  0.0216  0.4451  0.0760
 5621W        W21090  14.431   6.211   0.780  0.2550 -0.5650  0.3699
 5622W        W21091   8.794  14.400   0.034  0.1609 -0.0358 -0.2644
 5623W        W21092  12.081  10.940   2.657  0.0065 -0.0572  0.0918
 5624W        W21093   9.964  10.166  14.534 -0.1843 -0.3154  0.1020
 5625W        W21094  15.152  15.268  13.620 -0.0298  0.0332 -0.1462
 5626W        W21095   8.879   9.117  11.783  0.0271 -0.1111  0.0956
 5627W        W21096   0.960  14.078   3.626 -0.4568 -0.1121  0.0682
 5628W        W21097  18.647   3.492  12.079 -0.1327 -0.2884  0.0295
 5629W        W21098   3.462  10.525  14.802 -0.1390 -0.0331 -0.0041
 5630W        W21099  14.496   7.834   2.010  0.1934  0.1684 -0.0026
 5631W        W21100  11.845  13.860  11.142 -0.0181  0.0551  0.1004
 5632W        W21101  16.631   7.254  14.788 -0.3042  0.0833 -0.2910
 5633W        W21102   2.885   7.155   0.239 -0.1380  0.3615  0.0547
 5634W        W21103  18.403   8.804   1.720 -0.0300 -0.0635  0.0886
 5635W        W21104   3.837   0.023   4.958 -0.1694 -0.0574  0.0518
 5636W        W21105  14.991  17.141  10.883  0.2654 -0.0813 -0.0625
 5637W        W21106   9.821  11.224   2.542  0.0504  0.0458 -0.0416
 5638W        W21107  13.774  16.516  13.021  0.0719  0.0357  0.0663
 5639W        W21108  13.206  15.302  12.454  0.3729  0.4629 -0.0197
 5640W        W21109  11.017   2.245   0.734 -0.2235  0.1562 -0.0668
 5641W        W21110  12.188  16.624  12.209 -0.2047  0.0966 -0.0924
 5642W        W21111   0.406   0.268  10.713  0.4054  0.1353  0.0930
 5643W        W21112  10.517   7.682  13.583 -0.2282 -0.3595  0.2274
 5644W        W21113   8.612  10.763  14.963  0.3121  0.2301 -0.2087
 5645W        W21114  17.557  11.122   4.441  0.1155 -0.2472  0.1665
 5646W        W21115  10.886   9.442   0.472 -0.0541  0.0670 -0.4405
 5647W        W21116  10.106   2.569  13.071 -0.3711  0.2474 -0.1167
 5648W        W21117   0.700  17.080   1.840  0.0900  0.1377  0.3849
 5649W        W21118  13.242  16.384  13.716 -0.0972 -0.0666  0.4148
 5650W        W21119   0.887   0.488   4.888 -0.0992 -0.0168  0.1791
 5651W        W21120   5.341   4.487  11.920 -0.0006  0.2551 -0.0558
 5652W        W21121  10.700  17.636  14.964 -0.0351 -0.2649  0.2877
 5653W        W21122  13.793   5.039   0.158  0.2376  0.1254 -0.1357
 5654W        W21123   2.192  12.961  13.474 -0.2302  0.1307  0.4846
 5655W        W21124  12.761   6.229  12.972  0.0385 -0.0760 -0.1090
 5656W        W21125   6.341  16.117  12.931 -0.1441  0.3722 -0.0258
 5657W        W21126  16.863  13.300   0.602  0.1692 -0.1499 -0.3174
 5658W        W21127   6.613   1.605   1.743  0.6623 -0.3707 -0.0526
 5659W        W21128  13.933  12.788   2.248 -0.0133  0.0472  0.1242
 5660W        W21129  14.583  15.295  11.276  0.2139  0.2023 -0.0001
 5661W        W21130   3.444  15.247  13.446 -0.0153  0.0136  0.1001
 5662W        W21131   1.516  15.421   2.331  0.2373 -0.0719  0.2811
 5663W        W21132   9.140  17.835   2.133  0.0039 -0.0277 -0.1251
 5664W        W21133  16.129  12.985  10.813  0.3047 -0.3010 -0.0410
 5665W        W21134   2.832  11.621  10.250 -0.1059 -0.0489  0.0019
 5666W        W21135  11.399  10.587  14.725 -0.1328  0.0200  0.1109
 5667W        W21136  15.790  10.149   0.327 -0.1037  0.2994 -0.4072
 5668W        W21137   6.805   7.169   5.204 -0.2574 -0.2475 -0.0795
 5669W        W21138   3.815   9.353  12.969 -0.1372 -0.2540 -0.2921
 5670W        W21139   5.580  10.708  14.919 -0.1157  0.1641 -0.2535
 5671W        W21140  16.503   0.621  15.351  0.1356 -0.3268  0.0998
 5672W        W21141   0.780  12.806  13.373  0.0735 -0.0193  0.0425
 5673W        W21142  15.412  15.563   1.848 -0.1578 -0.0579  0.2364
 5674W        W21143  12.628   2.733  10.660  0.0174 -0.1173 -0.2782
 5675W        W21144   6.845   2.367   1.190 -0.0467  0.1717 -0.1112
 5676W        W21145   2.676   9.596  14.115  0.4401  0.3658 -0.2478
 5677W        W21146   9.314   8.613  11.075  0.1751  0.0917 -0.1233
 5678W        W21147   0.812  17.469   0.649 -0.2508 -0.1211  0.1455
 5679W        W21148   6.289  10.532   1.132 -0.0216 -0.1666 -0.3191
 5680W        W21149  12.433  10.377  12.298  0.4263  0.0701 -0.3046
 5681W        W21150   3.977   5.184   9.499 -0.3215 -0.0068 -0.0812
 5682W        W21151   8.457   3.978   5.103  0.0506 -0.2731  0.1952
 5683W        W21152   7.744  14.471  12.783 -0.0335 -0.0134  0.0145
 5684W        W21153  12.633   4.963  11.759 -0.3373 -0.0945  0.2891
 5685W        W21154  17.414  18.200  11.995  0.2978 -0.2809 -0.3698
 5686W        W21155   4.719   4.742  13.214  0.1746  0.2956 -0.3161
 5687W        W21156  18.063  16.296  12.838  0.1317  0.0774 -0.2479
 5688W        W21157   8.278   6.116   5.429  0.0855 -0.0809 -0.2616
 5689W        W21158   7.665   6.961  10.732  0.2717 -0.0998 -0.2815
 5690W        W21159   6.581  12.864   4.081 -0.0853  0.1115 -0.1182
 5691W        W21160  10.522  18.850  12.318 -0.2860 -0.0282 -0.0946
 5692W        W21161   5.356   1.470   2.115 -0.1423 -0.1292 -0.0990
 5693W        W21162   5.958   7.260  10.783  0.0490 -0.0280  0.0627
 5694W        W21163   3.420  18.182  13.700 -0.1424 -0.0493  0.2054
 5695W        W21164  16.535   8.619   1.639  0.1809  0.1120  0.0380
 5696W        W21165  14.895  10.510   2.280 -0.0143 -0.0608  0.1977
 5697W        W21166  14.724  19.011  11.914  0.0556 -0.2834  0.1342
 5698W        W21167  10.100   9.354   0.657  0.0515 -0.0318  0.3291
 5699W        W21168   3.570   4.448   3.872  0.0803 -0.0847  0.3118
 5700W        W21169  10.905  15.021  15.232  0.0636  0.1450 -0.1064
 5701W        W21170  10.014  11.776  14.513  0.0636  0.1574 -0.1245
 5702W        W21171   7.422  15.171  10.026 -0.2288 -0.0996 -0.1720
 5703W        W21172  18.962   2.359   1.293  0.1786  0.3616  0.0897
 5704W        W21173  13.898   8.336   1.119 -0.1253  0.0135  0.0004
 5705W        W21174  10.012  12.510   4.125 -0.2692  0.0149 -0.1150
 5706W        W21175  15.806  17.807  14.335 -0.0976 -0.0073 -0.1772
 5707W        W21176   1.497   7.327  14.277  0.0144 -0.0828  0.0335
 5708W        W21177   4.082  14.794   3.730  0.4634 -0.1233  0.4527
 5709W        W21178  14.960  12.595  10.592 -0.0112  0.2192  0.1417
 5710W        W21179   7.585   7.946  12.772 -0.0577 -0.1091  0.3254
 5711W        W21180  12.433  15.012  14.826  0.1592 -0.0615 -0.1996
 5712W        W21181  17.630  10.913  11.823  0.0526  0.1717  0.1298
 5713W        W21182   9.683   7.666   3.950  0.0586  0.0184  0.1548
 5714W        W21183  18.404   7.533   3.363 -0.1758 -0.1629 -0.0069
 5715W        W21184   6.912  10.321   4.912 -0.2193  0.0409 -0.1718
 5716W        W21185  15.592   1.302  12.211 -0.1374  0.0931 -0.0166
 5717W        W21186   7.342  18.591   4.105  0.2514 -0.2873  0.0069
 5718W        W21187   6.536   2.506  13.811  0.1284 -0.1021 -0.0240
 5719W        W21188  13.236  17.048   2.354 -0.2410  0.4994 -0.1096
 5720W        W21189   0.346  15.754   3.160 -0.2016 -0.1612  0.0556
 5721W        W21190  15.559   1.405  11.650 -0.0380  0.0845  0.0468
 5722W        W21191  11.411  10.257  10.829 -0.0330  0.2633  0.1193
 5723W        W21192   5.480  14.590  10.739  0.0928 -0.0447 -0.2814
 5724W        W21193   2.724  12.239  11.974  0.1413 -0.0938  0.3510
 5725W        W21194   7.098   0.549   5.262  0.0122  0.0759  0.2233
 5726W        W21195   6.460  18.302  15.093  0.2132 -0.4253 -0.0136
 5727W        W21196  13.907  10.926  10.709  0.0536  0.1096 -0.0626
 5728W        W21197  12.431  13.670  14.255  0.4252  0.0246  0.2383
 5729W        W21198   0.956  18.540  14.772 -0.1554 -0.1454  0.2950
 5730W        W21199   1.996   3.983  13.466  0.0361  0.4180 -0.2194
 5731W        W21200  10.015  16.731  14.021  0.3311 -0.0656 -0.2212
 5732W        W21201   8.752  17.207  14.435 -0.0101  0.0732 -0.0016
 5733W        W21202   1.860  15.214   0.403 -0.1328 -0.1388 -0.1509
 5734W        W21203   3.673   2.017   2.757 -0.0818 -0.1204  0.0374
 5735W        W21204   0.404   8.360  12.683 -0.1000  0.0301  0.3078
 5736W        W21205   0.375   1.833  12.022 -0.2405 -0.0794  0.3350
 5737W        W21206   4.028   5.420  10.729 -0.0212 -0.4596 -0.0107
 5738W        W21207  18.410   7.478   1.984  0.3313  0.0953  0.0133
 5739W        W21208  12.772  10.713  11.878 -0.0570  0.2765 -0.1373
 5740W        W21209   4.913   4.512  12.845  0.1859 -0.0451  0.2626
 5741W        W21210  13.796   0.041  13.964 -0.1200  0.1146 -0.2695
 5742W        W21211   9.172   4.312  13.799  0.3282  0.1511 -0.0478
 5743W        W21212  17.895  10.152  14.766 -0.0002  0.3032  0.5142
 5744W        W21213  16.620   5.258   1.962  0.0079  0.0691 -0.2368
 5745W        W21214  13.778   9.229  14.009 -0.2594  0.0785  0.1024
 5746W        W21215   2.689   8.189  14.967  0.1268  0.0631  0.0512
 5747W        W21216  10.474   3.639  11.064 -0.3771  0.2304 -0.1289
 5748W        W21217   5.111  15.995   3.742 -0.2495 -0.1546 -0.2884
 5749W        W21218  18.674   8.906  10.607  0.0338  0.0204  0.1109
 5750W        W21219   6.993  11.384  10.808  0.1310 -0.3701  0.4267
 5751W        W21220   9.488   2.458   1.543 -0.1669 -0.2521 -0.0560
 5752W        W21221   0.625   4.699  14.130  0.0299  0.1333  0.1605
 5753W        W21222   2.118   1.741   2.365  0.0244  0.2718  0.1741
 5754W        W21223   2.698  14.162   4.673  0.4610  0.0292 -0.1100
 5755W        W21224   8.496   8.359   1.590  0.2178  0.0166 -0.4717
 5756W        W21225   8.448   3.707  13.758 -0.3044  0.0584  0.0554
 5757W        W21226  15.055  15.943  13.069  0.3589  0.0734 -0.1516
 5758W        W21227   9.658  18.200  13.516 -0.0307 -0.0699  0.0572
 5759W        W21228   8.437   6.779  15.234 -0.2256  0.0454  0.1474
 5760W        W21229  15.140  13.856  10.579  0.2818  0.1087  0.2832
 5761W        W21230  15.572   1.333  14.732 -0.1172  0.3278  0.0520
 5762W        W21231   3.648  13.902   1.690 -0.1149  0.0375  0.0202
 5763W        W21232   8.373   6.863   3.065  0.0604  0.4021  0.0109
 5764W        W21233   7.196  10.240  12.521  0.3814 -0.4802  0.1189
 5765W        W21234  14.555  16.827   0.085 -0.0577  0.0330  0.0925
 5766W        W21235  16.167   7.962  12.670 -0.0457  0.1186 -0.1318
 5767W        W21236  11.220   2.875   0.150 -0.2122 -0.2103 -0.1016
 5768W        W21237   9.843  13.414   1.586 -0.1128 -0.2538  0.0323
 5769W        W21238   2.394   3.976   4.769  0.4716  0.2206  0.1912
 5770W        W21239  11.848  14.698  12.457 -0.0862 -0.0826 -0.0710
 5771W        W21240   1.545  17.961  11.231  0.0011 -0.0630 -0.0899
 5772W        W21241   1.496   2.830  13.574 -0.1246  0.4257  0.0407
 5773W        W21242  15.737  18.088  11.952 -0.2349  0.0226 -0.1135
 5774W        W21243  11.521  17.624  14.565 -0.1784 -0.2286  0.0027
 5775W        W21244  18.128  10.554   2.744 -0.1873  0.3119 -0.2139
 5776W        W21245  18.648  15.771   0.119 -0.0910 -0.1529  0.0717
 5777W        W21246  18.484   4.002   0.708 -0.2031  0.2006 -0.3288
 5778W        W21247  18.761  14.882  11.073 -0.0019 -0.1617 -0.0391
 5779W        W21248  18.171  16.163  11.741 -0.2796  0.0033  0.0285
 5780W        W21249   1.498  11.551   9.780  0.0800  0.4044 -0.2238
 5781W        W21250  12.685   7.803   2.295  0.1197 -0.4082  0.3245
 5782W        W21251   3.472   5.190   4.290 -0.1638  0.3928  0.1784
 5783W        W21252   5.600   5.991  13.393 -0.0601 -0.2041 -0.0966
 5784W        W21253   6.092   1.746   5.467  0.0262  0.2479 -0.1034
 5785W        W21254   9.088   8.265   4.009 -0.1266  0.0963 -0.1666
 5786W        W21255  15.682  14.534   2.722 -0.0273  0.2439 -0.0195
 5787W        W21256   5.648  14.530   1.500 -0.1098 -0.0581 -0.0332
 5788W        W21257   2.273   3.666   3.585 -0.0984 -0.1234  0.2973
 5789W        W21258   2.939   4.109   3.432  0.1348 -0.3202  0.0366
 5790W        W21259   5.486   1.919  11.520  0.2736  0.0938 -0.2073
 5791W        W21260   9.641   4.723   1.324  0.1423  0.1384 -0.0105
 5792W        W21261  15.048   7.683  14.007  0.0381 -0.3811  0.0300
 5793W        W21262   4.318   7.563  11.070 -0.1911  0.1039 -0.1983
 5794W        W21263   3.354   6.134  10.419  0.1571  0.2394 -0.2982
 5795W        W21264   3.793   3.909   1.892  0.0976  0.1970 -0.0554
 5796W        W21265  13.949   0.204  10.901 -0.1025  0.0759 -0.0664
 5797W        W21266   9.682   5.619  13.473  0.2474  0.2626  0.0241
 5798W        W21267  18.562  13.355  12.089  0.0559  0.0983 -0.4153
 5799W        W21268   4.849  13.965  10.937 -0.2841  0.0634  0.1355
 5800W        W21269  13.907  12.045   1.926  0.1285  0.1387 -0.3405
 5801W        W21270   9.387  16.792   4.242  0.2191  0.0990  0.4214
 5802W        W21271   7.394  16.560  12.089  0.3428  0.1638  0.0145
 5803W        W21272   2.266  16.384   0.882 -0.0272  0.0232  0.0505
 5804W        W21273   9.150  11.325  14.042 -0.0536 -0.1828 -0.2158
 5805W        W21274  16.962  18.449  11.152 -0.2778  0.2616  0.2069
 5806W        W21275  13.065  15.574   0.511  0.2618  0.4281  0.1956
 5807W        W21276   2.988   0.761   3.415 -0.0932 -0.2830  0.0616
 5808W        W21277   4.107  19.026   1.153  0.0176  0.2797  0.0478
 5809W        W21278   0.268  11.072   9.505 -0.1878  0.2686  0.1596
 5810W        W21279   7.844  13.229   5.492  0.2321 -0.2501 -0.0633
 5811W        W21280  12.615   3.849   3.280  0.0257 -0.2240 -0.0051
 5812W        W21281  11.418   5.158   0.851 -0.4533  0.0146  0.3296
 5813W        W21282   9.637   5.636   0.687  0.0106  0.0322 -0.1225
 5814W        W21283  15.951  12.315  15.101 -0.1602  0.1426 -0.1085
 5815W        W21284  14.814  16.071   2.589 -0.0749  0.1938  0.1708
 5816W        W21285  11.458  10.440   0.501 -0.0605  0.1942 -0.3203
 5817W        W21286  17.191  13.949  10.668  0.3175  0.0396 -0.0968
 5818W        W21287  10.980  11.338  12.391  0.1268 -0.1009 -0.2457
 5819W        W21288  11.628   0.903   4.459  0.2015 -0.1402 -0.2545
 5820W        W21289   5.418  18.407   0.657 -0.3726 -0.1705 -0.1468
 5821W        W21290   6.843   7.680  13.120  0.0538 -0.2602 -0.0539
 5822W        W21291   5.563   3.882   2.888  0.1932  0.2123  0.0676
 5823W        W21292   3.092   5.903   5.742  0.3007  0.1233 -0.3590
 5824W        W21293  12.379  16.245   2.270 -0.2041  0.0681  0.0959
 5825W        W21294   3.518  12.223   2.591 -0.0006 -0.0282  0.0615
 5826W        W21295   7.140   6.228  15.114 -0.0966 -0.1228 -0.1387
 5827W        W21296  15.597   2.003   4.297 -0.0941  0.3540  0.2491
 5828W        W21297   0.223   0.758   0.328 -0.1047  0.2599 -0.0747
 5829W        W21298  16.994   0.925   1.903  0.3440  0.0583 -0.4163
 5830W        W21299  12.828  18.795  12.560 -0.1340  0.0962  0.1091
 5831W        W21300   7.457  11.393  13.411 -0.0855  0.1405  0.2360
 5832W        W21301  18.518   0.365  11.994  0.4144 -0.0066  0.0825
 5833W        W21302   8.905  12.930   2.489 -0.2514 -0.3283  0.0252
 5834W        W21303  14.691  10.399  12.070  0.2030  0.1932 -0.1520
 5835W        W21304  17.418  12.882   3.633 -0.2882 -0.0189 -0.2455
 5836W        W21305  18.327   6.408   3.716 -0.0065 -0.2046  0.2992
 5837W        W21306   6.424  12.397  13.274 -0.0841  0.3387 -0.0043
 5838W        W21307   1.639  17.978   5.476 -0.2935  0.0499 -0.3108
 5839W        W21308   3.610  17.267   4.433  0.0490 -0.1013 -0.1508
 5840W        W21309   9.383  10.827  10.533 -0.1413 -0.0539 -0.1487
 5841W        W21310   2.704  14.174   2.024  0.0938 -0.2443 -0.0448
 5842W        W21311  12.534  16.561   4.030  0.1939 -0.2324  0.2515
 5843W        W21312   5.686   0.028  11.710 -0.0613  0.0981  0.0320
 5844W        W21313   5.787   3.830  12.639  0.0878  0.0566  0.2479
 5845W        W21314   7.222  15.869   0.831 -0.3944  0.4639  0.1925
 5846W        W21315   4.819   4.307  14.882 -0.0355  0.2908  0.0224
 5847W        W21316   5.049  15.742  13.916  0.2123  0.2414 -0.1727
 5848W        W21317   8.308  18.931   0.776  0.1471 -0.3365 -0.0509
 5849W        W21318   4.647   8.577   3.927  0.2865  0.0646 -0.2929
 5850W        W21319  13.227   8.487   4.319  0.4382  0.2767  0.0760
 5851W        W21320  15.344  16.843  11.308  0.0143  0.2170 -0.3128
 5852W        W21321  15.783   1.430   4.290  0.3414  0.0871  0.0537
 5853W        W21322  18.501   1.885  11.766 -0.0302  0.1595 -0.0091
 5854W        W21323  18.630  13.756   5.314 -0.1372 -0.0273 -0.1702
 5855W        W21324  10.599   9.873  14.700 -0.0464 -0.0592 -0.0918
 5856W        W21325  15.205  12.947   5.009 -0.1090 -0.2536  0.0948
 5857W        W21326   2.448   5.295   1.794 -0.0117 -0.0379 -0.1759
 5858W        W21327  17.698   2.429   0.035  0.1727 -0.1241  0.0080
 5859W        W21328  15.749   9.423   0.240 -0.0464 -0.2083  0.1638
 5860W        W21329   5.833   2.997  14.260  0.0020  0.2663 -0.0002
 5861W        W21330  18.342   6.356   1.588  0.0596  0.0807  0.0778
 5862W        W21331  13.302  15.763  12.044  0.1284 -0.0025  0.1573
 5863W        W21332  16.706   0.068  11.254  0.0548  0.0874 -0.2754
 5864W        W21333  17.643   9.554  11.152  0.1711 -0.1836  0.1911
 5865W        W21334  17.504  11.118   3.080  0.1227 -0.4741  0.1528
 5866W        W21335  15.315  18.435   3.752  0.0105 -0.1636  0.2885
 5867W        W21336  11.590   6.422   3.533 -0.3217 -0.1392 -0.3359
 5868W        W21337   3.152   2.077  14.686 -0.0593 -0.1674  0.2865
 5869W        W21338   8.662   4.151  13.892  0.1299 -0.3550 -0.0464
 5870W        W21339   5.392  16.619  14.261  0.2506 -0.0836  0.0069
 5871W        W21340  18.145   2.085   3.035  0.0424 -0.2279 -0.0818
 5872W        W21341  11.596   2.149   3.358  0.0107 -0.3394  0.1611
 5873W        W21342  17.066  13.682   4.564 -0.1988  0.1203 -0.1766
 5874W        W21343   6.664  18.150   3.904  0.1256 -0.0611 -0.2230
 5875W        W21344   9.484  17.864   0.500  0.0240 -0.2377 -0.0397
 5876W        W21345  15.087  18.537   2.814 -0.0518 -0.0990  0.0055
 5877W        W21346   3.551   7.708  12.718 -0.2999 -0.0556 -0.3080
 5878W        W21347  14.256  11.867  12.561  0.3526  0.1952  0.2378
 5879W        W21348   8.174   1.408   1.673  0.5037 -0.1027  0.1351
 5880W        W21349   9.333   4.888   5.148 -0.0138 -0.0452 -0.2165
 5881W        W21350   6.499   3.622   4.355 -0.0572 -0.2928  0.0367
 5882W        W21351  12.568  18.307   5.263  0.1536  0.3626  0.1141
 5883W        W21352  11.534   2.178   4.748  0.1362  0.0383  0.1501
 5884W        W21353   3.787   1.843   0.925  0.0631 -0.0267  0.0820
 5885W        W21354   2.061   4.009  14.026  0.0640  0.3007 -0.0836
 5886W        W21355   9.454   1.175   1.590  0.1790  0.2392  0.3367
 5887W        W21356  12.210  17.254   2.429 -0.0864 -0.2085  0.2717
 5888W        W21357   6.120   0.004  13.650  0.2976 -0.4011  0.3866
 5889W        W21358   3.275   9.197  11.551 -0.4143  0.0075 -0.1242
 5890W        W21359  15.061   3.618   3.108  0.0827  0.0687  0.5939
 5891W        W21360  15.224  15.566   2.559 -0.1715  0.2311 -0.0415
 5892W        W21361   5.926   7.756  13.472  0.1605 -0.2278  0.1821
 5893W        W21362  16.199  11.025   0.179  0.1783  0.3011 -0.0732
 5894W        W21363   3.117  10.296  12.354  0.1956  0.1271  0.2544
 5895W        W21364  17.244  11.376  12.003 -0.0871  0.0259  0.1191
 5896W        W21365  16.830   6.386  14.874  0.0536  0.0131 -0.1705
 5897W        W21366   3.268   4.871   3.935 -0.0810  0.0820 -0.1709
 5898W        W21367  13.124   1.447   0.829  0.3510  0.0311 -0.1459
 5899W        W21368  11.786   7.980   1.289  0.0394  0.3060 -0.1179
 5900W        W21369  11.098   3.985   4.387  0.1957 -0.2166 -0.1010
 5901W        W21370  15.912  14.082  14.704  0.1246  0.3861  0.1094
 5902W        W21371  14.666  10.337   2.811  0.2259  0.1595  0.1127
 5903W        W21372   0.876  15.966   5.032 -0.0677 -0.2531  0.0966
 5904W        W21373   7.675  18.920   2.664 -0.0403  0.1803 -0.0644
 5905W        W21374  13.265  17.608   5.165 -0.1064 -0.0050 -0.2071
 5906W        W21375   4.401  12.809   3.474 -0.1527 -0.3177  0.0882
 5907W        W21376   4.282  15.135  13.767  0.2364  0.1151 -0.2302
 5908W        W21377  17.310   4.099  12.500 -0.2991  0.2433  0.1140
 5909W        W21378  13.423  12.242  12.732 -0.1061  0.0949  0.3089
 5910W        W21379  11.668  14.982   4.345 -0.1448  0.1170 -0.0490
 5911W        W21380  18.531  10.432  12.479 -0.0104 -0.2277 -0.0262
 5912W        W21381  12.992   1.178  11.630  0.0562 -0.0070 -0.1902
 5913W        W21382   8.912   4.666  14.132  0.2029  0.2302  0.2076
 5914W        W21383   6.859   8.387  12.410 -0.1365 -0.0608 -0.0830
 5915W        W21384  14.509   0.664  11.508 -0.0857 -0.0077  0.1135
 5916W        W21385  10.748   8.558  14.068 -0.0568 -0.1148 -0.3118
 5917W        W21386   9.404   8.867  14.433 -0.0929 -0.1178 -0.0903
 5918W        W21387  17.457   1.967   4.069  0.0175  0.1547 -0.1728
 5919W        W21388   6.495  16.944   4.736  0.1752 -0.2721 -0.0772
 5920W        W21389  17.374  14.865   3.228 -0.1423 -0.0461  0.5940
 5921W        W21390  10.381   7.135   3.868  0.1614  0.0152 -0.0157
 5922W        W21391  18.069   8.972  13.718  0.2357 -0.0482 -0.2506
 5923W        W21392   3.243  18.462   4.719 -0.0111 -0.1400  0.4149
 5924W        W21393  14.659  14.444   3.160 -0.0774 -0.1679 -0.1501
 5925W        W21394  15.111  16.153  12.216  0.2877  0.0329 -0.2870
 5926W        W21395   6.910  14.571  12.499  0.0666 -0.0737  0.2257
 5927W        W21396   3.106   9.906  14.136 -0.2742 -0.3105  0.0221
 5928W        W21397   3.933  14.837  14.098  0.0644 -0.0283 -0.0660
 5929W        W21398  16.740   0.254  10.667 -0.2924  0.0624 -0.2447
 5930W        W21399   8.366   5.516  14.828 -0.1586  0.0834  0.2478
 5931W        W21400   6.032   4.353  11.230 -0.1583  0.2656  0.1411
 5932W        W21401  15.497  17.995   3.914  0.0588  0.0761  0.1158
 5933W        W21402   2.297  10.928  15.239  0.0596 -0.2556  0.0467
 5934W        W21403   0.747   0.052   1.693 -0.1634 -0.0759  0.2396
 5935W        W21404   5.612  11.288  12.891 -0.1721  0.1790 -0.0447
 5936W        W21405   7.270  11.947  15.317  0.2795 -0.0418 -0.1100
 5937W        W21406  14.984  10.293  10.636 -0.2686  0.4467  0.1335
 5938W        W21407   9.530   9.816  14.620  0.0388 -0.1085 -0.0563
 5939W        W21408  11.975   4.182  13.747  0.1470  0.0107 -0.0718
 5940W        W21409   1.228   7.920   2.342  0.0381  0.2953 -0.1687
 5941W        W21410   2.787   1.171   3.298 -0.0728 -0.0510  0.1099
 5942W        W21411  13.935  16.679   0.574 -0.1323 -0.1163 -0.1189
 5943W        W21412  14.963  13.026   1.268 -0.0326  0.2977 -0.1963
 5944W        W21413  17.239  14.386   0.163  0.3200 -0.2388  0.3907
 5945W        W21414   3.985   2.430  10.004 -0.2127 -0.1732 -0.2462
 5946W        W21415   9.288   0.191  13.955  0.1929  0.1481  0.1039
 5947W        W21416  19.026   7.769  13.283 -0.0097  0.2633  0.1589
 5948W        W21417   1.766   6.006   1.212 -0.0732  0.0548 -0.0916
 5949W        W21418   2.465  17.980   3.640 -0.2345  0.0174  0.2005
 5950W        W21419  14.264  13.632   1.844  0.1132 -0.0260 -0.0930
 5951W        W21420   4.696   4.478   4.280 -0.2808  0.2058 -0.0645
 5952W        W21421   8.739   6.481   2.599  0.2248 -0.0710  0.0414
 5953W        W21422  13.489   1.575  12.978 -0.2576 -0.0347 -0.0207
 5954W        W21423   9.581  12.839   4.245 -0.1916  0.0500 -0.0476
 5955W        W21424   3.861  13.009  14.490 -0.3676  0.0059  0.0526
 5956W        W21425   6.300   5.789  14.444  0.2071 -0.2798 -0.1211
 5957W        W21426   5.013   5.745   4.504  0.2314 -0.0481  0.2090
 5958W        W21427  14.991   4.553  10.267 -0.1552  0.1248  0.0050
 5959W        W21428   3.329  14.221   3.173  0.2398  0.0171  0.0060
 5960W        W21429  18.461  15.874  14.482 -0.4137  0.2463  0.2768
 5961W        W21430   2.450   2.916   4.689 -0.0282 -0.1476  0.0898
 5962W        W21431   3.930   3.330   0.459 -0.1829 -0.0035  0.3722
 5963W        W21432   5.585  14.084   9.366  0.0719  0.1598  0.0827
 5964W        W21433   3.892   6.403  11.580 -0.0553  0.3171 -0.0499
 5965W        W21434  15.714  18.941   2.790  0.0488 -0.0318  0.3436
 5966W        W21435  12.828  17.684   0.658  0.3041 -0.1589  0.2049
 5967W        W21436   1.576  17.958   1.975  0.0016  0.0249 -0.0556
 5968W        W21437   2.214  13.320   5.385 -0.2034 -0.0643 -0.4174
 5969W        W21438   0.559  15.993  14.530 -0.0189  0.0721  0.1816
 5970W        W21439  11.266  18.356   3.565  0.1264  0.0722  0.1224
 5971W        W21440  13.987   7.556   5.820  0.3400 -0.3419 -0.0316
 5972W        W21441  15.648  11.531  12.495 -0.1368  0.2296 -0.1312
 5973W        W21442   6.572  14.599  12.850 -0.0324 -0.5700 -0.3284
 5974W        W21443   6.036  16.945   0.134 -0.0654  0.0165  0.0951
 5975W        W21444  14.060  17.835   5.130 -0.2340  0.2165  0.1188
 5976W        W21445  11.170  16.037  11.741 -0.1312  0.0239 -0.1287
 5977W        W21446  15.667  14.073  10.774 -0.1771 -0.2632 -0.0082
 5978W        W21447   6.240  10.903   1.620  0.0052  0.0248 -0.1526
 5979W        W21448   7.449   5.156  11.616  0.3163  0.0857 -0.0980
 5980W        W21449  12.179   1.782  11.133 -0.0778  0.0548 -0.0869
 5981W        W21450  13.271   7.931   5.085  0.2923  0.1477 -0.0324
 5982W        W21451   1.398  12.756   4.960 -0.0639 -0.0341 -0.0576
 5983W        W21452  11.911   8.917   1.133  0.4235  0.3672  0.0248
 5984W        W21453   5.608  17.870   1.413 -0.3949 -0.1762  0.1130
 5985W        W21454  15.019   2.284  10.709 -0.1932 -0.1639 -0.2262
 5986W        W21455  17.163   5.519  13.167 -0.0813 -0.1922  0.0453
 5987W        W21456   8.444  14.002   3.294 -0.1303  0.0190  0.1027
 5988W        W21457  15.190  11.132   4.863 -0.0595 -0.1036 -0.2588
 5989W        W21458  13.036   8.482  11.790  0.0450  0.0646  0.2437
 5990W        W21459  14.230   3.454   3.849 -0.1231  0.0090 -0.0913
 5991W        W21460  10.906   4.305  10.945 -0.2597  0.1002  0.2523
 5992W        W21461  16.211   4.316   3.413  0.0999 -0.1499  0.0246
 5993W        W21462   3.052   2.608  13.845  0.2524  0.0783 -0.1494
 5994W        W21463  18.611  13.110   0.661  0.0252  0.1109  0.0953
 5995W        W21464  18.515   8.734   2.560 -0.2686  0.1845  0.1439
 5996W        W21465   1.649   1.038   1.413 -0.1889 -0.2106 -0.0179
 5997W        W21466  17.246   8.887  12.150 -0.2769  0.1919  0.0399
 5998W        W21467  11.902   9.392  14.324  0.0106  0.1168 -0.2746
 5999W        W21468   8.905  16.155   4.289  0.0817  0.2316  0.3307
 6000W        W21469   5.810  15.145   9.953  0.1864  0.1495 -0.2759
 6001W        W21470  15.476   8.721   4.060  0.0913  0.1863 -0.4127
 6002W        W21471   0.776   0.484   9.989  0.2757  0.1498  0.2325
 6003W        W21472   2.924  10.460   4.065 -0.2670 -0.0623 -0.1747
 6004W        W21473   3.071   3.495   1.113  0.0543  0.0874 -0.3896
 6005W        W21474   2.929   2.442   0.074 -0.0186  0.2218  0.0952
 6006W        W21475   4.267  13.855  12.427  0.2446  0.1161 -0.2302
 6007W        W21476   7.776  12.196   4.260 -0.0068  0.3136 -0.1285
 6008W        W21477  13.314  10.507   1.147 -0.3294 -0.0541  0.3196
 6009W        W21478   5.095   6.729   2.300  0.2425 -0.0798  0.2562
 6010W        W21479   6.602   0.927  10.846 -0.2217  0.2080 -0.0723
 6011W        W21480   5.894   9.236   4.108  0.5163 -0.0792 -0.0034
 6012W        W21481   9.159   6.983   5.684 -0.2238  0.0871  0.0398
 6013W        W21482  11.332   9.184   9.398 -0.1268  0.1320 -0.0120
 6014W        W21483   1.831  11.984  11.043  0.3487 -0.2172 -0.1824
 6015W        W21484   4.745   7.287   2.860 -0.1573  0.0846  0.2217
 6016W        W21485   7.742   8.439   0.956 -0.0923 -0.3891  0.0917
 6017W        W21486  18.627  17.229  10.343  0.0106 -0.1499 -0.2797
 6018W        W21487   1.171   8.730   4.435 -0.1281  0.2367  0.1931
 6019W        W21488  10.597  13.008   1.170  0.0845 -0.1356  0.1928
 6020W        W21489   9.876  15.062  13.473  0.3260  0.1162 -0.1389
 6021W        W21490  17.920  18.673  14.447 -0.2226  0.1947  0.1345
 6022W        W21491  16.954  16.172  15.133 -0.3276  0.0041 -0.1008
 6023W        W21492   2.790  18.316  15.255  0.3057  0.0690 -0.0036
 6024W        W21493   2.445   5.365  15.340 -0.0952  0.1769 -0.5129
 6025W        W21494  11.029   0.026   2.802 -0.1966 -0.1738 -0.0948
 6026W        W21495  14.797   0.466   4.937 -0.1139 -0.0757  0.1167
 6027W        W21496  12.130   1.604   4.280  0.1373 -0.0719 -0.2868
 6028W        W21497  11.815  17.433   1.763 -0.1375 -0.1909  0.1157
 6029W        W21498  11.656   5.172   3.177  0.0289  0.0686  0.1255
 6030W        W21499  16.506  16.007   4.954  0.1554  0.1962 -0.1407
 6031W        W21500   4.048   1.565   2.370  0.1582 -0.0690 -0.0244
 6032W        W21501   9.343   1.387   3.116  0.4333  0.0618  0.0419
 6033W        W21502   4.687  11.698  12.994  0.0269  0.1563  0.2026
 6034W        W21503  14.477  11.035   4.112  0.0103  0.2054 -0.5433
 6035W        W21504   6.534  17.896   2.667  0.3390  0.1582 -0.3218
 6036W        W21505  11.373  10.576   3.736 -0.2186  0.2399 -0.2993
 6037W        W21506  11.808  11.412   4.969  0.3284  0.0644 -0.5231
 6038W        W21507  12.834   8.251   2.296  0.0535 -0.3057  0.3183
 6039W        W21508  13.083   3.527   9.443 -0.1605 -0.2392 -0.5043
 6040W        W21509  15.874  15.096  12.451 -0.3261  0.0449 -0.0212
 6041W        W21510  18.502  13.304  10.549  0.1965 -0.2549  0.0056
 6042W        W21511   1.979  15.169  14.065  0.1238 -0.0799 -0.0987
 6043W        W21512  15.498   3.994  10.785 -0.1317 -0.5754 -0.1160
 6044W        W21513  18.100   5.792   4.285 -0.1015 -0.1768  0.2421
 6045W        W21514   8.141  11.847  10.545 -0.0704  0.0354  0.0248
 6046W        W21515   8.709  12.009  11.206 -0.2742  0.0483  0.0676
 6047W        W21516  14.130   3.427  10.386 -0.4682  0.2497 -0.2982
 6048W        W21517  15.539   6.409   4.589 -0.1502 -0.0357  0.0855
 6049W        W21518  15.460  11.061  12.729 -0.0238  0.0530 -0.1020
 6050W        W21519   6.250   4.361   4.774 -0.0260  0.1456 -0.1816
 6051W        W21520   8.889  14.679   1.826 -0.2016 -0.2415  0.1922
 6052W        W21521   2.880   9.162  11.854  0.4213 -0.1051  0.2789
 6053W        W21522   2.617  13.603   1.908 -0.0593  0.0722 -0.0144
 6054W        W21523   3.270  13.332  13.346 -0.1696 -0.0500 -0.0043
 6055W        W21524  12.107   7.051   4.944 -0.0686  0.3100  0.0875
 6056W        W21525   4.942   2.232   3.096 -0.1790  0.0319 -0.2476
 6057W        W21526  18.625   4.777   3.704 -0.1156  0.0753  0.2732
 6058W        W21527   4.780   4.076   5.143 -0.0475  0.0359 -0.1430
 6059W        W21528  15.558  10.610  12.396 -0.0130  0.0634  0.3576
 6060W        W21529   7.364  12.611  13.113  0.1632 -0.0276 -0.1739
 6061W        W21530   3.423   1.088   4.044  0.1038  0.1878 -0.1002
 6062W        W21531  16.447   4.226  12.313  0.0353  0.2924  0.3012
 6063W        W21532  14.471   1.041  15.219 -0.2563 -0.3069  0.1296
 6064W        W21533   9.304  12.494  10.296 -0.1632 -0.0856 -0.1511
 6065W        W21534  15.160  11.569   4.619  0.0075 -0.0063  0.0098
 6066W        W21535   7.540  18.215  13.383 -0.1664 -0.0773  0.4344
 6067W        W21536  13.644  10.977  14.098 -0.0587  0.1845  0.2681
 6068W        W21537  12.142  11.911  13.445 -0.3755  0.0585  0.0468
 6069W        W21538  18.242   9.400   0.503 -0.1294  0.0225 -0.0178
 6070W        W21539   2.446   5.812  14.186  0.2664 -0.0263  0.1069
 6071W        W21540  16.096   8.430  15.274  0.1183 -0.1019  0.2797
 6072W        W21541  10.570   2.519   4.612  0.0131 -0.2071 -0.0120
 6073W        W21542   1.223  17.242  15.219 -0.1413 -0.3671  0.1036
 6074W        W21543  10.247   8.977   0.415  0.0540  0.1623  0.3166
 6075W        W21544  11.170  17.405   1.258 -0.3759  0.1379  0.1366
 6076W        W21545   8.268   9.957   4.902 -0.1533  0.2451 -0.4886
 6077W        W21546   2.737  17.418   1.117  0.1613  0.0669  0.0697
 6078W        W21547  14.022   6.857  14.865  0.0252 -0.0011 -0.0756
 6079W        W21548  12.873   0.316  11.143  0.1074 -0.1986  0.1623
 6080W        W21549   8.923  12.000   3.531 -0.0297 -0.2870  0.1135
 6081W        W21550  12.681   8.032   0.794 -0.0276  0.3628 -0.1469
 6082W        W21551  14.462   6.543   1.180 -0.0267 -0.0029 -0.2040
 6083W        W21552   8.741  16.419  10.854  0.0533 -0.3423  0.0464
 6084W        W21553  16.062  12.136  12.668  0.0201  0.0546  0.1029
 6085W        W21554  13.745   1.559   3.928 -0.0277 -0.2386 -0.0581
 6086W        W21555   8.841  11.298   0.610  0.0818 -0.1756 -0.1876
 6087W        W21556  14.156  18.676   4.572 -0.1580 -0.0070  0.0870
 6088W        W21557  15.795   1.992   3.757  0.2269 -0.3620 -0.0773
 6089W        W21558   1.802   2.692  12.584 -0.1203 -0.2354 -0.3348
 6090W        W21559   0.592  10.590  10.302 -0.2785 -0.2404 -0.5101
 6091W        W21560   7.491  14.634  10.930 -0.0446 -0.1950 -0.2259
 6092W        W21561   6.610  15.810  11.848  0.0610 -0.0522  0.1220
 6093W        W21562  16.740   7.921   5.055 -0.2849  0.0907  0.0281
 6094W        W21563   1.454  14.642   5.000 -0.0098 -0.1339 -0.1802
 6095W        W21564  17.597  11.719   5.138 -0.0193  0.2353  0.1019
 6096W        W21565   6.264  17.725  12.143  0.0394  0.1908  0.0416
 6097W        W21566   4.939   1.923   2.106 -0.0596  0.1283  0.1370
 6098W        W21567  17.960  14.669   1.301 -0.2556  0.0021  0.0625
 6099W        W21568   4.751   0.700   0.107 -0.2663 -0.2096  0.2945
 6100W        W21569  18.623  18.369  12.930  0.2535  0.2428 -0.1547
 6101W        W21570  14.656  16.374   4.828 -0.0562  0.1068  0.0343
 6102W        W21571   6.414   6.839  13.990  0.0973  0.3061  0.1285
 6103W        W21572   8.394   0.143   3.446  0.0457 -0.4523  0.0568
 6104W        W21573  14.894   1.935  10.393 -0.0028  0.5177 -0.2517
 6105W        W21574   5.775   2.358  12.303  0.0527  0.0633 -0.1115
 6106W        W21575   3.394  18.339   0.242  0.0089  0.1428  0.2930
 6107W        W21576  18.625  13.956  13.867 -0.2094 -0.2931 -0.1364
 6108W        W21577  13.801  17.083   2.429  0.2044 -0.1043  0.0318
 6109W        W21578  15.976  15.344   4.694 -0.2390  0.0357 -0.0198
 6110W        W21579   6.827  18.743  11.689  0.2258  0.0414 -0.1212
 6111W        W21580  17.830   7.938   0.928  0.0885 -0.1727  0.2994
 6112W        W21581   3.682  16.191  15.313 -0.0626  0.0850  0.2783
 6113W        W21582   5.937   9.615   2.937 -0.1801  0.2773 -0.4580
 6114W        W21583   3.131   5.718  14.966 -0.0794  0.1286  0.1102
 6115W        W21584   8.250  14.407   3.081  0.0784  0.1416  0.1570
 6116W        W21585   2.548  16.249  14.420 -0.1506 -0.2862  0.0206
 6117W        W21586  13.807  11.761  14.592 -0.0684 -0.0850  0.2828
 6118W        W21587  14.628  11.192  12.213  0.1956  0.1547  0.2881
 6119W        W21588  17.412  15.736   9.019  0.3660 -0.0619 -0.3042
 6120W        W21589  18.410  10.771   4.462 -0.0721  0.0515  0.2003
 6121W        W21590   4.203   1.094   3.489 -0.3081 -0.0321 -0.2800
 6122W        W21591   6.729   4.693  12.467 -0.1952 -0.0352 -0.1962
 6123W        W21592   5.620   2.675   5.443  0.0923  0.0961  0.1006
 6124W        W21593  15.579  16.666   2.559  0.1901 -0.0378 -0.0163
 6125W        W21594   1.005   4.268   1.687  0.0028 -0.1114  0.3600
 6126W        W21595  17.998  15.815  14.765 -0.1360  0.0555  0.2288
 6127W        W21596   9.620  18.535   1.286 -0.0287  0.1052 -0.0837
 6128W        W21597   0.296   4.287  12.101  0.0076 -0.1067 -0.1137
 6129W        W21598  18.414   1.364   3.668  0.0840  0.2903  0.0508
 6130W        W21599  11.640   3.264   1.550 -0.2351  0.1393  0.2888
 6131W        W21600  17.318   0.606  13.936 -0.0902  0.0287 -0.1887
 6132W        W21601  15.156  10.714   4.670  0.3282  0.0975  0.1292
 6133W        W21602   5.463  13.458  14.022 -0.1681  0.1491  0.0268
 6134W        W21603   6.568   9.987  14.732  0.0190  0.0712  0.0432
 6135W        W21604  11.428   5.583   3.530  0.2176  0.0875 -0.0041
 6136W        W21605   0.303   1.474   2.266 -0.1864  0.0031  0.0105
 6137W        W21606  17.573  12.654  11.797 -0.2040 -0.0610 -0.0762
 6138W        W21607  16.556   5.099   0.244  0.2776  0.0702  0.0569
 6139W        W21608   0.661   9.767  10.839  0.0386 -0.3320 -0.1205
 6140W        W21609  14.806   5.359   9.217 -0.1137 -0.1958 -0.0724
 6141W        W21610  17.103   2.617  10.850 -0.1057 -0.2024 -0.0100
 6142W        W21611   5.023  13.290  10.645 -0.1152  0.0835  0.0242
 6143W        W21612  18.912  13.367   2.837 -0.1989 -0.0269  0.1820
 6144W        W21613  11.136  10.975  14.986 -0.2021 -0.2556 -0.0150
 6145W        W21614  11.054   3.979   2.283  0.1628  0.0178 -0.1118
 6146W        W21615   4.112   9.958   2.048  0.0490  0.2801 -0.0075
 6147W        W21616   2.856   0.368  14.524  0.1183 -0.1085  0.1588
 6148W        W21617  16.570   6.604  13.978 -0.0366  0.1505  0.1373
 6149W        W21618   9.054   4.578   4.854 -0.0682  0.1651  0.1954
 6150W        W21619  17.325   4.686   4.040  0.1629 -0.2107 -0.1958
 6151W        W21620   0.468   2.462   3.102 -0.2915  0.2388 -0.4339
 6152W        W21621  13.858   7.156   1.379  0.0873  0.2373  0.0382
 6153W        W21622  12.484   0.976  11.633 -0.1805 -0.1292  0.1935
 6154W        W21623   5.004  15.723  10.726 -0.0681 -0.2772 -0.1108
 6155W        W21624  15.915   8.589   3.746  0.0368 -0.1283  0.1336
 6156W        W21625   2.855  10.089  11.432  0.0379 -0.1520  0.1258
 6157W        W21626  14.828   2.592   4.325 -0.4392 -0.1952 -0.0620
 6158W        W21627   7.987  13.292   2.238 -0.2809  0.3096 -0.0534
 6159W        W21628  13.606   8.070   2.512 -0.3548 -0.0225 -0.0934
 6160W        W21629   3.385  10.743   2.459  0.0062 -0.0125  0.0069
 6161W        W21630   2.918   0.911   3.930 -0.2600 -0.2333 -0.0319
 6162W        W21631  17.573   9.817   4.093  0.0334  0.2192  0.1898
 6163W        W21632  12.519  17.927  13.181 -0.0032 -0.1402  0.1531
 6164W        W21633   8.919   6.380  11.445 -0.1126  0.3041 -0.1010
 6165W        W21634   7.368  13.231   5.734  0.1007 -0.4277  0.0015
 6166W        W21635  16.120   6.061   5.646  0.0809  0.0986  0.0399
 6167W        W21636  16.012   5.500  11.664 -0.0105 -0.0008 -0.1782
 6168W        W21637  16.333  10.464   0.986 -0.3159  0.1374 -0.0713
 6169W        W21638  13.200   3.599   2.422 -0.0925 -0.1228  0.3246
 6170W        W21639   3.845  18.863  13.018 -0.2262  0.2091 -0.0946
 6171W        W21640   8.818   4.103  12.965 -0.1276  0.0190  0.0309
 6172W        W21641   4.390  13.873   3.282  0.3758  0.1753 -0.0386
 6173W        W21642  10.815   8.896  13.066 -0.1466  0.1494  0.1103
 6174W        W21643  10.495   7.148  11.262  0.1214 -0.5079  0.4269
 6175W        W21644   9.961  10.882   1.516 -0.2810 -0.0673 -0.1422
 6176W        W21645  10.718   5.616  11.517  0.2227  0.1226  0.0649
 6177W        W21646  11.018   9.073  11.686  0.0598  0.3099 -0.0303
 6178W        W21647   3.410  14.066  12.658  0.1139  0.2872 -0.1149
 6179W        W21648  18.101  18.242  15.256  0.1454  0.2304  0.0792
 6180W        W21649  14.105  13.599  12.213  0.3281  0.0651 -0.1121
 6181W        W21650  13.527  11.175   0.455  0.3733 -0.2490  0.2688
 6182W        W21651   0.758  12.011  15.304  0.1608  0.4039  0.2780
 6183W        W21652   4.697   5.204   0.032  0.0761 -0.0787  0.1572
 6184W        W21653  10.553  18.722   5.354  0.3825  0.0256 -0.1281
 6185W        W21654  15.626   8.693   1.094 -0.0617  0.0358  0.1946
 6186W        W21655  18.918  15.628  11.627 -0.2003  0.2922  0.2122
 6187W        W21656  17.558  15.174  14.953  0.1133  0.0168  0.2553
 6188W        W21657  10.053   2.129   2.619 -0.0135  0.3802 -0.1221
 6189W        W21658  14.141  17.107  13.678 -0.2457 -0.0677 -0.0710
 6190W        W21659  10.202   3.751   4.220 -0.0829 -0.2399 -0.0076
 6191W        W21660  16.452   9.342   0.438 -0.4610  0.1241  0.0657
 6192W        W21661  15.518  16.473  13.582  0.1287  0.0180  0.1611
 6193W        W21662   5.330   8.228   0.204 -0.0537 -0.2620  0.0213
 6194W        W21663  17.986  18.594   9.755 -0.0807 -0.0274 -0.1581
 6195W        W21664  16.384   9.096   2.475  0.0997 -0.0695  0.1143
 6196W        W21665  10.212   7.637   1.939  0.0739 -0.4269  0.2429
 6197W        W21666   8.257   5.181  12.320 -0.0442 -0.2831 -0.3044
 6198W        W21667   6.572   0.527  14.720 -0.2838  0.1471 -0.0351
 6199W        W21668  17.600   3.865   1.472 -0.1176  0.3739  0.0780
 6200W        W21669   3.469   6.327  11.065 -0.6109  0.2840  0.0537
 6201W        W21670  10.114   0.976  14.134  0.0924  0.1304 -0.1764
 6202W        W21671  18.543   7.618  11.523 -0.2530  0.0834 -0.0028
 6203W        W21672   7.387  12.415  14.081  0.1096  0.1603  0.1068
 6204W        W21673  17.307  17.817  13.886  0.2223 -0.0134  0.0551
 6205W        W21674   3.697   3.468  11.722  0.1507 -0.1607  0.2474
 6206W        W21675   5.884   9.479  11.333  0.2185 -0.3957  0.1152
 6207W        W21676   3.358   2.169  10.675  0.1079  0.2108 -0.2695
 6208W        W21677  17.542   0.839  14.380  0.0816 -0.1956  0.2768
 6209W        W21678   2.643   9.221  14.466  0.4667  0.0152 -0.2442
 6210W        W21679   8.951   3.512   3.109 -0.1830  0.2339  0.1735
 6211W        W21680   3.871   3.096  14.333  0.2612 -0.0092  0.2555
 6212W        W21681  14.268  14.385   5.246 -0.0153  0.1866 -0.2800
 6213W        W21682   1.995  16.727  14.143  0.1584 -0.1228  0.0445
 6214W        W21683  10.616   5.682   1.851  0.2228  0.0679  0.0856
 6215W        W21684  11.280   1.744  12.184  0.1019 -0.2992  0.0984
 6216W        W21685  17.439  12.877   0.784  0.1131 -0.0601  0.1637
 6217W        W21686   6.286   3.814   0.081  0.1133 -0.0885  0.0801
 6218W        W21687  14.035   0.440  14.569  0.0594  0.0280 -0.2677
 6219W        W21688  17.794   8.397   5.008 -0.1409 -0.0467 -0.2642
 6220W        W21689   3.695   7.238   1.318  0.0384  0.1056  0.0262
 6221W        W21690   1.934  10.012   3.006 -0.0126 -0.0583 -0.4508
 6222W        W21691   3.075  15.577  13.384  0.2183 -0.0828 -0.2562
 6223W        W21692   2.434   6.003   3.326  0.1952  0.0192  0.4521
 6224W        W21693  17.507   9.806   5.197  0.0994  0.0120 -0.1797
 6225W        W21694  17.292  10.881  15.013 -0.0029 -0.0077  0.0562
 6226W        W21695  15.356  12.255  14.798 -0.1110  0.1444  0.1495
 6227W        W21696  13.036   3.878  10.835  0.0854 -0.0443 -0.1438
 6228W        W21697   6.935   7.305   4.761  0.1599  0.0078  0.1455
 6229W        W21698  13.584  13.316   0.047 -0.1196 -0.0513 -0.4781
 6230W        W21699  12.699   7.329   1.373  0.1737  0.2790  0.3303
 6231W        W21700   4.782  10.294   5.049  0.0770 -0.1704  0.1353
 6232W        W21701  16.788  15.190  13.999  0.0305  0.0745 -0.0608
 6233W        W21702  15.059  15.070  13.154 -0.1241 -0.1340 -0.1411
 6234W        W21703   1.049   9.538  11.393  0.1499  0.0160 -0.2162
 6235W        W21704  13.633   6.979  14.622  0.0204 -0.2748  0.1806
 6236W        W21705  15.601   4.813   4.043  0.0794 -0.1877  0.0372
 6237W        W21706  18.936   7.246  13.616 -0.2830  0.3656  0.1382
 6238W        W21707  11.437  16.511   2.345  0.1679 -0.0199 -0.0860
 6239W        W21708   2.815  10.949  14.112  0.0821  0.1335  0.0694
 6240W        W21709   8.048   5.079  10.375 -0.1626  0.2723 -0.0815
 6241W        W21710  14.006  15.405   4.798  0.0425  0.0047  0.2713
 6242W        W21711   8.900   1.301   3.474 -0.2889  0.0745 -0.4235
 6243W        W21712  17.532   6.317  11.664  0.1842 -0.1849  0.1177
 6244W        W21713   0.024   7.202   3.542  0.0738 -0.0799 -0.0222
 6245W        W21714  15.355  12.297   2.669 -0.0543 -0.1180 -0.1912
 6246W        W21715  13.698   9.119   9.520  0.1095 -0.2526 -0.1933
 6247W        W21716   2.068   0.194  14.668 -0.0129 -0.1947  0.2146
 6248W        W21717  18.603  14.550   3.104 -0.4284 -0.1505 -0.0022
 6249W        W21718   2.344  15.461   0.637 -0.0191 -0.1395 -0.0136
 6250W        W21719   9.865  15.893  14.293 -0.2072  0.2908  0.1718
 6251W        W21720   8.086  13.991   5.829  0.0573 -0.2550  0.1288
 6252W        W21721   8.407  12.665  14.974 -0.2769  0.0907 -0.0494
 6253W        W21722   5.302  17.335  11.895  0.1211  0.0591 -0.2042
 6254W        W21723  15.792  13.282  13.586  0.1237  0.0129  0.0411
 6255W        W21724  11.673  16.531  10.640 -0.2249 -0.1850 -0.0508
 6256W        W21725  13.304   9.255   0.276  0.3734  0.2064 -0.2180
 6257W        W21726   3.911   3.913  11.838 -0.2132 -0.0516 -0.2629
 6258W        W21727  14.685  18.771  14.252  0.1828  0.0909  0.1107
 6259W        W21728  12.468  18.587  14.811 -0.0542 -0.1804 -0.2882
 6260W        W21729   1.393  11.431  11.121  0.1321  0.1440  0.2276
 6261W        W21730  14.566  17.935   2.635 -0.0688  0.4622  0.0035
 6262W        W21731  12.365   2.791   3.973 -0.0446  0.0469  0.0207
 6263W        W21732   5.560  16.592   4.947 -0.1558  0.1243  0.0170
 6264W        W21733  12.248   8.953  13.254  0.1266  0.1641 -0.0091
 6265W        W21734  10.190  12.604  11.887  0.0786  0.1160  0.2091
 6266W        W21735   5.747  14.384   1.019  0.1544  0.0894 -0.0717
 6267W        W21736  12.468   7.019   2.618  0.0365  0.1557 -0.1497
 6268W        W21737  11.124   1.196   2.432  0.2515  0.0320  0.1968
 6269W        W21738   6.596   0.111  13.754  0.1476 -0.1864 -0.0717
 6270W        W21739  13.385  18.705  15.340 -0.2141 -0.1996 -0.0291
 6271W        W21740   0.215   5.373  14.083 -0.0131 -0.2158 -0.2704
 6272W        W21741   5.674   4.711  12.240  0.0513  0.2212  0.0386
 6273W        W21742   6.869  10.595  11.025  0.1641  0.0550  0.0967
 6274W        W21743  16.675   6.941  10.627  0.0441  0.1775 -0.1236
 6275W        W21744  16.778  18.752   1.486  0.0104  0.0036  0.1795
 6276W        W21745   7.145  12.045   1.928  0.0657  0.0097 -0.1613
 6277W        W21746   3.062   5.320  11.727 -0.3641 -0.1103  0.2601
 6278W        W21747   0.409  14.671   0.198  0.0202  0.1311  0.2635
 6279W        W21748   6.899  14.943  10.919 -0.1515 -0.1108  0.0742
 6280W        W21749   7.573  17.726  11.959 -0.1087  0.1962  0.2924
 6281W        W21750  10.841   3.256  15.331 -0.0513  0.2232  0.1280
 6282W        W21751   7.688   7.147  13.669 -0.1386 -0.1841 -0.3696
 6283W        W21752   4.098   5.776  11.214 -0.3521  0.2876 -0.0918
 6284W        W21753  16.879   3.342  10.430  0.2037  0.1606 -0.2121
 6285W        W21754   8.212   2.945  11.119 -0.1004 -0.1399 -0.1399
 6286W        W21755   3.741   5.673   5.198  0.0886 -0.4157  0.0514
 6287W        W21756  12.766   8.540  14.877 -0.1327  0.1788  0.0028
 6288W        W21757   9.805   8.516  11.262 -0.0699 -0.3800  0.0581
 6289W        W21758  13.686   3.553  12.470  0.0832  0.1179  0.1198
 6290W        W21759   7.316  10.682  10.856  0.3077  0.0319  0.1924
 6291W        W21760   5.965  12.626   4.973  0.0098  0.0725 -0.1101
 6292W        W21761   4.212  17.276  11.867  0.0754 -0.0067  0.1411
 6293W        W21762   1.849   8.506  11.928 -0.1475  0.1825 -0.2872
 6294W        W21763   2.904  10.832  11.151 -0.1410  0.1674  0.2224
 6295W        W21764   9.773  14.410   0.027  0.0911  0.0820  0.0446
 6296W        W21765  12.865  10.177   4.934 -0.2793 -0.0884  0.2268
 6297W        W21766  12.468   7.702  10.476  0.2026 -0.2126 -0.0066
 6298W        W21767  15.410  11.638   3.859  0.2250 -0.3458 -0.0876
 6299W        W21768  13.568   6.219   0.478 -0.2234  0.0308 -0.0249
 6300W        W21769   3.008  18.656   0.112  0.3194  0.1158  0.0058
 6301W        W21770   4.566   9.503   4.452 -0.4138 -0.1975  0.0790
 6302W        W21771   2.609  10.615  10.654 -0.0175 -0.2047  0.1543
 6303W        W21772   6.488  16.085   3.229  0.3160 -0.1484  0.0757
 6304W        W21773   8.049  18.261   1.831 -0.1126  0.3252 -0.1125
 6305W        W21774  14.555  18.098  10.545 -0.0192  0.0616  0.1586
 6306W        W21775   0.747   5.326  11.974 -0.2544  0.2357  0.1841
 6307W        W21776  13.415  15.211   0.602 -0.1184 -0.0560  0.1605
 6308W        W21777   9.574   5.127   0.928  0.1801 -0.1379 -0.3444
 6309W        W21778  15.541   0.537   1.277  0.3346  0.2157 -0.0474
 6310W        W21779   4.624  10.126  10.546 -0.1752  0.1339 -0.1302
 6311W        W21780  16.474   0.777   2.789 -0.0369  0.4316  0.0169
 6312W        W21781  12.430   3.121   9.784 -0.2416 -0.2824  0.2039
 6313W        W21782  17.323  17.430   1.081 -0.4544  0.1937 -0.0663
 6314W        W21783   9.132  16.831   1.126 -0.0520 -0.2404  0.0823
 6315W        W21784   6.922   0.529  15.129  0.0657  0.1607 -0.1634
 6316W        W21785   8.323  10.472  13.420 -0.0359  0.0252 -0.2267
 6317W        W21786   7.150   2.598   2.514  0.3241  0.1802  0.0630
 6318W        W21787   2.651   9.647  11.244 -0.1080 -0.0996 -0.1181
 6319W        W21788  10.965   6.907  14.716  0.3359 -0.0053 -0.3350
 6320W        W21789   8.307   2.008   5.101 -0.0247 -0.0751 -0.3077
 6321W        W21790  16.734  10.695  12.502 -0.1974  0.1398  0.0934
 6322W        W21791  13.592   4.483   4.802  0.0096  0.2429 -0.6224
 6323W        W21792  17.237   9.397   2.256 -0.1858 -0.3523  0.0925
 6324W        W21793   2.214  17.308   5.068 -0.1323 -0.3888 -0.0517
 6325W        W21794  15.390   6.116   0.629 -0.2055 -0.3710 -0.4556
 6326W        W21795  14.916   4.098   1.912 -0.1722 -0.0473 -0.0656
 6327W        W21796   7.497   0.321   5.487 -0.0098 -0.1956 -0.2328
 6328W        W21797   7.413  11.439  11.605 -0.2815 -0.1691  0.1872
 6329W        W21798  15.422   4.303  13.068  0.1759 -0.3774 -0.3189
 6330W        W21799  14.933   9.260   0.834  0.1905 -0.0351  0.3015
 6331W        W21800  14.135   6.427  14.647 -0.1763 -0.0338  0.1031
 6332W        W21801   3.605   9.730   1.403 -0.0065 -0.0862  0.0022
 6333W        W21802   3.960   8.271  10.891  0.3969 -0.1380  0.0846
 6334W        W21803  16.580  18.157  12.322 -0.0526 -0.0412 -0.0904
 6335W        W21804  16.198  17.092   3.217 -0.1528 -0.1274  0.4666
 6336W        W21805   4.196   5.608   3.793 -0.1948  0.0615  0.1421
 6337W        W21806  13.328   9.296  11.964  0.4826 -0.3445 -0.4836
 6338W        W21807   6.568   8.077  10.673  0.3794  0.0401  0.3122
 6339W        W21808  18.653  11.344   1.701 -0.0020  0.2888  0.0023
 6340W        W21809   3.479   3.857   5.432 -0.0210  0.4379  0.0510
 6341W        W21810   4.045   3.011   4.646 -0.1680 -0.3758 -0.0349
 6342W        W21811  16.867  12.534   9.875  0.0758 -0.1112  0.2177
 6343W        W21812  17.103   7.373  14.710 -0.2175  0.2348  0.3267
 6344W        W21813   8.159  13.274  14.894  0.0911  0.1415 -0.3087
 6345W        W21814   2.158   4.249  14.943 -0.0004 -0.2464 -0.1254
 6346W        W21815  14.696  12.452  13.357  0.2265 -0.0664 -0.2122
 6347W        W21816   0.019  18.962  11.412 -0.2858  0.0456 -0.2786
 6348W        W21817   9.562  15.785  11.415  0.1729 -0.1404 -0.4266
 6349W        W21818  14.011  12.534   0.962  0.0304 -0.1325 -0.1519
 6350W        W21819   6.281   4.980   3.664  0.0374  0.1905 -0.0267
 6351W        W21820  16.509  13.837   0.427 -0.1140  0.0473  0.0873
 6352W        W21821   2.633  17.856  12.672  0.3228  0.1360 -0.1442
 6353W        W21822   3.226   8.101   5.562  0.1155  0.1656 -0.1220
 6354W        W21823  12.669  14.580  12.908 -0.1457 -0.0266 -0.0012
 6355W        W21824   0.974  16.285   0.105  0.1105 -0.2448  0.1438
 6356W        W21825   7.206  18.294   3.680  0.3826  0.0476  0.1593
 6357W        W21826  10.284  15.096  12.461  0.0415 -0.3096  0.1841
 6358W        W21827  16.788   0.373  12.750  0.3173 -0.1904 -0.0183
 6359W        W21828   6.263  16.564   4.499  0.2326  0.3148 -0.1261
 6360W        W21829   0.789   3.956   3.474  0.1632 -0.0140 -0.0139
 6361W        W21830   9.439   4.006  10.004 -0.2452 -0.3741  0.0264
 6362W        W21831  15.679  17.972   4.372 -0.2691 -0.0720  0.0534
 6363W        W21832  18.848  17.830   4.242 -0.1634 -0.1504 -0.3743
 6364W        W21833  17.763  18.589   1.491 -0.0215 -0.1115 -0.1452
 6365W        W21834   3.498  15.991  10.978  0.1437 -0.1136  0.1431
 6366W        W21835   6.846  10.331   1.058 -0.1408  0.2645 -0.1566
 6367W        W21836   5.075  15.811  12.523  0.0751 -0.2047 -0.0424
 6368W        W21837   2.447   7.545   1.164  0.2846  0.0259 -0.1437
 6369W        W21838  10.526  14.261  12.883  0.0399  0.1727  0.1810
 6370W        W21839  18.717  11.024  13.338  0.0433 -0.1345  0.1836
 6371W        W21840   7.694   2.170   4.529 -0.1313 -0.0359 -0.4366
 6372W        W21841   1.003   9.361   3.761 -0.0243  0.0116  0.0936
 6373W        W21842  18.043   0.087  10.557 -0.4479 -0.4023 -0.0514
 6374W        W21843   9.248   9.106  13.302 -0.0506 -0.1618 -0.0187
 6375W        W21844  15.765   8.800  11.717  0.3213  0.0997  0.3375
 6376W        W21845  10.477   0.976   5.078 -0.2715  0.2917  0.0947
 6377W        W21846   6.852   9.005   2.438 -0.2022 -0.0096 -0.0844
 6378W        W21847  18.512  11.393   0.246  0.2551 -0.1390 -0.0001
 6379W        W21848  12.091  14.952   3.477  0.0212 -0.0131 -0.2256
 6380W        W21849   6.632   7.503   1.172  0.0055  0.1828 -0.0457
 6381W        W21850  12.010  10.164  15.124  0.1683 -0.2736  0.0452
 6382W        W21851  10.844   2.436   2.192 -0.1736 -0.0159  0.4505
 6383W        W21852   6.288  10.778  12.593 -0.2757  0.2683 -0.1394
 6384W        W21853   6.602  18.291  13.001 -0.1433  0.0096  0.0104
 6385W        W21854  17.735  17.252   3.897 -0.2625 -0.0339 -0.0080
 6386W        W21855   3.534   2.593  13.829 -0.2733  0.1031 -0.0069
 6387W        W21856   9.622  15.244  13.085  0.1119 -0.0963  0.0931
 6388W        W21857   4.273   0.263   3.033  0.1727  0.2566  0.1989
 6389W        W21858  16.851  13.973  11.180 -0.2038  0.1395 -0.3562
 6390W        W21859   3.041   8.734  11.604 -0.3915  0.0478  0.1008
 6391W        W21860  14.815   9.998   2.507 -0.0220  0.0824 -0.0502
 6392W        W21861   1.467   5.458  13.355  0.0138 -0.3851  0.2710
 6393W        W21862  12.540   1.718   4.678 -0.0385  0.1840  0.0027
 6394W        W21863   2.363  15.232   9.830  0.0708 -0.0468  0.2135
 6395W        W21864   3.623   9.118  10.555  0.2540  0.2867 -0.0708
 6396W        W21865  15.263   5.793   0.966 -0.2583  0.1175  0.0958
 6397W        W21866   9.633   0.965   5.389 -0.0373 -0.1268 -0.0173
 6398W        W21867   1.503   9.095   5.024  0.1098  0.2188 -0.1509
 6399W        W21868  12.824   9.475  14.819  0.1313 -0.1393  0.2393
 6400W        W21869  13.222  11.345   1.652  0.2483 -0.0023 -0.0962
 6401W        W21870  12.166   5.906   5.341 -0.1764 -0.0079 -0.3924
 6402W        W21871   4.419   9.543  12.503 -0.2220 -0.1550  0.0007
 6403W        W21872  15.073   0.053  10.079  0.0245  0.0142  0.1652
 6404W        W21873   3.366   2.083  12.603 -0.2373 -0.4925  0.3195
 6405W        W21874   0.157  17.709  11.906 -0.1555 -0.1290  0.1205
 6406W        W21875   1.284   8.531   2.323 -0.0380 -0.0334 -0.0478
 6407W        W21876  18.403   0.363   4.150 -0.2705  0.2292  0.0500
 6408W        W21877  17.235   3.158   1.101 -0.2450  0.0692  0.1680
 6409W        W21878   9.720   6.015  11.491  0.0326  0.2892 -0.0421
 6410W        W21879   1.335   2.445  11.065  0.0263  0.2557 -0.1092
 6411W        W21880   1.463  16.922   4.220 -0.1247 -0.2194  0.3557
 6412W        W21881   4.387   9.277   2.470  0.4486  0.0410 -0.2015
 6413W        W21882   5.031   7.732   9.898 -0.0768 -0.2351  0.0006
 6414W        W21883   5.504  10.489   2.621  0.1351  0.0146  0.1926
 6415W        W21884  10.904  15.062   1.379  0.1773  0.0415 -0.1777
 6416W        W21885  18.698  17.298   3.916 -0.0466  0.2237  0.0980
 6417W        W21886  10.797   5.201  13.353 -0.1710 -0.0278  0.3391
 6418W        W21887  17.103   1.549  10.544  0.3650  0.1370 -0.4550
 6419W        W21888   7.896  14.450  14.301  0.3872 -0.1486 -0.0946
 6420W        W21889   6.230  14.586  12.462  0.0202  0.1624  0.1410
 6421W        W21890   1.757  16.587   2.980  0.0430  0.4611 -0.2236
 6422W        W21891  10.920  15.304  13.061  0.0168  0.0880  0.0170
 6423W        W21892  16.884  17.992   4.054 -0.0286 -0.0058  0.0651
 6424W        W21893  14.849  12.729  13.854 -0.0936  0.0858  0.1561
 6425W        W21894  14.816  12.085   1.148 -0.3517 -0.2336 -0.0022
 6426W        W21895  15.836   6.074  10.879  0.0956  0.1600 -0.1429
 6427W        W21896   4.569  14.423  10.136 -0.0323  0.1102  0.1163
 6428W        W21897   6.939  10.800  14.596 -0.2224 -0.0522 -0.0256
 6429W        W21898   8.108   0.478   1.552  0.3855  0.1950  0.1114
 6430W        W21899  16.306   8.876   5.015 -0.1161  0.1137  0.1996
 6431W        W21900  16.867   0.595   0.525 -0.0567  0.2099  0.2080
 6432W        W21901  10.418  15.143  14.415 -0.1809 -0.0675 -0.0375
 6433W        W21902  15.056   4.393   0.780 -0.1861 -0.0331 -0.0430
 6434W        W21903  11.725  16.589  11.136  0.1068 -0.0624 -0.0339
 6435W        W21904   7.481   3.526   5.914 -0.1498  0.2160 -0.0903
 6436W        W21905  17.429   7.322  13.110  0.0897 -0.3707 -0.0391
 6437W        W21906   7.375   7.495  12.045  0.1847  0.2446 -0.1618
 6438W        W21907  18.100  16.110   3.498 -0.2471 -0.0110  0.1397
 6439W        W21908   0.699   1.348   3.820  0.3960 -0.0868 -0.0733
 6440W        W21909   4.602   4.656  14.548  0.1795 -0.1422  0.2889
 6441W        W21910   2.812   5.436   2.860  0.0431  0.0518  0.0697
 6442W        W21911  18.276  16.772  14.611 -0.0963  0.1732  0.0204
 6443W        W21912   3.715  10.791   1.144  0.0277 -0.2030 -0.1167
 6444W        W21913   5.355   6.511   5.082  0.1448 -0.0451  0.3314
 6445W        W21914   4.543   5.600  10.966 -0.2574  0.1086 -0.2633
 6446W        W21915   2.573   4.316   5.494 -0.0355 -0.0453 -0.0318
 6447W        W21916   7.549   9.664  14.792  0.1386 -0.4669  0.2889
 6448W        W21917  15.085   7.106   4.075 -0.0768 -0.2022 -0.0146
 6449W        W21918  15.563  13.012  14.528  0.3000  0.0193 -0.1082
 6450W        W21919   5.109   7.225   3.264 -0.2941  0.2096 -0.1037
 6451W        W21920  17.955  13.970   0.590 -0.0500  0.0704 -0.2443
 6452W        W21921   3.166   1.598   4.048 -0.0113  0.3909 -0.2096
 6453W        W21922   9.579   7.974  15.352  0.0609 -0.1382  0.1960
 6454W        W21923   5.288  14.690   2.864  0.0558  0.1930  0.2899
 6455W        W21924   6.982  18.219   5.002  0.2466 -0.2668  0.0924
 6456W        W21925  13.166   1.976  14.232  0.2720  0.0827 -0.0315
 6457W        W21926   7.724   4.734   1.695  0.1800  0.3199 -0.1465
 6458W        W21927   0.570   7.295   0.250  0.0635 -0.1603  0.5489
 6459W        W21928  17.190  17.019  10.105 -0.3764 -0.1347 -0.1954
 6460W        W21929   8.272  15.706  11.518 -0.0594  0.0242  0.2797
 6461W        W21930   3.357  14.448   0.621 -0.1888  0.1870 -0.2187
 6462W        W21931  18.446   9.243  13.377  0.0291  0.6407 -0.0935
 6463W        W21932   0.048   5.203   2.952  0.0491 -0.2148  0.0446
 6464W        W21933  14.493   8.116   2.537  0.0946 -0.1796 -0.2297
 6465W        W21934   1.869  16.370  11.141  0.2708 -0.0601  0.3345
 6466W        W21935  16.768   1.658   3.318  0.4454 -0.2336  0.0565
 6467W        W21936   8.564  11.016  11.630 -0.0772  0.1403  0.2248
 6468W        W21937   8.329  17.913   3.416  0.1384 -0.1333  0.1006
 6469W        W21938  12.498   4.430  12.129  0.0505  0.1281 -0.1893
 6470W        W21939   5.601   9.982   0.707 -0.2158  0.0635 -0.1396
 6471W        W21940   3.341  17.703   3.236 -0.1460  0.2588  0.1548
 6472W        W21941  15.830   7.953  13.109  0.0583 -0.4948 -0.1158
 6473W        W21942   5.105  10.047   1.395  0.2082 -0.0963  0.0961
 6474W        W21943  13.787  17.414   3.620 -0.1254 -0.1751 -0.2077
 6475W        W21944  17.058   9.999  11.992 -0.0761 -0.0131  0.0003
 6476W        W21945   9.102   9.779  11.148 -0.1352 -0.2192  0.3239
 6477W        W21946   5.017   3.354   5.702 -0.1639  0.1083  0.1001
 6478W        W21947   8.242  11.618   1.313 -0.1147  0.1897  0.0805
 6479W        W21948   4.081   1.441  15.174  0.0189  0.0533  0.0301
 6480W        W21949   6.508   4.487   1.952  0.0033 -0.1140 -0.0469
 6481W        W21950  10.998   2.104  12.820 -0.1535  0.4180  0.0204
 6482W        W21951   8.272   0.263  11.936  0.0093 -0.0895  0.2567
 6483W        W21952  15.639   7.003   4.059 -0.1822  0.0392  0.1752
 6484W        W21953  18.865   8.809   2.986  0.1333  0.0656 -0.0072
 6485W        W21954  15.590  10.910   5.553 -0.1450 -0.1642  0.2340
 6486W        W21955   9.271  13.938   0.704 -0.2093  0.0336 -0.1733
 6487W        W21956   1.587  13.284   2.806 -0.0634 -0.0686  0.2753
 6488W        W21957   1.410  11.583  13.652 -0.1113  0.2042 -0.0660
 6489W        W21958   1.560   2.015  15.291  0.4910 -0.2427  0.3699
 6490W        W21959   2.018  12.619  15.278 -0.0513  0.1980  0.0951
 6491W        W21960  14.097  18.299   5.902 -0.6031 -0.0278  0.0161
 6492W        W21961   8.026  10.131   3.291 -0.0689 -0.2752  0.0401
 6493W        W21962  16.089   3.239  14.582  0.1801 -0.2198  0.1156
 6494W        W21963  14.520  14.271  11.607  0.2531  0.0415 -0.1628
 6495W        W21964   7.354  17.106   4.406 -0.4027  0.0143 -0.0743
 6496W        W21965  18.563  18.876  14.014  0.3555  0.1150  0.0548
 6497W        W21966   6.902  11.178   2.871 -0.1127  0.0106 -0.0356
 6498W        W21967  10.465   1.232  11.078  0.0723 -0.2043 -0.1494
 6499W        W21968   2.542   0.978   1.524  0.0423  0.0172  0.0271
 6500W        W21969   2.819   2.577   3.887  0.1559  0.0740  0.1407
 6501W        W21970   5.701   3.702   2.447  0.0679 -0.2465  0.1104
 6502W        W21971   8.009   0.502  15.361  0.3436 -0.1069 -0.1441
 6503W        W21972   7.860  10.178   2.806  0.3523  0.0365 -0.2016
 6504W        W21973   7.485  12.696   2.690  0.1601 -0.0317 -0.0041
 6505W        W21974  13.000  10.362  14.096  0.1811  0.0266  0.0214
 6506W        W21975   4.550   6.133   0.420  0.1244 -0.0863  0.0799
 6507W        W21976  14.541  14.807  11.398  0.0404  0.2477  0.2231
 6508W        W21977   5.601  17.915   2.395  0.0385 -0.0903  0.2729
 6509W        W21978  18.110  10.798   1.209 -0.1504 -0.0083  0.0093
 6510W        W21979   8.826  13.141  13.648  0.2145  0.0773 -0.0954
 6511W        W21980   9.695  15.965   3.843 -0.1362  0.3460  0.2487
 6512W        W21981  12.025   7.256  14.294 -0.2032  0.0142  0.2357
 6513W        W21982   2.819   3.306  12.931 -0.1875  0.4431  0.0977
 6514W        W21983  11.061  13.440  11.402 -0.1430  0.3478 -0.1516
 6515W        W21984   3.585  15.277   5.177  0.2049  0.3591  0.1986
 6516W        W21985   8.049  12.581  11.743  0.0220 -0.2141  0.0185
 6517W        W21986   3.813  17.041  13.065  0.1369 -0.0260  0.4451
 6518W        W21987   2.064   4.087   0.043  0.1116 -0.2337  0.1566
 6519W        W21988  12.530  18.632  12.176  0.3063  0.0791 -0.1120
 6520W        W21989  11.230   7.861  10.951 -0.0938  0.0049  0.2786
 6521W        W21990   8.693   9.143  13.550 -0.0688 -0.1081 -0.2198
 6522W        W21991   4.300   7.084  14.361 -0.1210 -0.0980 -0.0055
 6523W        W21992  18.194  15.797  12.621  0.1906  0.2082  0.0087
 6524W        W21993   8.252  18.610   4.661  0.1565 -0.2443  0.1756
 6525W        W21994   7.634   6.934  11.284 -0.1257  0.1024 -0.1459
 6526W        W21995  15.710  16.716   1.899  0.2661  0.4768  0.1075
 6527W        W21996   7.033  18.536  13.091  0.0573 -0.1978 -0.1663
 6528W        W21997   2.341  17.713  13.034 -0.0249 -0.0794 -0.3685
 6529W        W21998   8.895   1.478  13.696  0.1463 -0.1126 -0.1125
 6530W        W21999   0.414  12.321  15.072  0.1999 -0.2472  0.0506
 6531W        W22000  16.735   2.094   2.719 -0.1191 -0.3248 -0.3922
 6532W        W22001  10.029   9.527   4.966 -0.2321  0.2214 -0.2730
 6533W        W22002  11.663   5.766   5.265 -0.2850 -0.0337  0.3184
 6534W        W22003   7.492   2.982   1.767 -0.0267 -0.1863  0.0881
 6535W        W22004  14.434  10.439   9.854 -0.1202  0.1335  0.4284
 6536W        W22005  14.556  14.088   0.257  0.0293 -0.1339  0.0421
 6537W        W22006   3.861   5.115   1.192  0.2301  0.0914 -0.0070
 6538W        W22007   6.717   3.663  13.352 -0.0053 -0.0524  0.1311
 6539W        W22008   7.112  13.418  15.103 -0.1110 -0.0888 -0.6157
 6540W        W22009   8.017  13.145  11.296 -0.0089  0.0931 -0.5149
 6541W        W22010  17.889   1.321   3.740  0.1344  0.2887 -0.0236
 6542W        W22011   1.427  11.212   3.877 -0.0379  0.2991  0.3508
 6543W        W22012   7.406   3.912   1.775 -0.2158  0.0054 -0.3467
 6544W        W22013   8.905   7.381   9.959 -0.3024  0.0160  0.0175
 6545W        W22014  14.061   6.617  11.438 -0.2422 -0.1174  0.0016
 6546W        W22015   0.848   7.104  10.313  0.0493  0.1009  0.1730
 6547W        W22016  15.830   2.754  13.959  0.0666 -0.0295  0.0541
 6548W        W22017   9.155  17.517  13.745  0.1100  0.1187 -0.0831
 6549W        W22018  16.014  13.914   0.282  0.0512  0.1789 -0.1041
 6550W        W22019  10.881  11.019   9.583  0.0791 -0.0211 -0.1889
 6551W        W22020   5.949   9.717   0.975 -0.1129  0.3077  0.1163
 6552W        W22021  14.187   3.194  13.191  0.0168 -0.0397  0.2677
 6553W        W22022  14.594  13.688  12.508  0.0481 -0.0824 -0.0051
 6554W        W22023  11.271  18.803  12.001  0.1938  0.0011 -0.2363
 6555W        W22024   3.758   4.946  10.752 -0.0306  0.4006  0.0958
 6556W        W22025  15.339   4.204   3.959  0.0603  0.1837  0.1751
 6557W        W22026  10.302   1.731  15.155  0.0775  0.3298  0.1719
 6558W        W22027   7.660   0.911  12.188 -0.1066  0.0639  0.1303
 6559W        W22028  10.124   8.786   3.990 -0.2077  0.0667 -0.0467
 6560W        W22029  13.918   0.182  13.511 -0.0894 -0.1260 -0.0149
 6561W        W22030  16.839   9.753   0.930  0.2485  0.0226  0.5001
 6562W        W22031  15.826  11.182   9.832  0.0086  0.1712 -0.2918
 6563W        W22032   9.468  11.708   4.221 -0.4541 -0.2270 -0.0190
 6564W        W22033  17.833  18.306  12.727 -0.3588  0.1947 -0.2367
 6565W        W22034  16.473  17.357  14.505 -0.1137  0.1212  0.2376
 6566W        W22035   9.894  18.725  11.437  0.0797  0.1882  0.3198
 6567W        W22036   4.131   2.534  14.726  0.0428  0.0215  0.1758
 6568W        W22037  12.864   2.884   2.965 -0.0003  0.2047  0.1282
 6569W        W22038   5.856  11.520  15.146 -0.0778  0.0953  0.1551
 6570W        W22039  16.303   0.452   2.398  0.0886  0.2907 -0.2299
 6571W        W22040   3.839   3.059   4.013  0.0766  0.1156 -0.2250
 6572W        W22041   8.367   1.172   0.659 -0.1070 -0.1620  0.0709
 6573W        W22042  17.120   4.753  11.400  0.3836  0.2753  0.1793
 6574W        W22043   7.511  17.019  15.273 -0.0730  0.0882  0.2433
 6575W        W22044   1.221   1.914   4.826  0.1953 -0.1600 -0.0415
 6576W        W22045   9.165   7.714   4.054 -0.0087 -0.3233 -0.1316
 6577W        W22046   8.257   4.964  11.611 -0.0037  0.0282  0.0293
 6578W        W22047   3.804  11.721  15.359  0.1606  0.0290  0.3943
 6579W        W22048   7.385  14.552   3.817  0.0779  0.3916  0.0639
 6580W        W22049   4.780  12.812  14.495  0.2653  0.3541 -0.0355
 6581W        W22050   7.766   4.544  13.626  0.0485 -0.4116  0.0755
 6582W        W22051  11.368  16.937  13.351  0.0537  0.2530 -0.2130
 6583W        W22052  17.364  18.530  13.520  0.0851  0.3092  0.1043
 6584W        W22053   0.876  17.114  13.624  0.1897  0.0012 -0.5393
 6585W        W22054  16.112  11.001   4.475  0.0709 -0.2533  0.5411
 6586W        W22055  18.529   7.288   1.569  0.1193 -0.1485 -0.0364
 6587W        W22056   5.737   5.697   0.767 -0.1053  0.0335  0.1110
 6588W        W22057   4.543   3.521  12.222 -0.0881  0.0782 -0.0829
 6589W        W22058  14.566   1.402   5.022  0.2526 -0.0361 -0.2281
 6590W        W22059   1.649  13.127  10.653  0.1060  0.1053  0.0919
 6591W        W22060  18.307   4.530   5.810 -0.0917  0.1924 -0.1191
 6592W        W22061  17.926  17.808  11.046  0.0463  0.2602  0.1027
 6593W        W22062   3.543   9.691  11.525 -0.3098 -0.1434  0.2686
 6594W        W22063   7.622   6.297  10.617  0.1962  0.0884 -0.2634
 6595W        W22064  10.957  11.841   1.581 -0.1113 -0.4831 -0.2102
 6596W        W22065   7.488   2.635   2.906  0.2070  0.2121 -0.2283
 6597W        W22066  12.151   4.784   9.696  0.0196  0.1772  0.0176
 6598W        W22067  17.087  16.187  10.352  0.0453 -0.6100  0.3415
 6599W        W22068   9.682  13.307   0.899  0.1091 -0.2398  0.2376
 6600W        W22069  15.231  16.961   3.381 -0.0696  0.5034 -0.1401
 6601W        W22070  12.319  13.589   4.936  0.1100  0.1552  0.1196
 6602W        W22071   2.734   5.811  12.495 -0.0540 -0.0414 -0.2633
 6603W        W22072  16.004   4.281  14.477 -0.0776 -0.0985 -0.0814
 6604W        W22073  14.833   9.520  12.314 -0.4705  0.0131  0.2354
 6605W        W22074  11.913   1.745   1.469 -0.0128  0.2270  0.2253
 6606W        W22075  18.625   3.165   5.572  0.0631  0.0312  0.2556
 6607W        W22076  13.247  13.785  12.830  0.0094  0.2290 -0.0281
 6608W        W22077  16.166   0.458   3.469 -0.0973 -0.1796 -0.0586
 6609W        W22078  14.464   5.292   0.675  0.2149  0.0509 -0.1529
 6610W        W22079   5.611   8.999   4.743  0.0725  0.0036 -0.2769
 6611W        W22080   1.296  15.248   5.146  0.2361 -0.1526 -0.2445
 6612W        W22081  10.770   1.944   4.635 -0.2695  0.4675  0.1247
 6613W        W22082   5.073  13.817  14.754 -0.0832 -0.0629  0.2345
 6614W        W22083   8.181  19.023  11.063  0.1774 -0.0585  0.1825
 6615W        W22084  10.160   7.399   0.472 -0.0150  0.2331 -0.0554
 6616W        W22085  18.529  11.765   4.092  0.2359 -0.1423 -0.1643
 6617W        W22086  10.773   9.696  12.494  0.1121 -0.2363  0.2429
 6618W        W22087   8.474  16.730  11.160  0.0472  0.1881  0.1676
 6619W        W22088  16.525   0.706  13.943  0.1514 -0.0966 -0.3002
 6620W        W22089   1.934  16.445  12.471 -0.1545  0.1568  0.0149
 6621W        W22090  18.938   4.221  14.650  0.2885 -0.0894 -0.2985
 6622W        W22091   8.686   0.003   5.667 -0.2054  0.4120  0.2314
 6623W        W22092   1.340   9.209  11.796  0.0296  0.1958 -0.1341
 6624W        W22093  11.547   2.500   3.681  0.1944 -0.1754  0.1964
 6625W        W22094  12.554  12.331  14.385  0.0345 -0.2828 -0.1561
 6626W        W22095   7.678  15.155   1.922  0.1239  0.1511 -0.1126
 6627W        W22096   7.797   5.445  14.880 -0.0133  0.3480 -0.0939
 6628W        W22097  11.933  15.220   4.767 -0.3315  0.1584  0.0802
 6629W        W22098   6.795  14.780   4.407 -0.0686  0.3254 -0.0273
 6630W        W22099  17.490   5.394   1.877  0.0348 -0.1344  0.3101
 6631W        W22100   2.866  11.710   4.393  0.0796  0.2419 -0.0588
 6632W        W22101   3.480  11.270  13.498  0.0214  0.2137  0.0250
 6633W        W22102  15.181   9.367  13.496  0.0662 -0.0801 -0.0655
 6634W        W22103   1.012  13.200   4.803 -0.1775 -0.1924 -0.0212
 6635W        W22104   8.246  14.342  13.492 -0.1367  0.2483 -0.0967
 6636W        W22105   5.700  17.643  11.995 -0.1457  0.0642 -0.1697
 6637W        W22106   0.709   9.983  11.813  0.0757 -0.0971  0.1390
 6638W        W22107  15.668  12.834   4.358  0.0303 -0.1357 -0.1130
 6639W        W22108   1.820   1.017  12.245 -0.2377  0.1976 -0.0136
 6640W        W22109   0.360   8.692   3.427 -0.1982  0.1033  0.2133
 6641W        W22110   4.646  15.278  13.357  0.0383 -0.0332 -0.0053
 6642W        W22111   0.947  19.027   9.448 -0.0704  0.1211 -0.1083
 6643W        W22112  16.272   2.280   4.544 -0.0135 -0.0274 -0.0435
 6644W        W22113  18.137  18.805  10.993 -0.3031  0.3076 -0.1041
 6645W        W22114  10.423   9.173   3.844 -0.0707 -0.0851  0.2824
 6646W        W22115   3.400  15.399   2.005 -0.0982  0.1155 -0.1597
 6647W        W22116  16.200   6.841  13.714  0.0910 -0.1070  0.0811
 6648W        W22117  13.553  13.591   3.765  0.2034  0.0207  0.1931
 6649W        W22118  18.837  11.321   5.761  0.0364 -0.0610 -0.1093
 6650W        W22119   5.486   8.949   1.305  0.0729 -0.1899 -0.3117
 6651W        W22120  16.526  12.888   1.475  0.1695 -0.0528 -0.0896
 6652W        W22121  11.337  10.954   2.515 -0.0285 -0.2918  0.0911
 6653W        W22122  12.176  10.727   4.658  0.1460  0.0327  0.0663
 6654W        W22123   4.492  12.387   3.251  0.1389 -0.1466 -0.0280
 6655W        W22124  16.783  14.272   5.505 -0.2529 -0.1374  0.0017
 6656W        W22125  13.052  10.326   1.882  0.0978  0.1589 -0.3625
 6657W        W22126  13.888   3.907  14.313  0.0747  0.2430  0.2313
 6658W        W22127   8.233  13.528   1.376 -0.1792 -0.0667 -0.1978
 6659W        W22128   2.760   5.123  13.254 -0.0446 -0.1296 -0.0420
 6660W        W22129  15.812  14.044  13.040 -0.1533 -0.1678 -0.2108
 6661W        W22130  18.218   2.655  13.285 -0.2705  0.0158 -0.0278
 6662W        W22131  12.391   2.698   2.904  0.2548 -0.1108  0.0716
 6663W        W22132   7.093   8.356  13.676 -0.1361 -0.0431  0.0262
 6664W        W22133   8.098  18.905   2.368  0.0694  0.1321  0.1913
 6665W        W22134   9.633  11.816   3.025  0.0517 -0.1756 -0.1223
 6666W        W22135  17.435  17.816  11.652 -0.0698 -0.0844  0.5477
 6667W        W22136   0.417  13.789   5.472  0.2564 -0.2781 -0.1619
 6668W        W22137   9.202  14.634  13.636  0.0828 -0.0251 -0.0895
 6669W        W22138  17.385   0.928   2.284 -0.1170  0.0160  0.2569
 6670W        W22139  11.549  10.146  11.330  0.2380  0.0029 -0.2153
 6671W        W22140   2.535  14.403  12.844 -0.1810  0.1862  0.0003
 6672W        W22141  13.338   5.548  14.940  0.5095  0.2820  0.3973
 6673W        W22142   2.166   7.108  14.216  0.0613  0.3365 -0.1530
 6674W        W22143  13.172  13.941  10.524  0.0220  0.0598 -0.1101
 6675W        W22144  13.462   9.750  13.492  0.1887  0.1857 -0.5651
 6676W        W22145   0.197   6.786  14.860 -0.0660 -0.3246  0.2342
 6677W        W22146  17.962  16.166  13.442  0.1324  0.0819  0.0582
 6678W        W22147   5.052  17.693  12.824 -0.2883  0.3305 -0.3197
 6679W        W22148   3.615   6.651   2.368 -0.0525 -0.0855  0.1039
 6680W        W22149  12.992   4.424   3.916 -0.0895  0.0585  0.2123
 6681W        W22150  10.439  10.322  15.053 -0.0183 -0.1717  0.0493
 6682W        W22151   8.291  12.376   2.891 -0.3168  0.4189 -0.1444
 6683W        W22152   2.503  12.065   4.283 -0.2320 -0.1573 -0.1475
 6684W        W22153  11.654  17.668   4.913 -0.1103 -0.0886  0.2486
 6685W        W22154  15.273   7.504  10.253  0.2583  0.0189 -0.1701
 6686W        W22155   6.585   3.756  15.065  0.4618 -0.0446  0.0849
 6687W        W22156  13.078   5.853   5.272  0.0145  0.0142 -0.1657
 6688W        W22157  17.642  10.092   0.614  0.0941  0.0139  0.0397
 6689W        W22158  16.044   5.620   3.541  0.0937 -0.1050  0.0938
 6690W        W22159  12.489   4.498  13.074 -0.0727 -0.2474  0.0079
 6691W        W22160   8.405  14.166  14.507 -0.0638 -0.0162  0.2553
 6692W        W22161  14.049  11.863  10.413  0.1094 -0.2814 -0.3323
 6693W        W22162  13.799  19.014  14.489 -0.4132  0.1771 -0.3483
 6694W        W22163   7.264  13.032   1.319  0.1069 -0.3085 -0.0072
 6695W        W22164  12.216   7.776   0.960  0.0115  0.0952  0.3061
 6696W        W22165  12.575   4.895  12.294  0.1838 -0.0928 -0.3052
 6697W        W22166  15.510  11.619   1.573 -0.1879 -0.0620  0.1713
 6698W        W22167  15.362  10.936   0.856 -0.3087 -0.0584 -0.0248
 6699W        W22168   1.847   5.924  11.114  0.0499  0.1953  0.0463
 6700W        W22169  14.842   8.281  12.381  0.2305  0.0944 -0.0539
 6701W        W22170  16.475   6.433   9.348 -0.1232 -0.0433  0.0436
 6702W        W22171  17.452   7.421   2.440 -0.2349  0.1183  0.3340
 6703W        W22172   6.203  17.082   5.479 -0.1580 -0.3435 -0.2885
 6704W        W22173  10.881  14.643   5.538  0.1068 -0.1034 -0.1355
 6705W        W22174  15.181   1.244  13.016 -0.4402  0.0296 -0.0419
 6706W        W22175   4.850  18.518  13.824  0.4160  0.0106 -0.1053
 6707W        W22176   3.562   7.093  13.853 -0.2138 -0.0615  0.1785
 6708W        W22177  14.633  12.034  11.327 -0.0630 -0.0043  0.0552
 6709W        W22178   6.786  18.113  14.639 -0.0254  0.0578 -0.2616
 6710W        W22179  13.369  14.661   0.724  0.0571 -0.1998 -0.0082
 6711W        W22180  10.839  14.074   2.966 -0.0369 -0.1973  0.2066
 6712W        W22181  15.018  14.641   1.009 -0.0163 -0.0922 -0.0078
 6713W        W22182   0.992  18.953   1.299  0.0143 -0.0090 -0.0367
 6714W        W22183  14.062  10.274   5.553  0.2231  0.1164 -0.1946
 6715W        W22184  11.977  13.287   3.496 -0.0433  0.3000  0.1898
 6716W        W22185   1.043   4.658   5.772  0.2563  0.0793  0.2865
 6717W        W22186   6.607   8.155  13.164  0.2073 -0.1505 -0.0405
 6718W        W22187   4.310  11.696   0.403  0.2007 -0.3573  0.3107
 6719W        W22188   4.259   7.687  12.499 -0.2602 -0.0690 -0.1875
 6720W        W22189  15.187  15.955  14.365  0.1509  0.0178  0.3269
 6721W        W22190  14.294  10.588  14.507 -0.4988  0.1705 -0.0713
 6722W        W22191   7.313   3.919   4.111  0.1617 -0.0103 -0.0372
 6723W        W22192  17.605   1.070   3.232  0.2040 -0.1972 -0.0392
 6724W        W22193   3.454  13.638   0.236  0.1358  0.3790 -0.1530
 6725W        W22194   5.688   8.641  10.801 -0.5063 -0.2978  0.2594
 6726W        W22195   1.031   0.115   0.001  0.3064 -0.0602 -0.0381
 6727W        W22196  14.765  18.307  11.426 -0.2240  0.2397  0.3517
 6728W        W22197   4.041  10.011   4.002  0.0616  0.1888  0.0978
 6729W        W22198  18.221  12.213  15.301 -0.1228 -0.0353  0.0405
 6730W        W22199  14.912   1.316  15.258 -0.0419 -0.0986  0.2105
 6731W        W22200  13.178   2.291   1.916  0.0796  0.0673  0.1429
 6732W        W22201   2.293   7.389  13.828 -0.0568  0.0018 -0.0459
 6733W        W22202  12.756  16.685  10.893 -0.2001  0.1523  0.3388
 6734W        W22203   9.209  14.589  13.140 -0.1833 -0.1175  0.1625
 6735W        W22204   5.056   3.142  14.056  0.1067  0.1327  0.0929
 6736W        W22205   3.664  14.212   9.762  0.2614 -0.1710  0.0304
 6737W        W22206  16.140   8.133  10.600 -0.0196  0.1718 -0.1754
 6738W        W22207   9.439  12.901  11.916 -0.0598  0.1086 -0.0514
 6739W        W22208   6.571  15.911  13.326  0.1163  0.0530 -0.2399
 6740W        W22209  17.727  11.132   4.989 -0.2046 -0.0029  0.1734
 6741W        W22210   7.198   6.764   5.977 -0.1228 -0.0892  0.1138
 6742W        W22211   1.348  13.110   1.342 -0.0181 -0.5036 -0.3997
 6743W        W22212  12.596   5.786   1.426 -0.0711 -0.0237 -0.2186
 6744W        W22213   4.007   7.822   0.074  0.2076 -0.4435 -0.3761
 6745W        W22214  12.871   1.878   1.953  0.0312 -0.1489  0.0940
 6746W        W22215   8.815  16.864   3.556  0.3164 -0.4096 -0.0866
 6747W        W22216   5.389  16.775   3.075  0.0557  0.0288  0.0596
 6748W        W22217   6.837   1.139  13.622 -0.0643  0.1542  0.0908
 6749W        W22218   2.357  17.524   2.959  0.2049 -0.2478 -0.0122
 6750W        W22219  11.424  16.713   0.385  0.2403  0.0550 -0.4307
 6751W        W22220  11.960   4.462  12.226 -0.1759 -0.1612 -0.1624
 6752W        W22221   3.702  16.615   4.312 -0.0200  0.0309 -0.3302
 6753W        W22222   9.265  13.570   0.306 -0.4939  0.1683  0.0742
 6754W        W22223   8.635  10.025   3.073 -0.0999  0.1487  0.0191
 6755W        W22224   8.362  18.193   1.390  0.0087  0.3713  0.1527
 6756W        W22225  16.997  14.117   0.503  0.1849  0.1753 -0.1500
 6757W        W22226   0.608  16.723   0.355 -0.1762 -0.2467  0.0006
 6758W        W22227  13.751   2.883  13.280 -0.0640 -0.0986 -0.2134
 6759W        W22228  13.305   6.994  13.251  0.1881 -0.4471  0.1108
 6760W        W22229   9.014   4.895  15.258  0.0237 -0.0219 -0.2462
 6761W        W22230   1.925  18.299   3.152  0.1549  0.3095 -0.2072
 6762W        W22231   2.807   0.547  10.984 -0.1631 -0.0201 -0.0302
 6763W        W22232   0.684  18.462   2.459 -0.3920  0.0644 -0.2669
 6764W        W22233   7.818  13.496  10.123 -0.1297 -0.1662 -0.0372
 6765W        W22234   0.324  16.100   3.732 -0.2786 -0.1871 -0.1024
 6766W        W22235  15.909   0.367  14.446  0.2064 -0.3377 -0.3454
 6767W        W22236   5.705   6.156   3.901  0.0987  0.0255  0.2213
 6768W        W22237  19.021   7.445   2.449 -0.0457 -0.0959 -0.0504
 6769W        W22238  11.537   1.517  11.638 -0.0251 -0.1121  0.1354
 6770W        W22239   9.754  12.057   4.000 -0.0578  0.2992 -0.1026
 6771W        W22240   6.337   0.919   0.717 -0.0225 -0.1492 -0.0848
 6772W        W22241  12.013  11.432  15.055 -0.0908  0.1080 -0.0942
 6773W        W22242   9.027  14.433   4.964 -0.1158  0.2237  0.1111
 6774W        W22243  16.294  13.853   4.993  0.3185  0.0806  0.2239
 6775W        W22244   2.936  18.466  14.137 -0.0122  0.1690  0.1849
 6776W        W22245   8.521  12.066   0.270 -0.1781  0.1447 -0.0828
 6777W        W22246   8.425  10.271   1.730  0.4605 -0.1274  0.1807
 6778W        W22247   3.190   4.333   1.199  0.1954  0.1495  0.0334
 6779W        W22248   1.641   7.461  10.001 -0.4692  0.1258  0.0572
 6780W        W22249   8.155  17.602   0.242 -0.1447 -0.2032 -0.2915
 6781W        W22250   8.720   9.106  14.030  0.3099 -0.3903 -0.0556
 6782W        W22251  17.525   2.356  10.623 -0.1079  0.2747  0.2065
 6783W        W22252   7.074   9.140   2.841  0.0256 -0.1876 -0.0782
 6784W        W22253  13.737  17.307  12.638  0.2530 -0.0704 -0.2634
 6785W        W22254   7.198   7.068  14.909  0.1935  0.0548 -0.0846
 6786W        W22255  12.364  12.953  10.465  0.1145  0.1243 -0.0827
 6787W        W22256  11.614  12.334   3.047 -0.1884  0.1585  0.1124
 6788W        W22257   0.209  16.079  11.198 -0.0838  0.3194  0.0237
 6789W        W22258  14.969  15.623  11.307 -0.2760  0.0067  0.0066
 6790W        W22259   6.335  12.351   2.082 -0.5412  0.2776 -0.0877
 6791W        W22260  10.242   1.092  12.094 -0.4521 -0.0396 -0.2783
 6792W        W22261   1.925  15.417   2.115 -0.3544  0.1687 -0.1519
 6793W        W22262  15.156   1.344   4.119  0.1212 -0.2022  0.1138
 6794W        W22263  16.873   0.552  13.489 -0.0488 -0.0293  0.0304
 6795W        W22264  12.679   2.028   3.460 -0.0922 -0.2217  0.0931
 6796W        W22265   1.783   5.367  14.734 -0.2206 -0.0443  0.0256
 6797W        W22266  15.034   6.121   2.744 -0.0856 -0.1254  0.1331
 6798W        W22267   9.952  14.505   5.065  0.1271  0.1193 -0.0513
 6799W        W22268   0.568  13.655   3.407  0.1695  0.2238 -0.2112
 6800W        W22269  14.507  17.925   0.086  0.1290  0.2644 -0.0102
 6801W        W22270   4.928  12.670   9.893  0.0703 -0.1500  0.2183
 6802W        W22271   5.160  11.493  14.628  0.2280 -0.0619  0.2012
 6803W        W22272   3.967   3.387   2.659 -0.2431  0.0532  0.0373
 6804W        W22273  17.721   1.586   3.335 -0.0701 -0.1266 -0.0510
 6805W        W22274  16.356   2.382  12.129 -0.0523  0.3419 -0.0492
 6806W        W22275  18.787   5.760   6.076  0.2262  0.1053  0.0939
 6807W        W22276  16.381  13.004   4.614  0.1708  0.1987  0.1503
 6808W        W22277   1.425  14.279   0.882  0.1532 -0.0844 -0.0415
 6809W        W22278   4.290  13.703  11.077 -0.0981  0.0132  0.2192
 6810W        W22279  11.243  10.916  14.302 -0.0124  0.0156 -0.6343
 6811W        W22280   3.388  14.158   2.728 -0.1037 -0.1506  0.2656
 6812W        W22281   3.751  16.177  10.443 -0.1920  0.2787  0.3018
 6813W        W22282   3.363  15.269   1.268  0.0004  0.1505  0.2204
 6814W        W22283   6.300  17.749  13.593  0.1790  0.0129  0.3232
 6815W        W22284   5.954  14.051   1.504  0.1963  0.1230 -0.0219
 6816W        W22285  12.830  17.950   2.577  0.0694  0.0510 -0.4510
 6817W        W22286  18.830  12.524   4.967  0.0999  0.0862 -0.1062
 6818W        W22287  17.668  14.631   5.464 -0.0852 -0.0135 -0.0793
 6819W        W22288  14.845  16.318  14.148  0.3698 -0.1085 -0.1659
 6820W        W22289  18.205   2.794  11.770  0.0287 -0.1113  0.1340
 6821W        W22290  15.368   4.043  14.775 -0.1616 -0.2077 -0.0967
 6822W        W22291   0.248   8.746   2.301 -0.2988 -0.0093 -0.1081
 6823W        W22292   9.102   8.638   2.827  0.1085  0.1477  0.2212
 6824W        W22293  14.639  17.775  12.767  0.2528 -0.0299 -0.0658
 6825W        W22294  14.991  18.731   3.473  0.1537 -0.1297 -0.1514
 6826W        W22295   5.915  16.168   3.201 -0.4748 -0.0217 -0.0908
 6827W        W22296   7.491  10.247   3.138 -0.1918 -0.0842  0.2000
 6828W        W22297  15.623  15.483  10.665  0.5957  0.0634 -0.0992
 6829W        W22298   4.967   8.144  12.084  0.2600 -0.0680  0.1558
 6830W        W22299  11.578  13.916   1.890  0.0833 -0.0066 -0.1110
 6831W        W22300   9.058  14.740  15.123  0.3663 -0.0740 -0.0766
 6832W        W22301  17.743   7.914   9.701  0.1405  0.1619 -0.0374
 6833W        W22302   7.999   5.097   4.636  0.0012 -0.1996  0.4575
 6834W        W22303   4.535  16.615   3.173 -0.0918  0.3204  0.0657
 6835W        W22304   0.188  13.617   3.076  0.1681 -0.0153 -0.1836
 6836W        W22305  15.571   3.132  13.270  0.3036  0.0066 -0.3605
 6837W        W22306  14.976   6.236  15.278 -0.0444 -0.0329 -0.1297
 6838W        W22307   2.937  18.378   1.570 -0.1157  0.0489 -0.1697
 6839W        W22308   9.045  12.109  10.511  0.2925 -0.0752  0.1683
 6840W        W22309  18.677   1.646  14.040 -0.0499  0.3038 -0.0130
 6841W        W22310  15.672   1.350   3.082  0.2401 -0.2310 -0.1830
 6842W        W22311  15.031  12.252  13.744  0.2409  0.0668 -0.1716
 6843W        W22312  11.758  16.593  14.500  0.0218  0.1489 -0.2998
 6844W        W22313   0.454  16.396  11.825 -0.1151  0.3312 -0.0042
 6845W        W22314  17.105  14.905  13.187 -0.0625 -0.4800  0.2138
 6846W        W22315  12.127  11.657  12.977  0.0425 -0.0097  0.0924
 6847W        W22316   8.573   9.102   3.451  0.0836 -0.0350 -0.0016
 6848W        W22317   4.614  11.438  11.177  0.1210  0.0759 -0.0193
 6849W        W22318  16.160  12.256   4.087 -0.2627  0.3536 -0.1268
 6850W        W22319   2.072  12.744  12.438  0.1518  0.1317  0.0192
 6851W        W22320  16.439   2.159  13.921 -0.0910 -0.2438  0.3027
 6852W        W22321   7.762   2.710  10.467  0.1148  0.0356 -0.1071
 6853W        W22322  12.407  10.069   1.010  0.0994 -0.2022  0.1411
 6854W        W22323   0.872  13.983   5.246 -0.2517 -0.0126 -0.1464
 6855W        W22324   5.585   9.847  10.437 -0.1306 -0.0362  0.2637
 6856W        W22325   6.854   1.090   5.550  0.0915 -0.3552  0.1446
 6857W        W22326   9.870  15.382  14.188  0.0765  0.1963 -0.1075
 6858W        W22327  11.022   1.673  13.097 -0.0322 -0.2201 -0.3653
 6859W        W22328   4.936  11.260  12.855 -0.0227 -0.2165  0.1566
 6860W        W22329   1.191   4.390   0.024 -0.0932 -0.0680  0.2575
 6861W        W22330   5.761  11.215  12.326 -0.1427  0.0187  0.2109
 6862W        W22331  13.649  14.350   3.122  0.0240 -0.2706  0.2902
 6863W        W22332  10.705  11.415   2.093 -0.2094 -0.1394 -0.1768
 6864W        W22333   7.493  13.637  14.265 -0.2138 -0.2433  0.0241
 6865W        W22334   8.877   0.013   2.833 -0.1174 -0.2631 -0.1240
 6866W        W22335  15.581   5.756  14.122 -0.2518  0.1692 -0.0069
 6867W        W22336  17.273  15.759   1.665  0.0567 -0.0149 -0.1108
 6868W        W22337   4.582   1.524   9.978 -0.1602 -0.0931  0.0651
 6869W        W22338  18.068   3.226   2.748  0.1146 -0.4722 -0.2673
 6870W        W22339   2.072  12.287   4.522  0.0470  0.0497  0.0932
 6871W        W22340  11.080  11.503   4.337  0.2367 -0.0784  0.0004
 6872W        W22341   8.969   9.992   0.356 -0.0370  0.1888  0.2998
 6873W        W22342   9.527  18.834  11.845  0.0027 -0.3362 -0.2022
 6874W        W22343   4.022  17.650  12.148 -0.0598  0.3583  0.1842
 6875W        W22344   0.960  15.428   1.296  0.0684 -0.2155  0.0871
 6876W        W22345  12.113   1.971   4.650 -0.2171  0.0988 -0.2214
 6877W        W22346  15.351  11.030   3.226 -0.1588 -0.2885  0.2865
 6878W        W22347  14.449   1.285   2.625 -0.1164  0.0842  0.0989
 6879W        W22348  18.183  16.176   4.520 -0.0444 -0.0915 -0.0746
 6880W        W22349   0.132  15.557  11.054 -0.1614  0.0118  0.1031
 6881W        W22350   6.769  11.360  11.594 -0.3149  0.2810 -0.4524
 6882W        W22351  13.702   3.455   2.514 -0.1824  0.1761 -0.1773
 6883W        W22352  11.967  18.055   4.264  0.1007 -0.1158 -0.2210
 6884W        W22353   0.041  10.827   0.676 -0.0625  0.2291  0.0102
 6885W        W22354  16.023   8.930   4.583 -0.1350  0.0451  0.0155
 6886W        W22355   7.689   8.264   3.958  0.2861  0.2420  0.0284
 6887W        W22356  16.847  11.768   0.178 -0.5054  0.0249  0.0168
 6888W        W22357   9.794   3.756   4.621  0.0813  0.2260  0.0698
 6889W        W22358   8.627  12.400   4.762 -0.0054 -0.1943  0.2114
 6890W        W22359   3.866   1.470   1.472  0.1667 -0.4402 -0.3114
 6891W        W22360   7.825  18.802   4.334  0.0708  0.0873 -0.2380
 6892W        W22361   5.761   1.221   2.914  0.2353  0.2492 -0.2773
 6893W        W22362   3.806   3.219  12.987 -0.1848 -0.0705  0.1133
 6894W        W22363  11.252  16.316   0.614  0.1566 -0.1186  0.0056
 6895W        W22364   9.322   2.407  13.654 -0.1768  0.0075  0.0647
 6896W        W22365   4.082  13.361  13.612 -0.1145 -0.0310  0.1997
 6897W        W22366  15.838   5.185   0.756  0.0933 -0.0174 -0.2535
 6898W        W22367  12.764   1.247  13.713  0.0787  0.2769 -0.3188
 6899W        W22368   2.983   0.131   4.554  0.1406 -0.1920 -0.3965
 6900W        W22369   1.876  11.867   4.261 -0.0920 -0.1404 -0.0373
 6901W        W22370   1.551  16.501   0.263 -0.4680 -0.0304 -0.0988
 6902W        W22371   2.571  10.555  14.954 -0.3090  0.1209 -0.0497
 6903W        W22372   3.760  11.756   2.635 -0.0585  0.0808  0.3972
 6904W        W22373   1.648   5.459  12.222  0.3432  0.2430  0.0567
 6905W        W22374   4.901  16.314   2.326  0.2168  0.0150  0.0122
 6906W        W22375   8.187  10.126  14.858 -0.2615  0.1363  0.1878
 6907W        W22376  10.169   1.261   2.169  0.0025  0.0308  0.1660
 6908W        W22377   3.746  16.282   1.210  0.1465  0.0244 -0.0030
 6909W        W22378  13.714  18.198   4.130  0.2368 -0.1728  0.0550
 6910W        W22379   3.449   8.089  12.444 -0.2852  0.0955 -0.0492
 6911W        W22380  10.852  13.018   3.740  0.1904 -0.0935  0.1277
 6912W        W22381  16.488   0.862  12.930 -0.0862 -0.4503 -0.1497
 6913W        W22382   0.483  10.077   4.068 -0.1381 -0.0725  0.2131
 6914W        W22383  14.706   8.206   3.955  0.2300  0.2516  0.3463
 6915W        W22384  11.577  14.975   2.165  0.0549  0.2882  0.0884
 6916W        W22385  14.460   3.000  14.473 -0.0596 -0.0994  0.1742
 6917W        W22386  13.043   9.092  11.369 -0.1069  0.0969  0.0645
 6918W        W22387  16.202  16.211   1.752 -0.2069 -0.0998 -0.1587
 6919W        W22388  12.435   7.099   5.427 -0.0798  0.0813 -0.3840
 6920W        W22389  18.997  15.712   3.696  0.1621  0.1091 -0.1275
 6921W        W22390   5.395   7.174   3.659  0.0443 -0.0063  0.3116
 6922W        W22391   8.782   0.624   2.812  0.3656  0.4998  0.4580
 6923W        W22392  17.528  13.312   4.014  0.1106  0.3103  0.0429
 6924W        W22393  11.594  11.652   2.616  0.1373 -0.0962 -0.0197
 6925W        W22394  18.675  17.731  10.720 -0.2276  0.0528  0.1507
 6926W        W22395  15.605  10.755  10.038  0.1149 -0.0117 -0.0849
 6927W        W22396  10.407   8.630  10.670 -0.1310 -0.0565 -0.1606
 6928W        W22397   2.000  15.227  12.987  0.1741  0.0136 -0.3096
 6929W        W22398  16.162  11.508   4.684  0.0119  0.2450 -0.0650
 6930W        W22399   7.428   5.977  11.659  0.1211 -0.1803 -0.4739
 6931W        W22400   0.662  12.638   2.886 -0.0720  0.0581 -0.0546
 6932W        W22401  13.221  13.943  11.728 -0.3894  0.1062 -0.0374
 6933W        W22402   4.502  18.972   0.776  0.1944 -0.0394  0.1826
 6934W        W22403  17.379   1.749  14.844  0.0050 -0.0383  0.3892
 6935W        W22404   7.105   6.284  11.340  0.0260  0.1886  0.1689
 6936W        W22405  18.414  13.020   3.057 -0.0027  0.1087 -0.2732
 6937W        W22406  15.194   0.626  14.743  0.0260  0.0102  0.1717
 6938W        W22407   6.698   9.137  10.998  0.0117 -0.4731 -0.0955
 6939W        W22408   2.597   8.700  11.184  0.0451 -0.1995 -0.3994
 6940W        W22409   6.902   9.629  11.087  0.1656 -0.3211  0.1461
 6941W        W22410   7.852   7.527   1.790 -0.1185  0.2354  0.0694
 6942W        W22411   8.394   6.951  10.348 -0.0883  0.4073 -0.0747
 6943W        W22412  14.357   9.961  15.163  0.2850 -0.1521  0.2403
 6944W        W22413  12.459  17.750   5.150  0.0918 -0.0694 -0.2443
 6945W        W22414   5.978  12.668   4.478  0.2085 -0.3830 -0.6352
 6946W        W22415  14.381  11.621  14.173  0.4908  0.0539  0.0001
 6947W        W22416   0.480  17.981   1.991  0.0643 -0.1082  0.3345
 6948W        W22417   9.783  18.623   0.632  0.2169 -0.2837  0.4975
 6949W        W22418   6.584   5.042  11.281 -0.0777 -0.4368  0.2627
 6950W        W22419  12.327  14.167   0.310  0.3453  0.1777  0.0824
 6951W        W22420   2.867   9.789  13.238 -0.0554 -0.1384  0.0919
 6952W        W22421  16.425   6.655   5.068 -0.2098  0.2340 -0.2893
 6953W        W22422   1.529  12.738   0.184 -0.0329 -0.2627 -0.3309
 6954W        W22423  14.914  18.300   1.837  0.1572  0.1219 -0.3598
 6955W        W22424  16.241   1.816  10.863 -0.0325  0.0272 -0.0455
 6956W        W22425   4.463  16.072   1.833  0.3046  0.0736  0.4269
 6957W        W22426   5.094   1.105   3.601 -0.1703 -0.1498 -0.0067
 6958W        W22427  11.110   8.930  13.914 -0.3142  0.4280 -0.0034
 6959W        W22428   2.057  12.641   2.799  0.0093 -0.0853 -0.1725
 6960W        W22429   4.700  16.882  12.488  0.1556 -0.0671 -0.0300
 6961W        W22430   8.289   6.806   3.562  0.2199 -0.0915  0.0508
 6962W        W22431   8.505   4.969   1.092 -0.4073  0.2854  0.2502
 6963W        W22432   2.094  14.872   1.789  0.0793  0.3100  0.0443
 6964W        W22433  11.574  10.773   4.213 -0.2283  0.0697  0.1019
 6965W        W22434   1.941  17.576   3.656 -0.2054 -0.2483 -0.3247
 6966W        W22435  18.684   9.539   3.924 -0.0476 -0.0590 -0.1476
 6967W        W22436  10.259   7.335  13.423 -0.1368  0.0135 -0.0720
 6968W        W22437   0.386  15.528  13.156 -0.0847  0.2337 -0.1759
 6969W        W22438  14.030   7.821   2.261  0.0767  0.0218  0.0295
 6970W        W22439  16.755   7.147  10.162 -0.0414  0.0357  0.2225
 6971W        W22440   2.499   3.093   5.970 -0.0913 -0.2259  0.1516
 6972W        W22441   7.002   9.353  10.631  0.1189 -0.1602 -0.3051
 6973W        W22442   6.112   9.424  12.884  0.0280  0.0008 -0.1515
 6974W        W22443   9.438  11.338   2.955  0.4703 -0.1505 -0.1520
 6975W        W22444   5.616   0.463   3.562  0.0139 -0.7329 -0.0467
 6976W        W22445   4.664   1.374  11.148 -0.2408 -0.2668  0.1331
 6977W        W22446   5.431  14.855  13.273  0.4180 -0.0809 -0.1893
 6978W        W22447   8.177   8.633   0.797 -0.0368 -0.3372  0.0122
 6979W        W22448   3.528  13.507  12.835  0.0607  0.1825  0.0240
 6980W        W22449  17.965  15.115   0.307  0.1433  0.3911 -0.1585
 6981W        W22450   4.897  16.846   1.769  0.2195 -0.0111  0.2608
 6982W        W22451   4.343  10.920   1.964  0.0943  0.2351 -0.2483
 6983W        W22452   9.443   0.728   1.830 -0.2420 -0.1710  0.1687
 6984W        W22453   3.179   6.751  12.542 -0.2993 -0.1355 -0.0959
 6985W        W22454   0.699  13.435   5.277 -0.0827 -0.0266 -0.0577
 6986W        W22455   7.985   6.455  12.234  0.0463 -0.0087  0.1852
 6987W        W22456   6.903  16.566  14.619  0.2955  0.3252  0.4493
 6988W        W22457  10.094  16.047   1.139 -0.1279 -0.1677  0.0720
 6989W        W22458   1.596   8.965   4.532 -0.1697 -0.2207  0.2229
 6990W        W22459   3.095   9.913   1.534  0.1302 -0.0046 -0.1284
 6991W        W22460  16.002   1.245   1.772 -0.1551  0.2623 -0.0162
 6992W        W22461  11.582  16.577  13.079 -0.2075 -0.0949 -0.4578
 6993W        W22462   8.067   7.116   0.120 -0.2342 -0.0188 -0.0274
 6994W        W22463  14.984  13.928   2.994  0.1170 -0.1862 -0.0058
 6995W        W22464   0.307   0.057   2.049  0.0979 -0.1009  0.1982
 6996W        W22465   7.895   6.019  13.578 -0.2198 -0.2071 -0.0595
 6997W        W22466  10.528   6.927  10.773 -0.0160 -0.0993  0.3812
 6998W        W22467  10.720  17.943   5.336 -0.0685 -0.2376 -0.0713
 6999W        W22468  13.786   1.199  12.786  0.1561  0.0874  0.1047
 7000W        W22469   6.937   4.792  14.169  0.1471 -0.1439  0.2367
 7001W        W22470  13.709   6.386  13.672 -0.1516 -0.0857 -0.1841
 7002W        W22471   5.591   7.195   4.664  0.0572 -0.0186 -0.1075
 7003W        W22472   9.769   3.501   2.531 -0.0308 -0.0443 -0.1239
 7004W        W22473   8.212  16.515  10.725  0.2413  0.0834  0.0294
 7005W        W22474  18.363  13.554  11.617 -0.0573  0.3742 -0.0098
 7006W        W22475  10.258   4.434  11.925  0.0132 -0.2033 -0.0788
 7007W        W22476   1.358  10.074   4.996  0.1099  0.0581 -0.0278
 7008W        W22477  13.625  16.706   4.234 -0.1290 -0.1052 -0.1843
 7009W        W22478   6.815  10.490  13.059 -0.2239 -0.3349  0.0163
 7010W        W22479   4.447   0.860   3.003  0.0753  0.3225 -0.2991
 7011W        W22480   2.960  10.139   3.079  0.2707  0.5159 -0.0005
 7012W        W22481   8.913  18.690   1.777 -0.0919 -0.0114  0.3169
 7013W        W22482   5.781  14.773  10.372 -0.1434 -0.1198  0.2893
 7014W        W22483  17.224   7.797   5.017  0.1663 -0.2304 -0.1460
 7015W        W22484  13.461   1.112   1.090 -0.0061  0.1910  0.0961
 7016W        W22485   6.253   0.818  12.922  0.0322 -0.0165 -0.2597
 7017W        W22486   3.772  16.666  15.311 -0.3126  0.2850  0.2616
 7018W        W22487   1.362   1.166   5.458  0.1335  0.2250  0.0882
 7019W        W22488   3.238  17.546  10.901 -0.0863 -0.0014 -0.0184
 7020W        W22489   3.324  14.530  14.269  0.0773 -0.0953 -0.0618
 7021W        W22490   0.898  10.444  11.142 -0.0568 -0.0154  0.2217
 7022W        W22491   3.785   7.729  11.279  0.2055  0.0478  0.1666
 7023W        W22492   0.434  13.417   2.228 -0.4108  0.2287  0.1987
 7024W        W22493  13.259  13.553   2.464 -0.0913 -0.2573  0.0622
 7025W        W22494  14.401   5.060  14.762  0.1904  0.1881  0.0237
 7026W        W22495  12.441  14.494  13.782  0.1816 -0.3259  0.1692
 7027W        W22496  18.322   4.016   4.622  0.1918 -0.1966  0.0367
 7028W        W22497   0.196  15.355   4.669  0.3209 -0.1933 -0.0934
 7029W        W22498  13.846  13.267   5.553 -0.2255 -0.3958  0.1182
 7030W        W22499  11.119   5.287  11.487  0.0946 -0.0510  0.0170
 7031W        W22500   6.449  10.853  10.738  0.1240  0.2514  0.0972
 7032W        W22501   2.150  12.117  12.500 -0.1560  0.0789  0.0463
 7033W        W22502   9.563   2.157   2.383 -0.1444  0.2163  0.1423
 7034W        W22503  13.046   7.286   9.692  0.1242 -0.0585  0.1222
 7035W        W22504   6.587  10.501   3.596 -0.0081  0.0779 -0.3476
 7036W        W22505  16.209  17.505   2.457  0.1245  0.4658 -0.0330
 7037W        W22506  14.852   1.959   0.933 -0.1567 -0.1527 -0.0286
 7038W        W22507  11.646  10.573  12.772 -0.0362  0.2712  0.0187
 7039W        W22508   0.898   4.347  13.451 -0.1415 -0.1401  0.0147
 7040W        W22509  11.551  16.896   5.748 -0.2350 -0.0715 -0.1117
 7041W        W22510   0.322   3.735  10.577 -0.0205 -0.2718 -0.1521
 7042W        W22511  12.738   5.081   5.742 -0.0183 -0.1190 -0.1682
 7043W        W22512  17.540  17.859  12.352  0.0442  0.1114  0.2181
 7044W        W22513   5.992  10.278  11.884 -0.1332 -0.0902 -0.1531
 7045W        W22514   9.431  10.090   0.506  0.1782 -0.1942  0.2485
 7046W        W22515  10.294   3.461  12.463  0.0659  0.2286 -0.1694
 7047W        W22516  11.043   7.822   3.256 -0.0361 -0.2708  0.0106
 7048W        W22517   2.350   9.161   3.426 -0.2753  0.0926 -0.0853
 7049W        W22518   1.142   7.491   4.192  0.2041  0.0616 -0.1695
 7050W        W22519  12.065   8.319  11.790  0.2080  0.2063 -0.0570
 7051W        W22520   2.314   5.211  13.483  0.0440  0.2208 -0.0810
 7052W        W22521  13.332  19.010   4.305 -0.1398  0.0409 -0.2526
 7053W        W22522  13.679   1.692  15.343 -0.2633  0.1833 -0.2501
 7054W        W22523  12.389   3.261  14.061  0.0151  0.0931 -0.4637
 7055W        W22524  18.858  15.621  13.185 -0.0298  0.0864  0.3921
 7056W        W22525  18.586   3.501  14.403  0.0840  0.0736  0.0056
 7057W        W22526   8.701  17.866  10.696 -0.1260  0.0912  0.0582
 7058W        W22527   5.812  13.523   2.594  0.2961 -0.3079 -0.1495
 7059W        W22528   3.594  17.067  13.963  0.3105 -0.1669  0.2811
 7060W        W22529  16.721   1.351  10.709  0.1395  0.1535  0.0403
 7061W        W22530  12.794   5.879  12.285 -0.0330 -0.0835 -0.0488
 7062W        W22531   7.907  13.986   2.231  0.1587 -0.0826 -0.0284
 7063W        W22532  18.102  15.616   1.154 -0.0283 -0.1269 -0.0346
 7064W        W22533   7.781   0.823   4.974 -0.1254  0.0745  0.1325
 7065W        W22534  18.043   0.240   2.770 -0.2838 -0.0546  0.3287
 7066W        W22535  16.567  14.300   5.060  0.0522  0.1906  0.1427
 7067W        W22536   8.526  18.352  13.946 -0.0357  0.0470  0.0211
 7068W        W22537   8.079  12.658  12.750 -0.1049  0.1457 -0.1364
 7069W        W22538  12.260  16.800   5.123  0.0944 -0.0418  0.0078
 7070W        W22539  12.170   6.377  12.795 -0.0573 -0.0494  0.1291
 7071W        W22540  14.861  10.284   4.765  0.2085  0.2491 -0.0136
 7072W        W22541  10.070  13.644  13.715 -0.0772 -0.1708 -0.2033
 7073W        W22542  14.010   1.611  13.924  0.0953 -0.0775  0.0695
 7074W        W22543  12.566   8.564   0.373  0.0521 -0.0613 -0.0160
 7075W        W22544   7.981   7.643  15.348  0.0520 -0.0766  0.1242
 7076W        W22545  16.178   8.131   9.659  0.0767  0.1523  0.0311
 7077W        W22546   4.726  17.928  12.437 -0.0953  0.0612 -0.3791
 7078W        W22547  11.577   9.240   0.951  0.0868  0.0633 -0.1040
 7079W        W22548  13.219  18.219   3.691  0.1172 -0.0390 -0.2458
 7080W        W22549  15.716   1.753  10.890 -0.2124  0.1409  0.1848
 7081W        W22550  12.842  11.072  10.414  0.3142  0.0914 -0.1015
 7082W        W22551  10.430  18.990  10.434 -0.0813  0.2762 -0.2391
 7083W        W22552  11.049   3.264   2.759  0.0839 -0.3425  0.0059
 7084W        W22553   0.446  11.592   3.944 -0.2943  0.0096 -0.1830
 7085W        W22554  14.599   4.802   0.768 -0.1067  0.1599  0.0203
 7086W        W22555  13.239   2.931   4.945  0.0668 -0.1228 -0.3661
 7087W        W22556   8.563  13.158  11.126  0.0764 -0.0526  0.1658
 7088W        W22557  18.791   0.426  14.633  0.2134  0.1192  0.0277
 7089W        W22558   3.224   1.263  14.605  0.0417 -0.3445  0.0523
 7090W        W22559   5.203   2.024   2.633  0.0674 -0.0599  0.1787
 7091W        W22560   3.999  16.378  14.966  0.0549  0.0869  0.1870
 7092W        W22561   4.161  16.521   1.826 -0.0228  0.0083  0.0116
 7093W        W22562  16.802  10.518  12.026 -0.3024 -0.1050 -0.0898
 7094W        W22563  10.591   0.197  10.978  0.0307 -0.0407 -0.0962
 7095W        W22564   6.676   1.790   4.808  0.0366 -0.1339 -0.0415
 7096W        W22565   8.889   9.424  11.406 -0.2925 -0.0781 -0.2859
 7097W        W22566  16.152   4.329  13.856  0.3710 -0.0311  0.0531
 7098W        W22567  17.791   6.099  12.129 -0.1521 -0.1064 -0.2536
 7099W        W22568  16.486  14.399  13.424  0.1441 -0.1837  0.3289
 7100W        W22569  10.684  18.100  12.457  0.0569  0.0891  0.1951
 7101W        W22570  11.118  11.451   9.508 -0.2895 -0.4631  0.1724
 7102W        W22571   2.335  14.494  13.329 -0.2029  0.1818  0.2660
 7103W        W22572  10.839   1.032   0.196 -0.2931 -0.1432 -0.0497
 7104W        W22573   6.264  13.058   9.909  0.1212  0.0830  0.4314
 7105W        W22574  18.872  18.678   0.555  0.3333  0.5274  0.1778
 7106W        W22575  11.092  17.532   3.248 -0.2761 -0.0120 -0.1094
 7107W        W22576  16.420  17.014  11.195 -0.1818  0.0062 -0.0226
 7108W        W22577   7.583   7.042   5.775 -0.1338  0.1113  0.2614
 7109W        W22578   2.782   3.327  11.198 -0.1110 -0.1392 -0.0779
 7110W        W22579   7.797  15.348   1.278 -0.3209  0.3375 -0.2732
 7111W        W22580   0.141  11.411   2.524  0.0104 -0.2336 -0.0440
 7112W        W22581   1.590   1.313  12.958  0.0031 -0.3357  0.2846
 7113W        W22582   9.510   2.523   2.780 -0.1311 -0.2636  0.0361
 7114W        W22583   0.327  14.403  12.474 -0.3245 -0.1267 -0.0311
 7115W        W22584  15.082   1.998  13.270  0.0447 -0.0798 -0.0386
 7116W        W22585   7.324   9.203  14.001 -0.1304 -0.0478  0.1484
 7117W        W22586  10.896   5.323   4.098  0.0443  0.0433 -0.2379
 7118W        W22587   1.624   0.730  14.775 -0.2184 -0.1804  0.4786
 7119W        W22588   2.900  12.201  14.695  0.0883 -0.1339  0.3194
 7120W        W22589  16.118   8.914  12.630  0.0599 -0.1805 -0.1775
 7121W        W22590   9.600   0.609  15.098 -0.0338  0.3112  0.0638
 7122W        W22591  17.246   7.722  10.568  0.2876 -0.1559 -0.1110
 7123W        W22592   7.134   6.017   2.981 -0.0843 -0.1493 -0.2082
 7124W        W22593  12.736  10.518   4.493 -0.1954  0.0049 -0.0933
 7125W        W22594   8.704  13.069   3.201 -0.0492 -0.1401  0.0743
 7126W        W22595  12.123   0.705  11.824 -0.1172  0.0878  0.3121
 7127W        W22596   9.135  18.165   0.057 -0.0150  0.1862 -0.0301
 7128W        W22597   4.853  13.802  13.765  0.2608  0.5036  0.0866
 7129W        W22598  14.416   9.301   1.837  0.1926  0.2252 -0.0977
 7130W        W22599   3.519  15.678   4.385 -0.0491  0.2007  0.0956
 7131W        W22600  12.517   4.025  11.767 -0.2138  0.0309 -0.2125
 7132W        W22601   3.212  12.423   5.136  0.1192 -0.2863 -0.0927
 7133W        W22602  11.641   6.751   3.124 -0.1160  0.0842 -0.0713
 7134W        W22603   4.850   4.592   2.802  0.3920  0.0378 -0.1803
 7135W        W22604  11.557   7.869  14.992  0.1569  0.0064  0.1832
 7136W        W22605  15.786   7.186  14.702 -0.1378 -0.0175 -0.1970
 7137W        W22606  17.550  14.317  10.736  0.1105  0.0256  0.3403
 7138W        W22607   8.133  15.362   1.793 -0.3583 -0.2795  0.2006
 7139W        W22608   8.622  18.883  11.428  0.0982  0.1475 -0.2024
 7140W        W22609   3.288  12.416  11.170  0.3164  0.1589  0.0371
 7141W        W22610   2.682  17.900   1.530 -0.1662 -0.0425 -0.0805
 7142W        W22611  11.892  16.600   2.253 -0.0557 -0.3937  0.1539
 7143W        W22612   2.508  14.091  11.383  0.1495  0.0860 -0.0997
 7144W        W22613   4.299  18.742  11.623  0.3152 -0.3383 -0.6401
 7145W        W22614   5.870  12.232   1.309 -0.2224  0.0260  0.0188
 7146W        W22615   5.764  10.911   0.481 -0.1085 -0.0208 -0.0027
 7147W        W22616  17.510   1.312   0.392  0.1111 -0.1472 -0.0277
 7148W        W22617  15.021  10.047   3.162 -0.1522 -0.1444  0.3418
 7149W        W22618   5.957   1.266   5.136  0.0718 -0.1596 -0.2057
 7150W        W22619  11.481  18.590  13.899  0.0133  0.0315  0.1208
 7151W        W22620  13.534  18.031   5.091  0.0961  0.1316  0.3308
 7152W        W22621   3.343  18.951   0.326  0.0218  0.0349 -0.1471
 7153W        W22622  15.857   9.098   1.113 -0.1618 -0.0607  0.0856
 7154W        W22623  14.530   1.694   4.389 -0.2736  0.1169 -0.2617
 7155W        W22624   1.509   6.322  13.269 -0.0217 -0.4559  0.2996
 7156W        W22625   0.360   8.748   0.656 -0.1293 -0.2100  0.1057
 7157W        W22626  17.848  13.562   3.714 -0.4046 -0.1049 -0.2665
 7158W        W22627   4.152   1.726   5.948  0.3339  0.5215  0.2641
 7159W        W22628   6.468  18.632  12.301 -0.0605  0.0975  0.1093
 7160W        W22629   5.936  12.962  12.896  0.1441 -0.2447  0.3414
 7161W        W22630  12.678   5.857   0.479  0.0549  0.1573  0.0144
 7162W        W22631  13.355  10.901   3.053 -0.3924 -0.7301  0.0754
 7163W        W22632  13.903   8.108  12.763  0.1764  0.0620  0.0972
 7164W        W22633  17.260  10.258   2.459  0.1027 -0.4373  0.1420
 7165W        W22634   2.872  18.814   1.935 -0.1292  0.2443  0.0779
 7166W        W22635   1.255   9.285   1.920 -0.0874  0.0954  0.1594
 7167W        W22636   6.097   7.662   5.140 -0.0431  0.0082 -0.2214
 7168W        W22637   6.878  15.613  13.599 -0.3868 -0.0150 -0.1031
 7169W        W22638   1.630   5.081   3.302 -0.3498  0.1453 -0.0280
 7170W        W22639   3.285  17.987   0.695 -0.2766  0.1791  0.0791
 7171W        W22640  17.299  16.077   1.246 -0.2438  0.1648 -0.2620
 7172W        W22641  15.635   4.850  15.267  0.4029  0.0543 -0.2247
 7173W        W22642  17.205   9.742   2.628  0.0678 -0.0770  0.0148
 7174W        W22643  12.069  11.999   0.918  0.3234 -0.1678  0.2867
 7175W        W22644   1.873   2.903   4.888 -0.1638 -0.3634 -0.1125
 7176W        W22645   0.558  11.389   3.324  0.3111 -0.1806 -0.6335
 7177W        W22646   3.669  10.099   5.781  0.1862  0.2472 -0.0417
 7178W        W22647   2.947  11.068   3.096  0.0716  0.4512  0.0347
 7179W        W22648  16.754  12.635   1.910  0.3007  0.2211  0.0383
 7180W        W22649   7.631  10.801  11.261 -0.0628  0.2814 -0.0916
 7181W        W22650   7.173   1.375   3.674 -0.0824 -0.0903 -0.0273
 7182W        W22651   1.694   4.992  13.098  0.2944 -0.1619 -0.0875
 7183W        W22652   2.656  12.256   9.408 -0.1882  0.0958  0.1311
 7184W        W22653  12.682  13.842   3.120 -0.2222  0.4396 -0.0333
 7185W        W22654  15.924  13.578   0.612  0.1267 -0.1775 -0.0094
 7186W        W22655   4.319   1.546  11.512 -0.1087 -0.2492  0.0374
 7187W        W22656  13.791   8.696  10.840  0.1564 -0.1332  0.1556
 7188W        W22657   8.454   2.931   1.795 -0.0009  0.2735 -0.3508
 7189W        W22658   0.842   5.173   1.702  0.4717  0.1544 -0.2229
 7190W        W22659   2.637   0.864  12.151 -0.0216 -0.0799 -0.3758
 7191W        W22660   0.379   6.388  13.612  0.4281 -0.5595 -0.0489
 7192W        W22661  12.310  15.048  13.583 -0.1808 -0.2598  0.0858
 7193W        W22662  15.526  16.494  12.401  0.3016 -0.0522  0.2237
 7194W        W22663  17.938  10.820  11.107  0.3455  0.1378 -0.0559
 7195W        W22664  17.666  17.004  12.873 -0.2419  0.1715 -0.2762
 7196W        W22665  16.154   2.849   4.021  0.0660 -0.0937  0.1250
 7197W        W22666   6.620  16.341  12.545  0.2612  0.0683  0.2857
 7198W        W22667  16.392  14.433   4.517 -0.2046 -0.0633  0.0328
 7199W        W22668  12.280   0.533   0.472 -0.0612  0.3930 -0.1461
 7200W        W22669  11.573   3.274   4.696 -0.1760 -0.3332  0.0041
 7201W        W22670  12.633  15.971  14.719 -0.0405 -0.0193 -0.0231
 7202W        W22671  11.402   0.843   2.586 -0.0871 -0.0743  0.2628
 7203W        W22672   2.590   4.768   1.482  0.2528 -0.3571 -0.4226
 7204W        W22673   7.814   9.050  11.417  0.2266  0.0415 -0.5593
 7205W        W22674   7.145  11.588   0.883 -0.0935 -0.1797  0.0284
 7206W        W22675  16.128   5.514   0.407 -0.2010  0.1616 -0.0309
 7207W        W22676  10.639  17.927   2.377 -0.1881  0.0644 -0.1637
 7208W        W22677  10.685  15.291  13.973  0.0724  0.0571 -0.0090
 7209W        W22678  17.058   1.574  11.045  0.2131  0.0148  0.0660
 7210W        W22679  13.008   9.676   0.462 -0.2543  0.1432 -0.2566
 7211W        W22680   7.866  13.465  13.393  0.0265  0.1741  0.4831
 7212W        W22681  10.645   6.973   4.964  0.0443  0.1150 -0.1397
 7213W        W22682   9.789  13.647   4.686  0.4173 -0.0572  0.0147
 7214W        W22683   7.925  14.710   5.559  0.0955 -0.0514 -0.0960
 7215W        W22684   7.339   2.632  10.661  0.1053 -0.0443 -0.0306
 7216W        W22685  17.717  16.620   0.252 -0.4899 -0.0266  0.2852
 7217W        W22686   7.630   8.859  10.940 -0.1375 -0.0739 -0.0756
 7218W        W22687  15.584   9.834  15.334 -0.1027 -0.0943  0.1438
 7219W        W22688   5.834   6.819   3.850 -0.2392  0.2957 -0.1211
 7220W        W22689   8.104  17.417  13.900  0.0928  0.1107 -0.3107
 7221W        W22690   9.088   8.012   3.549  0.2901 -0.1545 -0.2550
 7222W        W22691   6.700  13.288   2.644  0.2167  0.0787  0.0160
 7223W        W22692   2.463  18.256   0.756 -0.0426  0.2734  0.1119
 7224W        W22693   7.258  18.155   0.208  0.2990 -0.0957 -0.1960
 7225W        W22694  17.091   2.468  13.263 -0.2960 -0.0148 -0.2071
 7226W        W22695  10.720  11.522  11.129 -0.2220  0.0973 -0.2321
 7227W        W22696   5.184   2.368  10.893  0.2236 -0.0604  0.1849
 7228W        W22697  18.708  10.894   0.318  0.3046 -0.2060  0.0702
 7229W        W22698  18.014   6.141  13.456  0.1037 -0.1365  0.2814
 7230W        W22699  10.320   9.541   2.920 -0.1905 -0.4309 -0.0853
 7231W        W22700  14.758  10.643  15.307 -0.2561 -0.1971 -0.1832
 7232W        W22701  16.962   0.818   4.931 -0.1245  0.3181 -0.1202
 7233W        W22702  11.272   9.595  13.421 -0.0537 -0.1288 -0.1561
 7234W        W22703   1.923  14.079  14.249  0.1667  0.1528  0.1742
 7235W        W22704   3.720   4.999  14.258 -0.0724 -0.1482 -0.2159
 7236W        W22705  18.457   4.060   5.640 -0.0273 -0.0676 -0.1379
 7237W        W22706  18.947   8.603  12.974 -0.4522  0.5148 -0.0275
 7238W        W22707  15.662  16.229   4.700  0.0258  0.3067  0.0462
 7239W        W22708  16.412  12.870  11.229  0.0209 -0.1507  0.0160
 7240W        W22709   8.220  16.260  12.999  0.1821  0.3064 -0.3027
 7241W        W22710  10.614  12.294  14.070  0.1107 -0.0834 -0.0714
 7242W        W22711   7.818   6.113  13.097 -0.2725  0.0002  0.1110
 7243W        W22712   7.246  10.552  11.399 -0.1774 -0.0763 -0.2659
 7244W        W22713  12.475  18.560   1.877 -0.2564 -0.0853  0.1365
 7245W        W22714  13.715   3.497  14.008 -0.1123 -0.0122 -0.3802
 7246W        W22715  12.239  14.718   4.718  0.2084 -0.1554  0.1093
 7247W        W22716   1.774  14.275   0.358 -0.1407  0.0770 -0.0850
 7248W        W22717  15.510  16.045   1.337 -0.1754  0.4588  0.0436
 7249W        W22718  12.381  15.543   3.223 -0.0255  0.2173 -0.2654
 7250W        W22719  17.365   9.424  13.463  0.0489  0.0096 -0.2184
 7251W        W22720   9.235   6.771  13.764 -0.1775 -0.0849 -0.3556
 7252W        W22721  19.001   3.968   0.574  0.0149  0.0190 -0.0438
 7253W        W22722   4.363  12.260   2.200  0.1114 -0.1340  0.1590
 7254W        W22723   7.803  13.817   9.764 -0.1953 -0.1503  0.0530
 7255W        W22724   0.347  17.416   0.911 -0.0003  0.3501 -0.1484
 7256W        W22725  13.473  14.702   0.003 -0.2108  0.2834  0.0679
 7257W        W22726  18.282   3.092   1.124  0.2371 -0.3905  0.1319
 7258W        W22727  18.409  17.929   4.558  0.3827  0.0868 -0.0244
 7259W        W22728   2.078   0.965   2.279 -0.2459  0.2241 -0.1923
 7260W        W22729   3.789   1.861  14.512 -0.0881 -0.0325 -0.2938
 7261W        W22730   5.167  13.944   3.876 -0.2380 -0.2425  0.1356
 7262W        W22731   4.143  16.965   3.163 -0.0123 -0.1439  0.0124
 7263W        W22732  13.891   9.038   2.460 -0.1191  0.0311 -0.2448
 7264W        W22733   0.478  18.253   3.889  0.0037  0.2575  0.0003
 7265W        W22734   7.163   8.081  12.008  0.0466  0.1782  0.3890
 7266W        W22735   7.562   3.791   1.180  0.0720 -0.1227 -0.2229
 7267W        W22736  18.402  17.034  14.106 -0.0754  0.1130 -0.0945
 7268W        W22737   7.876  18.686  13.683  0.0694 -0.1807 -0.3112
 7269W        W22738  11.863   6.252   2.649 -0.4353  0.2414  0.0452
 7270W        W22739  15.803  12.607  11.715  0.2825 -0.1124  0.1811
 7271W        W22740  17.764  17.665   1.415  0.0757 -0.0525  0.1215
 7272W        W22741   2.994  17.502   0.337 -0.0667 -0.1212  0.2268
 7273W        W22742  17.533   9.404  10.656 -0.1859 -0.1136 -0.0802
 7274W        W22743  17.412  10.080  11.057 -0.3522  0.1490 -0.0726
 7275W        W22744   2.283  11.755   3.910  0.2832  0.2041 -0.0873
 7276W        W22745   3.266  12.153  13.017 -0.0026  0.4383  0.2318
 7277W        W22746  14.926  13.472  15.229 -0.0791 -0.2009 -0.3082
 7278W        W22747  14.050   7.768  15.109  0.1129 -0.2561 -0.0353
 7279W        W22748  16.603   3.516   0.078  0.0509 -0.2892  0.2256
 7280W        W22749  14.899   4.997  12.146 -0.0061 -0.0556 -0.2393
 7281W        W22750  12.094  11.544  10.536  0.2742 -0.2646  0.2432
 7282W        W22751  14.109  12.903   3.233  0.0168 -0.1386 -0.0999
 7283W        W22752   8.454   0.140   5.247  0.1045 -0.2623 -0.0371
 7284W        W22753  12.163   6.849  12.532  0.0257  0.1489  0.2762
 7285W        W22754  17.596  14.017   2.467 -0.0808 -0.2038  0.1220
 7286W        W22755   4.925  16.724  14.836 -0.2101 -0.1256  0.2763
 7287W        W22756   6.336   8.265   4.219  0.0816 -0.0650 -0.1593
 7288W        W22757   5.051   8.733   3.111  0.1272 -0.1434  0.0194
 7289W        W22758   7.786   2.425  13.732  0.0644  0.0601 -0.0285
 7290W        W22759  12.903   6.091   4.074  0.0787  0.0545  0.2205
 7291W        W22760   5.194  12.259  14.184 -0.0308 -0.1345 -0.2002
 7292W        W22761   7.305   5.177   5.115 -0.0714 -0.0032  0.4175
 7293W        W22762   5.403   1.007  11.808  0.2255 -0.0516  0.2294
 7294W        W22763  10.670  10.488   2.400  0.0363 -0.1389  0.5219
 7295W        W22764  12.233  12.398   3.013  0.2506 -0.0883  0.0021
 7296W        W22765   3.319   0.053  11.340 -0.1344  0.2046  0.4202
 7297W        W22766   9.479   5.020   0.134  0.1484 -0.1373  0.2266
 7298W        W22767   0.491  16.687   4.263  0.1556 -0.1892 -0.1362
 7299W        W22768  13.859  14.479   2.101 -0.0299 -0.0784  0.1669
 7300W        W22769  12.142  13.731  13.851 -0.1931 -0.2740  0.1729
 7301W        W22770  16.342   9.016  11.585  0.0344  0.1629  0.0411
 7302W        W22771  11.185   2.925   2.159  0.1308 -0.1607  0.2976
 7303W        W22772   7.855  18.624   5.728 -0.0066  0.4356  0.3255
 7304W        W22773   5.638   3.518   1.482  0.0477 -0.0753  0.1172
 7305W        W22774   1.102   4.864   3.619  0.1227  0.0529  0.1918
 7306W        W22775   5.869  14.000   2.844  0.0974  0.2749  0.0178
 7307W        W22776   0.481  11.809   3.519 -0.0628 -0.0951  0.0966
 7308W        W22777  16.616   4.478  11.196  0.1309  0.1808  0.5201
 7309W        W22778  17.740  18.576   4.983  0.1071 -0.4192 -0.2679
 7310W        W22779   2.492   6.750  13.904  0.2893 -0.1316  0.0614
 7311W        W22780   1.036   4.771  14.551  0.1161  0.0131  0.1531
 7312W        W22781   4.506  11.392   1.428  0.0767  0.2032  0.2345
 7313W        W22782   1.642   7.963  10.038 -0.0825 -0.1461  0.2652
 7314W        W22783   2.764  14.481  14.169  0.3118  0.0680  0.1445
 7315W        W22784   0.950   7.554  12.231  0.0252 -0.2152 -0.2432
 7316W        W22785   5.342  18.344  13.553 -0.0996 -0.0074 -0.0324
 7317W        W22786   3.800   2.908   5.387  0.2835  0.1132 -0.3890
 7318W        W22787  15.273  10.533  15.090  0.3061 -0.0177 -0.3039
 7319W        W22788   5.721  10.354  11.200  0.0437  0.0015  0.1807
 7320W        W22789  18.599  17.329   3.095 -0.1829  0.1922 -0.0036
 7321W        W22790   9.489  10.453  13.596  0.1318 -0.2589 -0.4429
 7322W        W22791   1.447   5.728  14.905 -0.0453  0.2261 -0.1738
 7323W        W22792   7.068   6.966   0.711  0.2339 -0.2494 -0.0979
 7324W        W22793  13.584   7.854  11.976  0.1370  0.2090  0.3559
 7325W        W22794  14.358   6.821   2.250 -0.1778  0.0495  0.0994
 7326W        W22795  16.482   1.423   0.660  0.0375 -0.3485 -0.0659
 7327W        W22796   8.431   7.280  11.095 -0.1747 -0.2210  0.1220
 7328W        W22797   4.396  15.978   2.292  0.1968 -0.2138  0.3502
 7329W        W22798  11.611  17.019   1.702 -0.0269  0.1777  0.4527
 7330W        W22799  15.877  11.712   4.986  0.1067 -0.1332 -0.0158
 7331W        W22800  15.640  10.778   2.879 -0.4613  0.0218  0.1800
 7332W        W22801  17.932   9.640  14.788  0.0227  0.1084  0.2634
 7333W        W22802  17.508  16.296   4.475 -0.0353 -0.2977  0.2453
 7334W        W22803   7.799   9.078  14.093 -0.2016 -0.1486  0.2922
 7335W        W22804   0.056  18.110   1.762  0.1806  0.0338 -0.2601
 7336W        W22805   2.810  11.065   3.808 -0.2778 -0.4165 -0.1979
 7337W        W22806   0.406   8.733  12.307  0.1231 -0.1714 -0.1490
 7338W        W22807   4.582   0.404  12.096  0.1031  0.3353  0.1124
 7339W        W22808   5.393   5.624   0.407  0.1310 -0.1806  0.1199
 7340W        W22809   8.117   9.266  10.526  0.1281 -0.2468  0.2562
 7341W        W22810  13.560  14.089  13.226  0.0456 -0.0506  0.1692
 7342W        W22811   1.817  12.851   3.674 -0.0716  0.0230 -0.0512
 7343W        W22812   1.711   8.279  12.859 -0.0355  0.0280  0.3970
 7344W        W22813   1.818  15.792  11.121 -0.1494 -0.2189  0.1091
 7345W        W22814  12.585   3.061   4.395  0.0301 -0.0861  0.1652
 7346W        W22815  14.399   0.210   1.736  0.2012  0.2013  0.2875
 7347W        W22816  10.944  13.756  10.980  0.3269  0.0904 -0.2762
 7348W        W22817  13.176  16.825  10.713  0.0544 -0.0035  0.2434
 7349W        W22818   3.244   4.791   2.284  0.1188  0.0322 -0.1636
 7350W        W22819   8.604  15.139  14.467  0.0879 -0.2365  0.1300
 7351W        W22820   0.018  10.094  10.861  0.0538  0.1887  0.1706
 7352W        W22821   3.936  17.226   4.859  0.0464 -0.4003 -0.0640
 7353W        W22822   9.023   1.257   3.934  0.3188  0.0892  0.2437
 7354W        W22823  11.376  17.669   1.608 -0.5125  0.4022  0.2590
 7355W        W22824   8.297   0.476  13.126 -0.0003  0.0613 -0.4541
 7356W        W22825   3.198  11.931  15.002 -0.2178 -0.1628 -0.1889
 7357W        W22826   1.668   5.935  12.421  0.3278 -0.3059  0.0303
 7358W        W22827  11.334  15.448   4.347  0.0993  0.0601 -0.0149
 7359W        W22828  18.246  12.125   2.281  0.1987  0.0849  0.1752
 7360W        W22829   9.448   9.417   3.267 -0.1859  0.0803  0.1242
 7361W        W22830   2.049  16.975   2.815  0.0876 -0.1422 -0.1146
 7362W        W22831   0.844  13.069   9.444  0.0822  0.2109  0.1162
 7363W        W22832  17.286   6.112  12.296  0.1266  0.7234 -0.0738
 7364W        W22833  10.135  13.116  14.332  0.3563 -0.0296 -0.1530
 7365W        W22834   3.613   5.141   2.141 -0.0005  0.0396  0.0251
 7366W        W22835   4.899  14.190  15.070 -0.4246 -0.2052 -0.4240
 7367W        W22836  18.463  13.384  11.082 -0.1492 -0.3306  0.0260
 7368W        W22837  13.059   7.617   4.074 -0.1863  0.0012 -0.0326
 7369W        W22838  17.626   3.841   0.394  0.3172  0.2735  0.0538
 7370W        W22839   8.629  11.843   3.124  0.2658 -0.0369 -0.0518
 7371W        W22840  16.463  18.641   4.424  0.0371  0.0311 -0.3677
 7372W        W22841   2.066   5.829   3.595 -0.1014 -0.0369  0.1093
 7373W        W22842   2.695   1.558  11.425  0.1821  0.1941  0.1277
 7374W        W22843  14.864  11.402   4.085  0.2415  0.0783 -0.2613
 7375W        W22844   2.542   0.066  14.173 -0.1119  0.0231 -0.0050
 7376W        W22845   4.132   6.242   1.275 -0.2043 -0.0538 -0.3754
 7377W        W22846   1.779   5.535   2.209  0.0660 -0.0840  0.1349
 7378W        W22847  13.661  18.632   3.823  0.1335  0.3699  0.3660
 7379W        W22848   5.382  15.676   0.839  0.0521 -0.2200  0.1260
 7380W        W22849  12.268  17.113  13.218  0.0644  0.0591  0.2120
 7381W        W22850   5.427   5.272  11.258  0.2731 -0.1502  0.1514
 7382W        W22851   7.388  15.936   1.979  0.1911  0.0123  0.2085
 7383W        W22852  13.626  17.172  11.818 -0.0347  0.0011 -0.0746
 7384W        W22853  11.720   9.224   2.102 -0.3259 -0.1743 -0.0578
 7385W        W22854  11.096   9.846  11.090  0.1626  0.0899  0.0602
 7386W        W22855  14.341  18.394   2.709 -0.0387  0.2761 -0.0820
 7387W        W22856  14.740   2.103  14.760 -0.2199 -0.1757  0.1294
 7388W        W22857  14.066   3.294  15.157  0.0378 -0.1742 -0.0994
 7389W        W22858   4.669  13.755   1.767  0.0508  0.1525 -0.2125
 7390W        W22859  16.024   6.702  14.743  0.0023  0.0841 -0.2517
 7391W        W22860  11.615  18.474  11.743 -0.0191 -0.0025  0.1844
 7392W        W22861  10.662   7.114   1.821  0.0944 -0.1116  0.0549
 7393W        W22862   1.637  16.845  14.505 -0.2078 -0.2605 -0.3377
 7394W        W22863  13.695  13.601  11.330 -0.0232  0.0262 -0.2824
 7395W        W22864   4.281   0.857  15.136  0.0284 -0.1327 -0.0193
 7396W        W22865   4.643  14.048  14.720  0.2272  0.1055  0.2313
 7397W        W22866  16.712  15.272  13.059  0.1776  0.0224 -0.2880
 7398W        W22867  14.721  18.721  13.662  0.0975 -0.1330 -0.0492
 7399W        W22868   6.643  16.881  11.901 -0.0824  0.1746 -0.3168
 7400W        W22869  18.275  12.978   4.314  0.3289 -0.1861  0.2305
 7401W        W22870   1.602   7.909  14.977  0.0343  0.0134 -0.4543
 7402W        W22871  18.264  11.221  13.906  0.1859 -0.0923 -0.3482
 7403W        W22872  17.328  10.212   3.099  0.2755  0.0586 -0.0260
 7404W        W22873   5.087  11.816   3.860 -0.1296  0.2266  0.0903
 7405W        W22874  11.588  10.223  11.843  0.1716  0.0564 -0.0872
 7406W        W22875  17.178  12.870   2.799 -0.0605 -0.0160  0.2793
 7407W        W22876  10.660   9.801  14.036  0.0244  0.2362 -0.0546
 7408W        W22877  14.531   7.554   0.734 -0.3210 -0.1261 -0.0353
 7409W        W22878  18.156   7.556  10.688  0.1840  0.4692 -0.1571
 7410W        W22879   5.623  15.731   2.348  0.2228  0.0502 -0.2535
 7411W        W22880  17.496   7.291  14.483  0.2548 -0.1952  0.0634
 7412W        W22881   6.648  17.325  10.319  0.2092 -0.2315  0.1100
 7413W        W22882  13.911   9.632   4.348 -0.1301 -0.1913 -0.0341
 7414W        W22883   1.885   7.676  14.124 -0.0954 -0.0478  0.1770
 7415W        W22884   1.397  13.770   5.257  0.2151 -0.0963  0.1098
 7416W        W22885   1.280  14.472   3.529 -0.0661 -0.1436 -0.1010
 7417W        W22886  17.982  12.834   3.066  0.3221 -0.0543  0.1828
 7418W        W22887   4.623   9.228  11.265  0.0626 -0.1633  0.1271
 7419W        W22888  14.076   8.588   3.249 -0.0817 -0.3231  0.0942
 7420W        W22889   7.650   0.800  11.068  0.0405  0.4018 -0.0366
 7421W        W22890   5.628   4.293   0.712  0.0591 -0.1970 -0.0700
 7422W        W22891   4.080   0.372  15.329  0.1846 -0.0087  0.0921
 7423W        W22892  16.157   2.361  14.710 -0.0252 -0.3209 -0.1769
 7424W        W22893   0.964   1.540   2.967  0.0078 -0.0184 -0.0982
 7425W        W22894  12.941   8.193  12.383 -0.1267  0.0524 -0.0867
 7426W        W22895   7.970   5.958  11.749  0.0392 -0.0800 -0.2716
 7427W        W22896  17.984  12.531   3.946 -0.0702  0.1066  0.2785
 7428W        W22897   6.644   7.927  12.247  0.2066 -0.1143  0.0833
 7429W        W22898  16.331  13.477  10.783  0.1256 -0.0379 -0.0094
 7430W        W22899   4.188   7.835  12.975 -0.2068  0.2274  0.1634
 7431W        W22900  10.594  17.471   3.356 -0.0166 -0.2122  0.3008
 7432W        W22901   0.153  17.523  12.930 -0.1633  0.1370  0.0620
 7433W        W22902  15.973   6.609   1.177  0.3871 -0.1217  0.0719
 7434W        W22903   6.699   2.051  14.005  0.0843 -0.0519  0.2126
 7435W        W22904   0.926   9.047  12.991  0.1407 -0.0062 -0.3986
 7436W        W22905  11.933   6.411  12.167 -0.2854 -0.0967 -0.3837
 7437W        W22906  14.722   4.540   2.129  0.0904  0.1538 -0.0676
 7438W        W22907   6.947   7.687  11.852  0.0357  0.1307 -0.0210
 7439W        W22908   7.074   8.115   5.376 -0.1686 -0.0198  0.2993
 7440W        W22909   4.132  16.263  12.926  0.5060 -0.2408 -0.2909
 7441W        W22910  11.714   1.770   5.558  0.0039 -0.0776  0.1528
 7442W        W22911  18.572   5.336   0.884 -0.1683  0.1086  0.0113
 7443W        W22912  11.144   6.037  11.149  0.3035  0.0962  0.1072
 7444W        W22913   1.705  18.846   5.138  0.0248 -0.0190 -0.1468
 7445W        W22914   5.113  16.804  11.011  0.2064 -0.3391 -0.3959
 7446W        W22915   6.716  14.082  11.057  0.1930 -0.0541 -0.0089
 7447W        W22916   1.825   3.117  14.050 -0.1145 -0.0268  0.0353
 7448W        W22917   8.779   8.004   4.824 -0.0062 -0.2839  0.0586
 7449W        W22918  15.517   3.618  15.057  0.2442 -0.1443 -0.1533
 7450W        W22919  10.462  14.231   0.070  0.2675  0.1866 -0.3811
 7451W        W22920   3.367   3.078  14.167 -0.0373 -0.3182  0.0943
 7452W        W22921   4.587   6.536  14.475  0.2709  0.0393  0.0764
 7453W        W22922   1.263   8.432  11.100 -0.0813 -0.0837 -0.0366
 7454W        W22923  13.518   6.295  12.838 -0.0022 -0.1434  0.3405
 7455W        W22924   3.751   3.152  14.821  0.2542  0.0324  0.2670
 7456W        W22925  16.204   1.456  12.370 -0.2079  0.0987 -0.0140
 7457W        W22926   3.277  17.419  14.532 -0.0185  0.1026  0.1957
 7458W        W22927   2.287  10.903  11.865  0.0805  0.2642 -0.0661
 7459W        W22928  16.176   5.349   2.513  0.0186 -0.0706 -0.1372
 7460W        W22929   0.601  10.832  10.753  0.3813 -0.2287  0.1343
 7461W        W22930  18.247   0.781  11.197 -0.1677  0.1112 -0.2099
 7462W        W22931   2.324   0.323  13.518  0.1199 -0.2153 -0.3813
 7463W        W22932  12.613  11.541   0.210 -0.3387 -0.0308  0.1944
 7464W        W22933  13.604  15.923  14.584 -0.0270 -0.0288  0.1860
 7465W        W22934   1.422  16.608  11.263  0.1748 -0.1219 -0.0421
 7466W        W22935  13.643  11.548  13.355  0.0849  0.0119  0.0461
 7467W        W22936   1.865  15.413   4.809 -0.0009  0.6592  0.1053
 7468W        W22937  13.119   4.912   1.663 -0.2307  0.0087  0.4682
 7469W        W22938   6.733  15.604   3.137 -0.2046  0.1244  0.1364
 7470W        W22939   6.498   9.246  12.328  0.0130 -0.0657  0.2630
 7471W        W22940   7.204  10.059   2.128 -0.1317 -0.0301 -0.1175
 7472W        W22941  12.270   8.305   0.057  0.0431 -0.2985  0.3096
 7473W        W22942  13.225  18.659  12.943 -0.0454  0.1044 -0.2270
 7474W        W22943   2.697  12.489   3.971  0.0866  0.1103 -0.1826
 7475W        W22944  18.757   0.455  11.123  0.1606  0.0557 -0.0727
 7476W        W22945  13.979   5.799  11.416  0.0417 -0.2182  0.1814
 7477W        W22946   1.826   3.868  14.929 -0.0897 -0.1054  0.2781
 7478W        W22947   2.270  15.313  10.589  0.0785 -0.0291 -0.0541
 7479W        W22948   6.588   5.795   1.489  0.0714 -0.1028  0.2194
 7480W        W22949  13.079  14.589   4.969 -0.0041  0.0303 -0.1693
 7481W        W22950  13.130  11.464  10.385 -0.0884 -0.1137 -0.0272
 7482W        W22951   1.339  12.172   2.393 -0.0458 -0.1608  0.2911
 7483W        W22952  17.321   1.176  13.777 -0.1389 -0.0273 -0.3263
 7484W        W22953  13.876   9.084   3.287  0.4098  0.3088  0.0900
 7485W        W22954  14.560   3.873  12.915  0.2110 -0.0631 -0.1780
 7486W        W22955  18.364   4.204  10.954  0.1237  0.2686  0.0348
 7487W        W22956  10.172  16.868  10.757  0.2859  0.1636 -0.1320
 7488W        W22957   0.153  16.073  13.077  0.0522 -0.0444 -0.0815
 7489W        W22958  12.894   8.408   0.037 -0.0595 -0.0706 -0.0843
 7490W        W22959  17.867  17.233  13.260 -0.2729 -0.0861 -0.2243
 7491W        W22960  19.033   3.560   2.022 -0.1720  0.0513 -0.0141
 7492W        W22961  10.704   7.186   5.421 -0.2254 -0.0591 -0.0500
 7493W        W22962   2.650  11.018  12.188  0.2026 -0.0732 -0.2184
 7494W        W22963   6.763   9.285  13.338  0.0999 -0.1369 -0.0391
 7495W        W22964  17.387  12.619   0.309  0.1590  0.4178  0.0409
 7496W        W22965   7.409  15.157  10.773  0.2351 -0.5040  0.0631
 7497W        W22966   5.054   4.334   2.010 -0.0208  0.0072  0.0668
 7498W        W22967  15.834   0.353   4.304 -0.1393 -0.5657 -0.0165
 7499W        W22968  15.784  14.519  13.592 -0.1193  0.2481  0.1983
 7500W        W22969  15.781   5.677  10.243  0.0580  0.0685  0.2011
 7501W        W22970   5.261  18.121   1.135  0.0899  0.2270 -0.0455
 7502W        W22971   2.523   8.820   2.426  0.1829 -0.3776  0.0309
 7503W        W22972  10.469  16.704   4.068  0.1712  0.2338 -0.1866
 7504W        W22973  18.583   1.836   5.275 -0.1019 -0.2560 -0.0297
 7505W        W22974   5.399   9.369  15.348 -0.2952  0.1572  0.1248
 7506W        W22975   7.002  14.165   2.892  0.1083 -0.0151 -0.0589
 7507W        W22976   9.006   4.271   2.530 -0.3419  0.2193  0.0716
 7508W        W22977  17.216  13.722   3.411  0.0853  0.3644 -0.0413
 7509W        W22978   9.351   8.575  13.208 -0.1166 -0.1411 -0.0586
 7510W        W22979  15.567   1.924  15.061 -0.2089  0.2504  0.1109
 7511W        W22980  10.484  13.329   0.446  0.3822  0.0570 -0.0909
 7512W        W22981   3.176  17.137   5.388 -0.1057  0.1099 -0.0288
 7513W        W22982  18.382   9.834  14.065  0.0265 -0.3160  0.2336
 7514W        W22983  13.084  13.495   0.065  0.0461 -0.3009  0.3399
 7515W        W22984   0.619   8.524   5.446 -0.0269 -0.1580 -0.0609
 7516W        W22985  11.162   0.330   5.689 -0.0812 -0.1642 -0.1521
 7517W        W22986  12.186  10.900   3.616  0.0690  0.0487 -0.2639
 7518W        W22987   6.583   7.544  12.663 -0.3884 -0.1407  0.1566
 7519W        W22988   1.181   7.844   4.911 -0.1875  0.3128 -0.0548
 7520W        W22989  17.819   4.647   4.161  0.0725  0.0878 -0.1994
 7521W        W22990  14.344  15.183   2.397  0.2729  0.3362  0.0581
 7522W        W22991   5.057  12.003   4.958 -0.1657 -0.3874  0.0616
 7523W        W22992   7.471  11.638   1.815 -0.2544 -0.1719  0.1140
 7524W        W22993   9.300  14.623  14.191 -0.0218  0.3606 -0.0544
 7525W        W22994  10.713   7.836   0.437 -0.2982  0.4084 -0.1862
 7526W        W22995  10.705   5.354  12.864  0.2200 -0.2217  0.0493
 7527W        W22996  16.850   1.970  13.368  0.1121  0.0389 -0.2155
 7528W        W22997   3.677   5.233   3.145 -0.0621 -0.0687 -0.0467
 7529W        W22998  18.323  11.907  10.675 -0.1308  0.0102  0.2461
 7530W        W22999   7.966  14.487   5.050 -0.0078 -0.1813  0.0122
 7531W        W23000   0.431   8.163  11.154 -0.0649 -0.3071 -0.1525
 7532W        W23001   9.133   5.290   2.688  0.1997  0.0944  0.0505
 7533W        W23002  13.667   6.096   2.242 -0.1689 -0.3892  0.4631
 7534W        W23003   8.271   9.295   3.782  0.1550  0.0870  0.1299
 7535W        W23004  10.282  10.471   1.065  0.0975  0.1649  0.0339
 7536W        W23005  15.665   8.130  15.024  0.0170  0.1109 -0.1942
 7537W        W23006   3.682  13.009  13.601  0.1995 -0.1290 -0.2497
 7538W        W23007  11.303   5.898   5.604  0.2487 -0.1248 -0.6106
 7539W        W23008  17.821   2.819   1.965 -0.0097  0.1777 -0.1062
 7540W        W23009  12.321   3.195   0.338  0.3107 -0.1196  0.1053
 7541W        W23010   7.609  10.332  11.137  0.1227 -0.0172 -0.0242
 7542W        W23011  10.095  13.474  11.354 -0.0282 -0.1500  0.0794
 7543W        W23012  16.238  18.946   2.785  0.3358 -0.1736  0.3610
 7544W        W23013  17.511  14.263   0.591  0.3645 -0.0493  0.1689
 7545W        W23014  14.325  11.128   4.698  0.0311 -0.2536 -0.1013
 7546W        W23015   7.751   9.955  10.320  0.0005 -0.0357 -0.2326
 7547W        W23016  14.926  15.253   4.143  0.2415 -0.0463  0.0452
 7548W        W23017   6.324   1.273  15.062 -0.1144  0.1622  0.3179
 7549W        W23018  13.548   5.517  14.319  0.0102  0.3236  0.0205
 7550W        W23019   7.735   8.406   4.892 -0.0305 -0.1928 -0.0211
 7551W        W23020   9.950  13.837   1.315  0.0309 -0.1565 -0.3785
 7552W        W23021  15.022   1.114  10.959 -0.2218  0.1352 -0.1302
 7553W        W23022   7.139  13.686   3.000 -0.2718 -0.0227  0.1539
 7554W        W23023   6.849   9.401  14.364  0.0817 -0.0666  0.2522
 7555W        W23024  15.925  12.722   3.929 -0.2061  0.2691  0.1469
 7556W        W23025   4.334   5.494  13.248  0.0970  0.1191 -0.2724
 7557W        W23026   2.372   9.687   5.861 -0.1055 -0.1266  0.2921
 7558W        W23027  11.455  12.762  14.045  0.2536 -0.3130 -0.1138
 7559W        W23028   9.798   7.015  12.019  0.0006  0.1851  0.0101
 7560W        W23029  11.040  15.553  15.268 -0.0425 -0.0451  0.4165
 7561W        W23030   5.666   7.552  14.482 -0.0570  0.0175  0.0329
 7562W        W23031  14.867  16.737   1.805  0.2425  0.1401  0.1132
 7563W        W23032  15.569  15.050  11.906  0.2553 -0.2787 -0.0534
 7564W        W23033   9.960   7.177   9.638 -0.3010  0.2159 -0.0320
 7565W        W23034   2.630  13.312  14.981  0.1538  0.0407  0.0832
 7566W        W23035  14.749   2.914  11.350 -0.0736 -0.1538 -0.2564
 7567W        W23036  13.917   2.664   2.502 -0.0484  0.1238 -0.2758
 7568W        W23037  14.539   4.534  13.173 -0.0884  0.0823 -0.1043
 7569W        W23038   8.058  10.512  11.170  0.0441  0.0261 -0.0478
 7570W        W23039   0.690   6.803   2.993  0.1902 -0.0265 -0.1516
 7571W        W23040  13.910   8.845   9.977 -0.1429  0.0048  0.0565
 7572W        W23041   4.145  12.521  12.725 -0.2358  0.1061 -0.0878
 7573W        W23042   4.987  11.269  14.247  0.2724 -0.0710  0.1871
 7574W        W23043   1.560   1.248   0.992  0.0649 -0.0179  0.1279
 7575W        W23044   7.549   3.564   5.098  0.0406 -0.2978  0.0022
 7576W        W23045  16.234   2.768   4.586 -0.2528 -0.1797  0.2401
 7577W        W23046   7.819  12.323  13.856  0.1158  0.0608 -0.0844
 7578W        W23047   7.082   4.088   3.679 -0.3212  0.1882  0.0099
 7579W        W23048   3.872   0.908   3.942  0.0985  0.3741  0.0562
 7580W        W23049   6.037  12.126  13.406  0.0653  0.3786 -0.0635
 7581W        W23050   8.551  15.046   4.572  0.0254 -0.0593  0.3658
 7582W        W23051   7.339   4.397   1.585 -0.1899 -0.0815 -0.0241
 7583W        W23052   8.082  14.961   2.110 -0.5594 -0.0871  0.1537
 7584W        W23053  12.910  16.791   2.090  0.0657 -0.2132  0.4447
 7585W        W23054   6.503   3.652   2.419  0.5285 -0.1491 -0.0698
 7586W        W23055  13.624  13.647  10.571 -0.0162  0.2192 -0.0072
 7587W        W23056  11.751   1.663   4.841  0.5145 -0.4818 -0.2815
 7588W        W23057  17.196   4.170  12.991 -0.1694 -0.0386  0.1756
 7589W        W23058   7.218  14.115  15.222 -0.2642  0.0251  0.1083
 7590W        W23059  16.216  11.353  11.845  0.0015  0.0856  0.2134
 7591W        W23060   1.965   4.071  12.395  0.0409  0.0545  0.2673
 7592W        W23061   2.943  16.032   4.091  0.0277 -0.1379  0.3139
 7593W        W23062   5.167   5.753  14.056  0.0418  0.0015  0.2035
 7594W        W23063   6.081   6.108  13.986  0.4022 -0.3704  0.0947
 7595W        W23064   7.299   4.719  15.165 -0.0555 -0.3285  0.0951
 7596W        W23065  11.442   0.381   4.332 -0.0469 -0.0503  0.0879
 7597W        W23066   9.664   0.192  12.686  0.0769  0.0946 -0.0164
 7598W        W23067   8.363  14.578   1.494 -0.1376  0.1545 -0.2927
 7599W        W23068  16.474   9.627   3.674  0.0900  0.2864  0.1364
 7600W        W23069   5.208   2.422  11.662 -0.0228 -0.1214 -0.1612
 7601W        W23070  12.855  11.027  15.360  0.0379 -0.0438 -0.0495
 7602W        W23071   6.410   9.583  14.503  0.2151 -0.0657 -0.0929
 7603W        W23072  14.346   3.961   4.342  0.1764  0.1817 -0.2403
 7604W        W23073   1.022  14.275   1.252  0.0447 -0.1047 -0.0038
 7605W        W23074  11.236   8.469   5.096  0.0203 -0.2778  0.0796
 7606W        W23075  10.408   4.688   3.375  0.0246  0.0626  0.0988
 7607W        W23076  12.048  18.118  13.528  0.0734 -0.1406  0.1105
 7608W        W23077  18.540   4.388   1.560 -0.0511 -0.0212  0.0513
 7609W        W23078  18.349   3.261  11.075 -0.1295  0.1574 -0.0025
 7610W        W23079  13.132   0.019  10.755  0.0463  0.1119 -0.1351
 7611W        W23080  16.241  16.777   1.841 -0.2902 -0.2301 -0.0837
 7612W        W23081   4.618   4.730  15.066 -0.1113 -0.0965 -0.0002
 7613W        W23082  11.568   8.722   2.232 -0.0430 -0.0610 -0.2117
 7614W        W23083  12.553  11.008   4.316 -0.3003  0.2432  0.2371
 7615W        W23084  17.521   5.015  12.187  0.1237 -0.1642 -0.4241
 7616W        W23085   1.028  16.357   1.743  0.0549  0.0798 -0.2238
 7617W        W23086   7.348  11.730   3.076 -0.0283 -0.0318  0.1832
 7618W        W23087   9.977   3.595  12.013  0.3034 -0.1844 -0.0358
 7619W        W23088  10.535   6.385   1.354 -0.4264 -0.1039 -0.3094
 7620W        W23089   8.798  17.473   2.718 -0.0695 -0.2261 -0.1827
 7621W        W23090  14.834   7.865  13.337  0.0478 -0.3966 -0.1666
 7622W        W23091  15.945   1.840   1.678  0.0003 -0.0230 -0.0004
 7623W        W23092   6.845   2.413  14.648  0.1615  0.3675  0.1127
 7624W        W23093  18.780   6.668   3.059 -0.0327 -0.0064 -0.2547
 7625W        W23094  13.221  17.363  12.821 -0.2036  0.1485 -0.1468
 7626W        W23095  11.439  15.565  14.907  0.1376  0.0361 -0.0940
 7627W        W23096   0.886  18.140  10.601  0.1352  0.0538 -0.0874
 7628W        W23097   3.892  12.631  14.921 -0.0056  0.1187  0.1888
 7629W        W23098  12.328   7.138   3.468 -0.1356  0.0218 -0.2136
 7630W        W23099  16.892   5.183  11.619 -0.1861  0.2187 -0.1147
 7631W        W23100   8.407  13.571  10.319  0.0255  0.0335  0.0203
 7632W        W23101   8.872  12.107   4.342 -0.1884  0.0129 -0.3309
 7633W        W23102   2.298  18.170  14.553  0.0608 -0.0920 -0.0865
 7634W        W23103  14.079   9.578   0.611 -0.0040  0.1529 -0.0499
 7635W        W23104  14.413   6.920   2.772 -0.0227 -0.1037 -0.1297
 7636W        W23105  14.779   6.658   0.075 -0.2772  0.1597  0.1549
 7637W        W23106  10.953   6.359   2.321 -0.2540 -0.1524 -0.1069
 7638W        W23107   2.468  10.526  14.359  0.4332  0.0278 -0.0587
 7639W        W23108  10.000  16.978   1.460  0.1894 -0.1044  0.1484
 7640W        W23109  15.864   9.035   4.083  0.0867 -0.1131  0.1617
 7641W        W23110  16.052   9.836  13.537 -0.2306 -0.1820  0.2361
 7642W        W23111   3.917  18.248  13.391  0.2760  0.0338  0.2206
 7643W        W23112   4.950  13.622   4.809  0.2308 -0.0370  0.3690
 7644W        W23113  10.429   5.731  12.941  0.1799  0.0302  0.0875
 7645W        W23114   3.307   9.793  13.547  0.1001 -0.0073 -0.1295
 7646W        W23115  15.991   0.064  13.712  0.0154  0.3369  0.0519
 7647W        W23116   5.218   4.366  14.143 -0.2381  0.3432  0.3304
 7648W        W23117   7.141   8.373  13.194 -0.0318  0.0630 -0.2162
 7649W        W23118   1.826   6.481   2.032 -0.0563  0.0655 -0.0576
 7650W        W23119   0.647  14.590  13.162 -0.0557 -0.0162 -0.2201
 7651W        W23120  10.327   0.175   3.922 -0.0994  0.0031  0.1325
 7652W        W23121  16.683  15.625   0.143 -0.2038  0.1354 -0.0400
 7653W        W23122   0.775   0.274   3.596 -0.0966 -0.1009  0.1299
 7654W        W23123  17.178   5.519  13.643 -0.1975 -0.0276 -0.1878
 7655W        W23124   4.709   2.276  11.688 -0.0493 -0.2036 -0.2058
 7656W        W23125  15.624  13.353  10.192  0.2470 -0.3963  0.0576
 7657W        W23126  14.952   8.840   3.254 -0.0721 -0.0677  0.2110
 7658W        W23127  12.814  15.804  12.094  0.3323 -0.3306  0.5079
 7659W        W23128  17.976   0.419  15.255  0.0531  0.1875 -0.1569
 7660W        W23129  15.210   0.089   0.477  0.3179 -0.0530  0.1851
 7661W        W23130   1.889   4.556  14.194 -0.0339 -0.0139  0.4720
 7662W        W23131   1.794  14.411  11.117 -0.0717  0.2069  0.1908
 7663W        W23132  15.336   6.832   3.292 -0.2092  0.1470 -0.0683
 7664W        W23133   1.307  14.327   1.693 -0.0989  0.0926 -0.1798
 7665W        W23134   2.906   8.391   5.856  0.1719 -0.3282  0.0264
 7666W        W23135  16.101   3.203  10.030 -0.3081 -0.3215  0.1276
 7667W        W23136   9.244   8.342   0.021  0.0523 -0.0240  0.1254
 7668W        W23137  18.252   6.683   4.166 -0.1192 -0.0689 -0.1727
 7669W        W23138  12.751   6.218   1.193 -0.0902  0.1282 -0.3917
 7670W        W23139   6.272  13.060   4.411 -0.1164 -0.1785 -0.2561
 7671W        W23140   6.253  11.757  10.886  0.1635  0.0491 -0.1918
 7672W        W23141  11.052   9.695  14.680  0.1736  0.1225  0.1636
 7673W        W23142   7.718  17.192   3.436 -0.4037  0.2146 -0.2308
 7674W        W23143  17.590  13.881  12.662 -0.2450  0.1537 -0.0301
 7675W        W23144   9.855  17.297  15.255  0.0056  0.2377 -0.0021
 7676W        W23145   0.251   7.549   5.253  0.0138 -0.1981  0.2659
 7677W        W23146   3.087   6.764   6.114  0.2629 -0.6001 -0.1283
 7678W        W23147  18.254   0.592   1.168 -0.1802 -0.1984  0.1397
 7679W        W23148  14.603  15.587  12.500  0.0381  0.2156 -0.2451
 7680W        W23149   0.431  14.851  11.360  0.1278  0.0205 -0.1764
 7681W        W23150   2.303   3.200  14.695  0.0801 -0.0090 -0.1585
 7682W        W23151   1.013  15.690  11.279  0.0741  0.0174 -0.0522
 7683W        W23152  18.509   2.612   2.245  0.3179 -0.4619  0.1559
 7684W        W23153   0.174   7.673   2.905 -0.1582  0.2208 -0.2512
 7685W        W23154  12.212   8.733  13.741 -0.3383 -0.1196 -0.3227
 7686W        W23155   4.108   2.375   2.720 -0.0869 -0.2199 -0.0498
 7687W        W23156   5.512  11.803   4.083 -0.4166  0.0571  0.0441
 7688W        W23157  12.700  13.613   4.434  0.2289  0.1683  0.2609
 7689W        W23158  15.447  19.007   5.382 -0.2142  0.0741  0.2952
 7690W        W23159  10.506  13.968  15.040 -0.0642  0.1938  0.0073
 7691W        W23160   0.477   4.897   0.613  0.1304  0.3423  0.1750
 7692W        W23161   4.939   7.339   0.293 -0.2163 -0.1233  0.0850
 7693W        W23162   2.302   1.687  14.883  0.1189  0.1619 -0.1703
 7694W        W23163  19.034   4.802   0.417  0.1702  0.3428  0.1122
 7695W        W23164  11.368   8.259   3.087  0.0127  0.0506 -0.1724
 7696W        W23165  17.780  13.275  10.850  0.1043  0.3150  0.0131
 7697W        W23166   2.753  13.806  12.903  0.0666 -0.5257 -0.0988
 7698W        W23167   0.897   4.402   3.646  0.0611  0.0956 -0.0520
 7699W        W23168   4.644  14.744   1.789  0.1874 -0.2039  0.1627
 7700W        W23169  13.234  15.152  14.554  0.2809 -0.1361  0.2435
 7701W        W23170   6.480  11.444   4.942  0.0948 -0.2481 -0.0590
 7702W        W23171  15.307  13.789  10.163  0.1574 -0.2295 -0.0236
 7703W        W23172  10.207   1.760   1.222 -0.2668 -0.0966  0.1699
 7704W        W23173  18.344   4.950   0.101 -0.0100 -0.2517 -0.0195
 7705W        W23174  15.099   3.883  15.243 -0.1371 -0.0382 -0.1603
 7706W        W23175   3.594   2.919   4.948  0.1567  0.1227  0.1741
 7707W        W23176   3.618  14.540   1.065  0.0139  0.0475 -0.1856
 7708W        W23177   5.503  11.025   2.975  0.1069 -0.1269 -0.1039
 7709W        W23178  10.583  18.954  14.662 -0.1165  0.2900 -0.0165
 7710W        W23179   0.985   0.798  11.457 -0.2452 -0.0353 -0.1811
 7711W        W23180   3.617  13.789  14.252  0.1138  0.0727 -0.1548
 7712W        W23181   8.931  10.367   4.526 -0.1061 -0.0860 -0.2779
 7713W        W23182  14.398   7.165   4.715 -0.1851 -0.1052 -0.3572
 7714W        W23183  11.970   9.890  14.182 -0.0354 -0.1457  0.0704
 7715W        W23184   6.526   9.035  14.433 -0.2904 -0.3159 -0.3094
 7716W        W23185  10.427   2.459  14.529  0.0409 -0.0243  0.1833
 7717W        W23186   4.768  11.960   2.630 -0.0333 -0.4076 -0.0004
 7718W        W23187   8.314  13.548  15.252 -0.1138  0.0130  0.1836
 7719W        W23188   4.644  11.238  11.616  0.1273  0.0315 -0.0136
 7720W        W23189   1.730   2.957  14.662  0.1630  0.0981  0.2837
 7721W        W23190  18.389   2.409  10.040 -0.1148  0.1822  0.0205
 7722W        W23191   2.631  15.670  10.767  0.0657 -0.1468 -0.0283
 7723W        W23192   8.576   8.951   4.230  0.3525 -0.2351  0.0735
 7724W        W23193   4.379  15.733   2.741  0.3573  0.2964 -0.1395
 7725W        W23194  16.292  10.217  11.410  0.2057 -0.1178  0.0343
 7726W        W23195   4.164   8.563  11.247  0.0177  0.0501 -0.2475
 7727W        W23196  12.137  13.921   5.285  0.2743  0.4331 -0.1229
 7728W        W23197  11.172   4.468   4.507  0.2758  0.0676 -0.1519
 7729W        W23198   9.990   6.742   4.429 -0.3560 -0.2824 -0.2200
 7730W        W23199   3.739   8.263  11.355  0.1276 -0.2210 -0.1586
 7731W        W23200  14.920   3.497  11.698  0.1922 -0.2645  0.0944
 7732W        W23201   5.936   2.189   4.587  0.0422  0.0009  0.3936
 7733W        W23202  12.807  11.768   1.820  0.3031  0.0265 -0.1403
 7734W        W23203  18.915   5.880  14.891 -0.2461 -0.1881  0.0846
 7735W        W23204   9.307  14.284   1.716 -0.0042  0.1162  0.1434
 7736W        W23205  11.248   8.304  14.768 -0.0271 -0.0955  0.2366
 7737W        W23206  17.071   2.777  11.312 -0.1213  0.2025 -0.0870
 7738W        W23207  12.742  17.013  13.946  0.0751  0.2268  0.1285
 7739W        W23208   0.305   9.974  10.484  0.1616  0.2963  0.0133
 7740W        W23209  15.468  15.289   5.056  0.0389  0.1043  0.1282
 7741W        W23210   6.063  10.156   3.148 -0.1593 -0.0239 -0.0424
 7742W        W23211   4.929  18.812   4.041  0.0366 -0.0846  0.0819
 7743W        W23212   2.316  13.656  11.943  0.0964  0.2598 -0.0113
 7744W        W23213   5.502  17.446  12.788  0.1559 -0.0790 -0.0380
 7745W        W23214  13.780   6.583   0.209  0.2318 -0.1280 -0.2603
 7746W        W23215   1.404   6.078   3.056  0.0102 -0.0827 -0.1912
 7747W        W23216   9.914   8.946   2.645  0.1754  0.1301 -0.1895
 7748W        W23217  15.698  11.151  10.313 -0.0273  0.0673  0.5113
 7749W        W23218  10.587   7.955   3.137  0.0908  0.2117 -0.1262
 7750W        W23219   6.967  15.115   3.076  0.1045  0.0397 -0.1572
 7751W        W23220   1.250  15.308  12.176 -0.1831 -0.0439 -0.0129
 7752W        W23221  16.030  17.541   3.262 -0.1637 -0.1433  0.0729
 7753W        W23222   3.551  15.285  14.830  0.0225 -0.1327  0.1334
 7754W        W23223  10.382  14.423   4.844  0.1933  0.0512 -0.0724
 7755W        W23224   0.833  16.934   4.011  0.1270 -0.0519 -0.1971
 7756W        W23225   8.246  14.823  11.943 -0.0460 -0.1736 -0.0362
 7757W        W23226   8.688  17.032  12.088 -0.0947 -0.2678  0.2672
 7758W        W23227   5.817  17.155   1.099  0.0319 -0.0375  0.0197
 7759W        W23228   4.985  11.608   1.036  0.1868  0.1248 -0.0921
 7760W        W23229   2.360   4.743  10.169 -0.2108 -0.2612 -0.1340
 7761W        W23230   9.101   0.815   3.519 -0.2092  0.2216  0.3947
 7762W        W23231   9.344  17.102   2.017 -0.0649  0.0868 -0.2036
 7763W        W23232  15.482   7.906  13.982 -0.0465 -0.0729 -0.0514
 7764W        W23233  18.388   2.272   4.919 -0.0433 -0.4168 -0.1531
 7765W        W23234   2.001  14.955  14.905  0.0870  0.1517  0.1936
 7766W        W23235  17.635   0.455   9.664  0.2405  0.1599 -0.0999
 7767W        W23236   7.840   2.208   5.022 -0.3422  0.1894  0.0726
 7768W        W23237   6.907  11.407  14.566  0.0364  0.0205 -0.0952
 7769W        W23238   4.305  14.277   5.381  0.3653  0.0823  0.2502
 7770W        W23239  11.336  16.666   0.993 -0.2578  0.2041 -0.1418
 7771W        W23240  13.593   0.174   0.685 -0.0151 -0.0148  0.0740
 7772W        W23241  16.989  17.452  13.466 -0.1819 -0.0724 -0.0334
 7773W        W23242   4.483  14.304  13.258  0.0716 -0.2287  0.0526
 7774W        W23243   6.521  12.605  11.063 -0.4393  0.0515 -0.1827
 7775W        W23244  16.617  16.480   4.987  0.0714 -0.1525  0.0814
 7776W        W23245  13.356   7.860  11.322  0.1085 -0.2161  0.0608
 7777W        W23246   4.191   3.378   1.036 -0.3842 -0.0759 -0.0830
 7778W        W23247  12.888   4.243  14.179 -0.1335 -0.0596  0.0951
 7779W        W23248   2.751   5.014  15.036  0.2162  0.1750  0.1765
 7780W        W23249  14.418   1.853   0.641 -0.1455 -0.0803 -0.3278
 7781W        W23250  16.239  11.388   3.290 -0.1140 -0.0105 -0.0170
 7782W        W23251  15.648  11.217   1.916 -0.1814 -0.1630  0.3261
 7783W        W23252  10.485   6.487  12.543  0.1351 -0.2379 -0.2192
 7784W        W23253  14.238  13.157  14.107 -0.0666 -0.2391  0.0987
 7785W        W23254   0.186   4.831  11.235 -0.1053 -0.1661 -0.0405
 7786W        W23255   4.075   6.859  13.956  0.0371  0.2834  0.0621
 7787W        W23256   4.419  14.192  10.970  0.0193  0.1178 -0.2605
 7788W        W23257  12.426   9.617   2.562 -0.2424 -0.1329  0.1379
 7789W        W23258  10.676  16.864   1.603  0.0201  0.1797  0.2626
 7790W        W23259   7.816  11.833  14.577  0.0410  0.2392  0.0482
 7791W        W23260   3.705  13.716  11.433 -0.0321 -0.1350 -0.2446
 7792W        W23261   0.151  18.573   3.120  0.1550 -0.1778  0.1021
 7793W        W23262   7.660  16.899   5.005 -0.4113 -0.1615 -0.0487
 7794W        W23263   5.991   8.998  10.979  0.0998 -0.2661  0.1355
 7795W        W23264   6.461   5.775  12.044  0.0232 -0.2452 -0.0963
 7796W        W23265  13.147  12.140  10.373 -0.1797  0.1064  0.1261
 7797W        W23266   8.374  19.028  14.573  0.0456 -0.1641 -0.1668
 7798W        W23267  12.166  14.401   3.584 -0.3131  0.1728 -0.2599
 7799W        W23268   7.969  16.647   0.660  0.1077 -0.0292  0.0095
 7800W        W23269   1.545   3.065   2.700 -0.3759  0.1690  0.1162
 7801W        W23270   7.197   3.436   1.430 -0.0094 -0.2027 -0.0481
 7802W        W23271  10.505   6.669  13.052 -0.4533 -0.1758  0.1824
 7803W        W23272   7.639   1.922   1.237 -0.1846  0.1177  0.1302
 7804W        W23273   4.577  14.180   0.088  0.0412 -0.0443  0.1054
 7805W        W23274   0.571   5.948   1.239 -0.0993 -0.1633 -0.1396
 7806W        W23275   2.814  13.707  13.439 -0.1312  0.0010 -0.4522
 7807W        W23276   5.962  15.821   4.992 -0.1699 -0.2064  0.2622
 7808W        W23277   2.559   0.723   0.918  0.0528  0.0748  0.1269
 7809W        W23278  16.932   3.191  12.695  0.2624 -0.2528 -0.0554
 7810W        W23279  11.441  17.243   0.294  0.1676  0.2516 -0.3023
 7811W        W23280  10.108   8.353   4.948 -0.0726  0.2484 -0.1895
 7812W        W23281  17.697   3.019   1.178  0.3128  0.0619 -0.2444
 7813W        W23282   6.770  17.013   3.285 -0.2541 -0.0255  0.1052
 7814W        W23283  18.491  14.275   4.072  0.3766  0.1858 -0.0240
 7815W        W23284  11.832  16.184   4.198 -0.1944 -0.1417 -0.1739
 7816W        W23285   3.720   5.626   1.954 -0.1235  0.0933  0.1743
 7817W        W23286   6.153   3.332  12.040  0.0321 -0.0614 -0.2116
 7818W        W23287  18.743   2.370   3.645 -0.0835  0.0162 -0.0794
 7819W        W23288   5.263  13.492  12.356 -0.2937 -0.1082  0.2640
 7820W        W23289  11.008  18.819   5.123  0.1326  0.2092  0.0256
 7821W        W23290   4.261  11.372   4.806 -0.1379 -0.1562 -0.1529
 7822W        W23291   2.970  10.635  13.165  0.0616  0.0374 -0.1929
 7823W        W23292   1.807   9.234  13.955 -0.1872 -0.2830  0.0955
 7824W        W23293   8.340   3.221  11.604  0.0550  0.0356 -0.1785
 7825W        W23294  10.993  12.964   2.658 -0.2017  0.0420 -0.4021
 7826W        W23295   4.750   2.517  12.847  0.0872  0.0242  0.2109
 7827W        W23296  11.654   8.027  14.535 -0.1224 -0.5454 -0.1753
 7828W        W23297  13.292   1.000  12.893  0.2484 -0.0782 -0.1874
 7829W        W23298  10.449  14.025  13.853  0.2074  0.0083 -0.1150
 7830W        W23299  15.791  17.888   0.822  0.2623  0.0329 -0.0097
 7831W        W23300   3.564  18.706  12.503  0.0108 -0.1406  0.1222
 7832W        W23301  13.071  10.082   4.459 -0.1618 -0.0139  0.0395
 7833W        W23302  11.871  17.459   4.496  0.0601  0.5104 -0.1690
 7834W        W23303  16.944   4.297  11.471 -0.2475 -0.0061 -0.1136
 7835W        W23304   7.102   8.464  14.464  0.2089 -0.2364 -0.1311
 7836W        W23305   5.046   7.010  10.849 -0.0283 -0.4841 -0.0369
 7837W        W23306   1.461   0.311   2.923  0.0983 -0.0037 -0.0066
 7838W        W23307   0.769  13.809   2.885 -0.0063 -0.0462 -0.4387
 7839W        W23308  13.860  12.733   5.527 -0.4596 -0.2803  0.1528
 7840W        W23309  10.641   3.835   5.394 -0.2275 -0.3386 -0.1368
 7841W        W23310   6.678   3.164   1.231  0.1097 -0.0658  0.2232
 7842W        W23311   5.976   8.536  14.984 -0.1325 -0.3633 -0.0516
 7843W        W23312   8.663  18.493  11.755 -0.1044 -0.1347 -0.4378
 7844W        W23313  12.626   5.085   4.238 -0.1445 -0.1364  0.0181
 7845W        W23314  18.605  10.047   5.021 -0.0820 -0.0086  0.1027
 7846W        W23315  13.071  13.225  13.092 -0.1152  0.0719  0.0316
 7847W        W23316   5.157   9.463  11.498  0.2617  0.0965 -0.0061
 7848W        W23317  15.798  13.958   4.103  0.1250  0.2374  0.1337
 7849W        W23318  16.333  10.464  11.889  0.0540 -0.0455  0.0942
 7850W        W23319   5.052  16.869   2.320  0.0036  0.0163  0.1641
 7851W        W23320   2.840   0.005   3.935 -0.0055  0.0398  0.2485
 7852W        W23321  18.317  15.401   3.103 -0.0895  0.1633  0.2712
 7853W        W23322   0.082   4.195   3.275  0.2136  0.0729 -0.0127
 7854W        W23323   4.498  18.006   1.583  0.3690  0.1852  0.2132
 7855W        W23324   6.908  18.701   5.170  0.2470 -0.4392 -0.1971
 7856W        W23325   5.010   5.050  14.724  0.0156  0.2632 -0.1555
 7857W        W23326  11.744   2.095  10.982  0.0169  0.2074 -0.3401
 7858W        W23327  18.156   1.584  10.868  0.1702 -0.1896 -0.1164
 7859W        W23328   6.007   6.875   2.350  0.0468  0.0063 -0.3985
 7860W        W23329   2.705   9.357   2.579  0.2819 -0.0707  0.4125
 7861W        W23330   0.772   2.492   2.251  0.2825  0.1655  0.0893
 7862W        W23331  11.220   1.140  13.861  0.1206 -0.2378  0.0793
 7863W        W23332  18.417   3.083   3.625 -0.2666 -0.1775 -0.0912
 7864W        W23333  16.845   7.427   5.308  0.1448 -0.2183  0.3256
 7865W        W23334   9.755  14.351   2.046  0.0859  0.0997 -0.2087
 7866W        W23335   7.107   5.200  13.887 -0.2907  0.0268 -0.0726
 7867W        W23336   8.749   5.073  11.141 -0.1756 -0.0605  0.0364
 7868W        W23337  10.007  11.502  11.877 -0.2216  0.1206  0.0920
 7869W        W23338  16.178   6.567   1.985  0.1292 -0.0814  0.2397
 7870W        W23339  12.627  11.904  14.744 -0.2484  0.1842 -0.2676
 7871W        W23340   6.112  14.638   1.157  0.0753  0.3289  0.1434
 7872W        W23341   9.061   9.293   2.211  0.5293 -0.0635  0.2111
 7873W        W23342  19.007  18.816  12.482 -0.0201 -0.0332 -0.1522
 7874W        W23343   9.019  16.373   2.606  0.1721  0.1359 -0.2995
 7875W        W23344  15.615  12.728   3.535  0.2711  0.0045 -0.0051
 7876W        W23345   2.304  10.760   0.827 -0.2633  0.2731 -0.0663
 7877W        W23346  16.178  13.473  14.960 -0.1296  0.4210 -0.1573
 7878W        W23347   8.486   4.181  13.354 -0.1686  0.1855  0.1270
 7879W        W23348  12.804  11.554   2.666  0.0244  0.1202  0.1469
 7880W        W23349  11.657   0.351   5.613  0.0637  0.1234  0.3770
 7881W        W23350   5.413   1.197  15.087  0.0344  0.2234 -0.0206
 7882W        W23351  15.378  10.445   2.087  0.2737  0.2204 -0.2486
 7883W        W23352  18.762  10.731  12.076 -0.1833  0.0287  0.0804
 7884W        W23353  16.492  17.436   3.484 -0.2954  0.1205  0.1268
 7885W        W23354  17.944  15.951  13.954 -0.2171 -0.2273 -0.1496
 7886W        W23355  11.374   3.775  11.762 -0.0147 -0.0551  0.0379
 7887W        W23356  12.365   2.731  13.205  0.2086  0.0680  0.3920
 7888W        W23357  17.206  15.402   0.818 -0.1081 -0.2385  0.1638
 7889W        W23358  12.213   2.683   2.383 -0.1684  0.1602  0.3752
 7890W        W23359  11.180  12.901   1.086 -0.3600 -0.1383  0.2387
 7891W        W23360  16.865   1.090  11.216  0.2144  0.1720  0.1824
 7892W        W23361   9.982  17.424   3.809 -0.0461 -0.2632 -0.0702
 7893W        W23362   0.485   5.673  14.439 -0.2141  0.1266  0.0574
 7894W        W23363  11.071  16.252   1.050  0.1637 -0.2825  0.2125
 7895W        W23364   9.796  11.984  14.116 -0.0363  0.2437 -0.3336
 7896W        W23365  14.413   9.934   0.319 -0.1432 -0.5084  0.0071
 7897W        W23366  10.202  13.655   0.725  0.0823  0.1441  0.0439
 7898W        W23367   9.558   9.909   4.092 -0.2823 -0.2276  0.0799
 7899W        W23368   1.564   9.606  15.045 -0.1724 -0.1809  0.0076
 7900W        W23369  16.724  14.977   0.758  0.0188  0.0879 -0.1262
 7901W        W23370   2.131   8.774   4.385  0.1054 -0.2267 -0.2853
 7902W        W23371   1.416   5.647  11.429  0.0242  0.4395  0.0490
 7903W        W23372   2.720   5.495  14.777 -0.3073 -0.1839  0.2181
 7904W        W23373  13.113  16.110  14.551 -0.2135  0.0148 -0.1264
 7905W        W23374   0.892  16.536  11.407  0.3379 -0.0067  0.2792
 7906W        W23375   6.776   0.870  12.241 -0.2216 -0.1435  0.3730
 7907W        W23376  16.872  14.940   9.965  0.1119  0.1320 -0.1424
 7908W        W23377   5.072   6.932  14.740  0.1912  0.3150 -0.1779
 7909W        W23378   0.476   1.684  12.924  0.1791  0.1677 -0.0010
 7910W        W23379  11.810  13.702   3.756 -0.1099  0.5109 -0.3529
 7911W        W23380  17.048   3.149  13.172 -0.0795  0.0927  0.5106
 7912W        W23381  13.240  13.768  13.804  0.2137 -0.1018 -0.0809
 7913W        W23382  14.555   7.475  13.263 -0.0974  0.2361 -0.5125
 7914W        W23383  17.639   2.292  13.829  0.0631 -0.1840  0.1335
 7915W        W23384  14.928   3.075   1.933  0.4240  0.2118 -0.1360
 7916W        W23385   2.729  11.278   9.940  0.1032 -0.2127  0.1382
 7917W        W23386   7.419   9.367   1.259 -0.1170 -0.4023 -0.2714
 7918W        W23387  12.712  14.092  13.810  0.0033  0.2238  0.1445
 7919W        W23388   4.245  10.734  12.987  0.0439  0.2004 -0.0185
 7920W        W23389   6.434   4.007   5.120 -0.1308  0.0711 -0.1150
 7921W        W23390   6.377   1.729  10.946  0.3331 -0.1040 -0.3434
 7922W        W23391   6.105   5.928  10.274  0.1516  0.2015  0.2332
 7923W        W23392   1.048   1.252   4.135  0.2617  0.0827 -0.0019
 7924W        W23393   3.001  16.587  14.592 -0.0658  0.0233  0.1838
 7925W        W23394   3.768   5.680   4.605 -0.0922  0.0675 -0.0028
 7926W        W23395   4.880   5.294  10.569 -0.0416  0.0792  0.5401
 7927W        W23396   0.739   7.906  14.788  0.2237  0.1683 -0.5081
 7928W        W23397   1.386  14.112   4.448  0.1738 -0.0780  0.0080
 7929W        W23398  11.595   6.027  12.089 -0.0997 -0.1403  0.0380
 7930W        W23399   9.476   1.780   3.920 -0.1339 -0.0816 -0.0317
 7931W        W23400  12.056  14.168   0.690  0.0035 -0.2984  0.0058
 7932W        W23401  12.323   3.146   2.607 -0.0839  0.0731  0.1929
 7933W        W23402   1.255  18.430   2.354  0.1769 -0.2079 -0.1731
 7934W        W23403   4.452  11.994  14.769 -0.1458 -0.1840  0.0239
 7935W        W23404   8.545  16.233  14.319  0.2815  0.1321 -0.2955
 7936W        W23405  16.580  19.026   3.967  0.0084 -0.2730 -0.3277
 7937W        W23406  14.290  15.589   2.066 -0.4626  0.2428  0.2300
 7938W        W23407   6.212   4.300  11.848  0.0550  0.3808 -0.1831
 7939W        W23408   9.248  11.516   0.847  0.0719  0.4278  0.1478
 7940W        W23409   2.171  17.216  10.165  0.0038 -0.1418 -0.0053
 7941W        W23410   0.229   6.241   3.871  0.2153  0.1074  0.0201
 7942W        W23411   5.538   1.640   2.960  0.2379 -0.0037  0.1463
 7943W        W23412  15.744  18.764  12.842 -0.0971 -0.0085  0.2657
 7944W        W23413   6.027  15.653   3.918  0.1600 -0.0054  0.0894
 7945W        W23414   4.758   8.484  14.507 -0.0333 -0.1342  0.2054
 7946W        W23415  10.884   4.797   2.099  0.2662 -0.0846 -0.0876
 7947W        W23416  12.014   7.837  14.227 -0.2257  0.1531 -0.3067
 7948W        W23417  11.625   5.944   1.714  0.1018 -0.0491  0.1380
 7949W        W23418  19.013  18.161   1.267  0.2671  0.0292  0.1040
 7950W        W23419   5.075   1.312   4.120 -0.2464 -0.1162 -0.0664
 7951W        W23420  17.436   4.517  12.293 -0.0159 -0.0802 -0.0376
 7952W        W23421  11.536  14.152   3.007 -0.0873 -0.1294 -0.0207
 7953W        W23422   4.002   9.337   0.963  0.1704 -0.2388  0.2659
 7954W        W23423  14.863   5.171  15.116 -0.1239 -0.0824  0.1185
 7955W        W23424  16.595   5.384  14.325 -0.0365  0.0792  0.0856
 7956W        W23425  12.542   7.366   0.113 -0.4778 -0.3560 -0.1753
 7957W        W23426   9.768   0.751  10.801  0.2353  0.3194  0.0137
 7958W        W23427  15.316   8.277  12.239 -0.1327 -0.1956 -0.0045
 7959W        W23428   1.912   5.713   0.183 -0.2247  0.0133  0.1404
 7960W        W23429  10.351   1.421   3.561 -0.3241 -0.0907  0.1004
 7961W        W23430  16.204  16.704  10.830  0.0187 -0.2058  0.1047
 7962W        W23431   2.940   7.297  11.563 -0.0174 -0.4825  0.2724
 7963W        W23432   8.496   9.069   2.167  0.1310  0.2123  0.1493
 7964W        W23433   9.513   6.977  11.184  0.0567  0.0956 -0.1011
 7965W        W23434   0.953  17.816  10.183  0.0150 -0.2493 -0.0200
 7966W        W23435  16.825  14.642  15.275  0.2276 -0.0487 -0.2567
 7967W        W23436   9.664  10.622   0.406 -0.2147 -0.4060  0.0559
 7968W        W23437   7.394  10.318   4.021 -0.0013  0.0653 -0.3675
 7969W        W23438  15.995   7.657  10.443 -0.0850 -0.1853  0.2401
 7970W        W23439   6.802   7.758   3.340  0.1904 -0.0852 -0.0042
 7971W        W23440   4.274   7.914  13.852 -0.0358  0.0373 -0.3292
 7972W        W23441   3.443   7.575  14.062 -0.0894  0.1810  0.0214
 7973W        W23442  11.902   4.355  11.004  0.1044  0.0465 -0.3130
 7974W        W23443  12.632  18.682   4.942  0.1321 -0.2299  0.0812
 7975W        W23444   4.278   9.444   2.019  0.1778 -0.1781  0.2642
 7976W        W23445  17.177   7.246   1.994  0.1332 -0.0084  0.2139
 7977W        W23446  16.000  13.049   3.551 -0.1537  0.0358  0.1394
 7978W        W23447   6.352  17.842   3.686  0.1703  0.1365  0.3394
 7979W        W23448   1.780  18.046  10.326 -0.0934  0.0409 -0.2620
 7980W        W23449   6.285  13.744  13.515  0.0089  0.2861 -0.1904
 7981W        W23450   2.608   5.624   4.165 -0.1729  0.2623  0.0510
 7982W        W23451   6.729  18.614   2.809  0.1330 -0.1520  0.0362
 7983W        W23452   8.486   3.501   5.016 -0.1213 -0.0178 -0.0860
 7984W        W23453  16.573   4.367  11.834  0.0887 -0.0174 -0.1612
 7985W        W23454   6.034   9.154  14.085  0.1025 -0.3623  0.0909
 7986W        W23455   7.735  18.165   0.575 -0.0107 -0.0099  0.0205
 7987W        W23456  10.783   8.440   2.387  0.0212  0.0604 -0.0384
 7988W        W23457  13.269   9.899  11.330 -0.1265  0.0738  0.1825
 7989W        W23458   4.878  11.016   0.084  0.0152 -0.2002 -0.1785
 7990W        W23459  15.832   3.470   3.423 -0.1282 -0.0855  0.4475
 7991W        W23460   3.285  16.232  10.623  0.2927 -0.3662  0.0678
 7992W        W23461  18.848  13.009   6.071 -0.0660 -0.0603 -0.0503
 7993W        W23462   4.798  13.285  14.648  0.0354  0.1067  0.1883
 7994W        W23463  14.327  14.675   2.347  0.0115  0.0369 -0.2134
 7995W        W23464   5.263   8.341  10.406 -0.1871  0.0782  0.1644
 7996W        W23465   0.462   4.991   4.256  0.6030  0.1262 -0.1045
 7997W        W23466   2.871   6.862   1.475 -0.2666 -0.0992  0.1039
 7998W        W23467  10.990  18.121  13.712 -0.4344 -0.3307  0.0711
 7999W        W23468   3.413   2.618   3.954 -0.0531  0.3898 -0.0233
 8000W        W23469  10.500  10.794   0.722  0.0622  0.1955 -0.0720
 8001W        W23470   6.720   3.087  11.485  0.1651  0.4330 -0.1958
 8002W        W23471  18.469  12.060  11.849  0.2361 -0.1579  0.0448
 8003W        W23472   9.545  15.639   3.059  0.1463  0.1864  0.0776
 8004W        W23473   8.402  12.271  10.444  0.1291  0.1041 -0.4185
 8005W        W23474  18.645  16.374  11.521 -0.4353  0.1627 -0.0698
 8006W        W23475   1.833   4.853   3.689 -0.1611 -0.0975 -0.0543
 8007W        W23476   7.441   3.259  12.921 -0.1254 -0.4253 -0.3170
 8008W        W23477   8.388   9.051  11.447  0.2242  0.1544 -0.4439
 8009W        W23478   8.623  12.557   0.155  0.0760 -0.0913  0.1810
 8010W        W23479  18.432   5.875  10.168  0.1616 -0.1531  0.0827
 8011W        W23480  10.087   8.485   0.593 -0.3819  0.1352  0.0248
 8012W        W23481   2.406   4.296   3.514 -0.1202 -0.0227 -0.0575
 8013W        W23482   1.482  10.761  10.233 -0.1534  0.1187  0.0110
 8014W        W23483   4.855  15.606  14.364  0.0115 -0.0158 -0.1201
 8015W        W23484   3.719  13.459   3.752 -0.0936  0.1330  0.0523
 8016W        W23485   4.121  13.442   3.227 -0.0106 -0.2832 -0.1818
 8017W        W23486   5.818   0.199   2.316  0.0614  0.2290 -0.0209
 8018W        W23487   7.287  11.699   3.620 -0.0524  0.0637 -0.2960
 8019W        W23488   9.550   6.776   4.157  0.1758  0.0169  0.3438
 8020W        W23489  17.503   4.396  11.390  0.3676  0.1096 -0.2231
 8021W        W23490   9.303  10.592   3.560 -0.2586 -0.3741  0.0302
 8022W        W23491   1.299   2.548   4.057 -0.1703  0.0401 -0.0080
 8023W        W23492   6.972  18.399   5.550 -0.2128 -0.0189 -0.0774
 8024W        W23493   3.282   6.660  13.034 -0.1268  0.3329  0.0555
 8025W        W23494  13.616  12.796  11.745  0.0278  0.2162 -0.0256
 8026W        W23495   7.389  12.016   0.447 -0.1642  0.0170  0.0265
 8027W        W23496  15.028  13.684  11.103 -0.0930 -0.0446  0.0308
 8028W        W23497  14.037   8.437  14.156 -0.1214  0.0186  0.0321
 8029W        W23498  11.710  14.312  10.882  0.1399 -0.3578  0.1666
 8030W        W23499   3.431   7.982  11.071 -0.1773  0.0272  0.1926
 8031W        W23500  10.581   5.317   1.050 -0.0804  0.0460  0.2333
 8032W        W23501   5.825  14.474   4.101 -0.2330  0.0309  0.2071
 8033W        W23502  18.907   8.630   5.001  0.1414  0.0429 -0.2458
 8034W        W23503   8.346   4.998   0.185  0.2591  0.0322 -0.0915
 8035W        W23504  10.533  12.877  11.185  0.1112  0.0674 -0.0717
 8036W        W23505  10.487   0.404  13.458  0.0090  0.1319 -0.0029
 8037W        W23506  14.791   5.480  11.961  0.0390  0.0031 -0.0924
 8038W        W23507   8.849  17.487   5.859 -0.1592  0.1866  0.4259
 8039W        W23508   1.187  14.839  12.295  0.1790  0.3489  0.0590
 8040W        W23509  14.578  17.734  12.246 -0.1840  0.1330 -0.2364
 8041W        W23510  11.600  19.040   0.067 -0.0815  0.2074  0.1330
 8042W        W23511   4.947  15.159   3.924  0.2154 -0.1496 -0.0395
 8043W        W23512   1.771   2.600   0.998 -0.0593 -0.1624 -0.1287
 8044W        W23513  10.047  11.495  10.517  0.2155 -0.0287 -0.1120
 8045W        W23514   9.271  16.918   3.282  0.0410 -0.1076  0.1120
 8046W        W23515  12.100  18.334   4.634  0.0430  0.0140  0.0746
 8047W        W23516   5.644  18.664   2.191  0.2695 -0.2142  0.0625
 8048W        W23517   2.687   7.244  14.109 -0.0086  0.2480  0.0871
 8049W        W23518   5.506  14.254   2.973  0.1680 -0.0731  0.2269
 8050W        W23519   6.244   1.778  14.246  0.1104 -0.0649  0.0335
 8051W        W23520   1.770   0.431   4.286  0.2034 -0.0430 -0.0717
 8052W        W23521  13.526   7.483  13.308  0.1256  0.0513 -0.1642
 8053W        W23522  10.002   5.866   4.889  0.0866  0.0014 -0.0549
 8054W        W23523  11.375   8.550   3.586 -0.0055  0.1168  0.0945
 8055W        W23524   8.649   3.013   0.586 -0.0249 -0.1738 -0.4616
 8056W        W23525   0.631  17.992  11.251 -0.2920  0.0183 -0.1717
 8057W        W23526   6.152   7.364  12.659 -0.0746  0.3055  0.2947
 8058W        W23527   5.952  10.755   2.584 -0.0836 -0.1126 -0.0262
 8059W        W23528  11.367  12.843   3.678 -0.2084  0.0958 -0.0863
 8060W        W23529  13.308   4.917  13.111 -0.2480 -0.3029  0.3736
 8061W        W23530  11.562  13.694   4.180 -0.2026 -0.0501 -0.1422
 8062W        W23531  18.228   7.982   9.752  0.0193 -0.2003  0.2550
 8063W        W23532   7.751  14.454   6.007 -0.1459 -0.2393 -0.0545
 8064W        W23533  12.644  10.334  13.724  0.0945 -0.0770 -0.0572
 8065W        W23534   2.641  13.555  14.049 -0.1043  0.2411 -0.0074
 8066W        W23535  16.480   9.046  14.322  0.1215 -0.1522  0.2794
 8067W        W23536   9.698  12.946   2.104  0.1940  0.1571  0.0413
 8068W        W23537  13.075   9.140   0.730 -0.0390  0.0798  0.1404
 8069W        W23538   9.621   5.224  11.266  0.2447 -0.0109 -0.0689
 8070W        W23539  14.525   2.708   2.522 -0.3077  0.1957 -0.1880
 8071W        W23540  12.678   7.728  12.992 -0.0845 -0.1395 -0.2388
 8072W        W23541   0.297  12.634  12.407 -0.1121 -0.2852  0.0402
 8073W        W23542   3.037  12.338   2.130 -0.1154  0.0694 -0.0900
 8074W        W23543  17.901  10.742   4.569  0.0527 -0.1984 -0.0164
 8075W        W23544  14.893   1.439   1.415 -0.2266 -0.3814 -0.2195
 8076W        W23545  16.192  14.652  12.298  0.0029 -0.1680 -0.0787
 8077W        W23546   0.669   0.164  14.673 -0.3283 -0.1072  0.1766
 8078W        W23547  18.105  15.609   4.695  0.2459 -0.0582  0.0275
 8079W        W23548  17.289  11.836   3.583 -0.0624 -0.3261 -0.2977
 8080W        W23549  13.212  15.035  11.176  0.1383 -0.0698 -0.1517
 8081W        W23550  18.207  17.824  12.748 -0.5342  0.1219 -0.1069
 8082W        W23551  13.149   0.528   4.215  0.0366 -0.1635 -0.1590
 8083W        W23552   2.632  16.812   1.996  0.1602 -0.1544 -0.0649
 8084W        W23553  16.410  16.835  12.996  0.4205  0.0504 -0.2107
 8085W        W23554   5.767   3.692   1.945 -0.0707 -0.0941  0.1464
 8086W        W23555  16.973   7.714  11.617 -0.0252  0.0422 -0.0139
 8087W        W23556  11.249   1.897  11.492  0.1273  0.1322  0.0882
 8088W        W23557   5.267  17.635  11.510 -0.1866 -0.2959  0.3276
 8089W        W23558   7.217  14.170  13.344  0.1049 -0.1262 -0.1940
 8090W        W23559   5.896   5.530  14.721 -0.1890  0.2869 -0.2604
 8091W        W23560  15.285  18.918   2.500 -0.1067 -0.1537 -0.0376
 8092W        W23561  17.831  14.411  12.548 -0.0309  0.0010  0.3057
 8093W        W23562  10.011   4.711   0.847 -0.1283  0.1362 -0.0253
 8094W        W23563   3.366  17.719  11.356 -0.2679  0.1649 -0.0089
 8095W        W23564  15.292  18.519  12.759  0.0792  0.0483 -0.1780
 8096W        W23565   3.300   7.966   2.765 -0.3764  0.3611 -0.0480
 8097W        W23566   0.305   6.063   5.091  0.1815 -0.1139  0.3375
 8098W        W23567  12.025   0.826  14.175 -0.2462 -0.0660 -0.3709
 8099W        W23568  16.657   8.067  11.363  0.0800  0.1784 -0.1591
 8100W        W23569   1.335  10.859  12.952  0.0247  0.3671  0.2000
 8101W        W23570   1.061  12.446  15.329  0.1535  0.2229  0.0639
 8102W        W23571  14.826  14.953  10.921 -0.1506 -0.0005  0.1714
 8103W        W23572  11.337   7.489   3.559 -0.2392  0.0692  0.1263
 8104W        W23573   4.816   8.494  10.593 -0.1792  0.0071  0.2935
 8105W        W23574  12.429   3.665   2.857  0.0756 -0.1769  0.3651
 8106W        W23575  17.903  11.123  14.941 -0.2174 -0.1309  0.0192
 8107W        W23576  12.917   5.525   0.179  0.1262  0.2389 -0.0873
 8108W        W23577   3.918   9.170  13.454  0.2634  0.2451 -0.1152
 8109W        W23578  13.206   0.935   3.692 -0.1073 -0.3165  0.1430
 8110W        W23579   0.936   3.324  14.774 -0.1826  0.0133  0.3468
 8111W        W23580   0.245   0.863  10.567 -0.2307 -0.0018  0.6196
 8112W        W23581  10.796   6.925   1.348  0.0748  0.3126  0.3154
 8113W        W23582  14.209   6.189  13.532 -0.2190 -0.4178 -0.1090
 8114W        W23583   9.119  18.561   2.719 -0.1070  0.1762 -0.2736
 8115W        W23584  12.364   1.082   4.335 -0.1896 -0.1679  0.0901
 8116W        W23585  14.877   2.936   0.792  0.2188  0.0964  0.3370
 8117W        W23586   8.543   1.752   5.429 -0.4517  0.1896 -0.2013
 8118W        W23587   7.335  11.492  15.158  0.1122  0.1630 -0.2570
 8119W        W23588  14.730   2.386   3.637  0.1775 -0.1168  0.3597
 8120W        W23589   1.600   2.174  14.804 -0.0408 -0.0127 -0.4932
 8121W        W23590  13.444   4.306   4.168  0.0465 -0.1237 -0.3159
 8122W        W23591   8.617  10.143   2.151 -0.0444  0.0326 -0.2161
 8123W        W23592  13.291   5.201  15.334 -0.0954  0.1155  0.0158
 8124W        W23593   8.138  15.977  12.576 -0.0580  0.2986 -0.1117
 8125W        W23594  10.655   9.252  13.876  0.3100 -0.0586 -0.4031
 8126W        W23595   4.324  16.877   4.883 -0.0524 -0.0778 -0.1128
 8127W        W23596  13.588  15.473   4.596 -0.1579 -0.0521  0.2688
 8128W        W23597   0.033   1.307  10.715  0.1558 -0.1194  0.0490
 8129W        W23598  16.992   0.652  11.684  0.0386  0.0003 -0.2235
 8130W        W23599   3.406   5.932   4.821 -0.0497  0.2191  0.0777
 8131W        W23600   2.811  11.977   2.705  0.4440  0.0963 -0.0912
 8132W        W23601  16.584  16.781   4.539  0.0776  0.0982 -0.0057
 8133W        W23602  18.612  10.904  10.675  0.0376 -0.1487 -0.0397
 8134W        W23603  13.971  18.413  13.150 -0.0740  0.2543  0.3053
 8135W        W23604  16.486   4.463  14.305 -0.2339 -0.1931 -0.0726
 8136W        W23605   5.313  15.509   1.615 -0.3987 -0.0005  0.1623
 8137W        W23606   3.355   6.361  11.584  0.1377 -0.0659 -0.1047
 8138W        W23607   9.724  10.534  13.145  0.0575 -0.3208  0.0961
 8139W        W23608   5.705   6.041  11.821 -0.2054  0.2874  0.0416
 8140W        W23609   8.340  13.862   2.076 -0.2054  0.0192  0.1948
 8141W        W23610   6.857   5.602   3.195  0.0512  0.0844 -0.0514
 8142W        W23611   6.116  14.140   3.800  0.0280 -0.1266  0.3167
 8143W        W23612   2.070   1.065   0.270  0.1926  0.2738 -0.2356
 8144W        W23613   8.385  11.394  13.544 -0.4257  0.0529  0.0337
 8145W        W23614   0.063   7.765  14.054  0.1680  0.1911  0.4237
 8146W        W23615  12.370   6.984   1.789 -0.1487 -0.0403 -0.1224
 8147W        W23616   2.482  16.470  12.703 -0.0131 -0.1524 -0.1628
 8148W        W23617  10.451   5.237   9.685  0.0353  0.0922  0.1898
 8149W        W23618  17.522   2.301  13.046  0.2004  0.1827 -0.1740
 8150W        W23619   3.660  13.275  12.322 -0.0463  0.0825 -0.1884
 8151W        W23620  17.295   8.312   5.056 -0.1573  0.1654 -0.2814
 8152W        W23621   2.657   3.431   5.020  0.0257  0.0008 -0.2834
 8153W        W23622   0.822   5.798  12.790  0.1790 -0.0329  0.1315
 8154W        W23623   2.258  13.061  14.008 -0.4979 -0.0059 -0.5047
 8155W        W23624  15.060  15.639   4.461 -0.1267 -0.0986  0.0418
 8156W        W23625   4.376  18.892  13.914 -0.4658  0.0466 -0.0273
 8157W        W23626   3.910  17.800  13.847  0.0937 -0.1206  0.0276
 8158W        W23627   7.816   6.828  14.336  0.1730  0.0268 -0.0069
 8159W        W23628   1.776   4.538   1.775  0.2387 -0.2204  0.0855
 8160W        W23629  13.599  10.966  14.581  0.2911 -0.1269 -0.2761
 8161W        W23630  15.188   1.143   3.332  0.1985 -0.3873  0.2164
 8162W        W23631  11.436   3.226   2.488 -0.1968 -0.0131  0.0727
 8163W        W23632  17.073  16.704   1.480  0.0747 -0.0508  0.3187
 8164W        W23633   0.167  15.284   2.156 -0.1403 -0.0811 -0.2530
 8165W        W23634   3.208  15.862   0.706  0.0035  0.6843  0.3799
 8166W        W23635  17.076   6.282   2.414 -0.0578 -0.0568  0.2091
 8167W        W23636  17.887   7.176  14.226 -0.1826  0.0748  0.2801
 8168W        W23637   9.468   9.054   2.265  0.3885 -0.2218  0.0917
 8169W        W23638   8.109   8.364   3.551  0.1093 -0.0545 -0.1012
 8170W        W23639  15.690   2.817  12.012 -0.0467  0.2683 -0.0377
 8171W        W23640  11.418   0.837   1.527  0.2854  0.2740 -0.2565
 8172W        W23641   3.467   0.159  13.205 -0.0442 -0.1349 -0.0494
 8173W        W23642  13.376  16.876   1.354  0.0068  0.3111  0.3218
 8174W        W23643  18.039   7.094  13.051 -0.0563  0.1288  0.0345
 8175W        W23644   5.161  14.444  12.414  0.1438  0.2163  0.2128
 8176W        W23645   7.077   4.035  15.125  0.0361 -0.0388  0.1339
 8177W        W23646   5.072  15.347   0.242 -0.3740 -0.0313 -0.3087
 8178W        W23647  16.131   4.811   2.719  0.0156 -0.1377  0.0019
 8179W        W23648  14.839   8.300  10.801  0.2390 -0.0181  0.0727
 8180W        W23649  11.003   2.144   1.710  0.0223  0.1368  0.0754
 8181W        W23650  10.251   5.320   5.065 -0.2655 -0.0487  0.0133
 8182W        W23651  10.334   5.327   0.093 -0.0244  0.0567  0.0271
 8183W        W23652  14.476   7.298   5.769 -0.0079  0.3751  0.0689
 8184W        W23653   9.478   9.847  11.742 -0.2139 -0.3566  0.1369
 8185W        W23654   2.134   6.006   0.817 -0.0412  0.3208 -0.0810
 8186W        W23655  17.286   7.640   3.268 -0.0031  0.0207  0.2271
 8187W        W23656   9.800   3.681  13.111  0.0200 -0.0055 -0.0547
 8188W        W23657   6.326  11.046  11.560  0.2797  0.2219 -0.2658
 8189W        W23658   0.630   4.475   0.049  0.1573 -0.2316 -0.0586
 8190W        W23659  16.146  18.496  15.052  0.0794 -0.1578  0.1798
 8191W        W23660   1.234   0.417  14.560 -0.4737 -0.1449  0.1465
 8192W        W23661   6.032  15.045  11.302  0.0105  0.0632 -0.1137
 8193W        W23662  14.979  16.630  12.156  0.2201 -0.2350 -0.2528
 8194W        W23663   1.887  18.768  12.467  0.1018 -0.0915  0.1426
 8195W        W23664  14.178   1.802   0.236 -0.0937  0.2787  0.3491
 8196W        W23665  11.373  15.940  10.789  0.4025  0.1948  0.2448
 8197W        W23666   0.312   7.111  14.350 -0.1081  0.2164  0.1686
 8198W        W23667  18.182  18.237   3.719  0.2021  0.0266  0.3400
 8199W        W23668   4.428   7.873   2.233  0.0728  0.2255 -0.1164
 8200W        W23669   6.267  14.849   4.639 -0.2402 -0.0322  0.2751
 8201W        W23670  11.603  12.155   1.653 -0.1297  0.1613  0.1267
 8202W        W23671   1.324   7.687   3.648 -0.3596  0.1397 -0.1207
 8203W        W23672  16.390   7.886  10.149  0.3047 -0.0428 -0.0732
 8204W        W23673   4.185   1.420   1.032 -0.3854 -0.0095  0.0858
 8205W        W23674   7.039  17.008  10.622  0.0076 -0.1854  0.3705
 8206W        W23675   1.457   4.656  11.136  0.0711  0.1503  0.1244
 8207W        W23676   7.631   0.719  14.770  0.1488 -0.0442  0.0934
 8208W        W23677   9.314  16.298   4.085  0.2708  0.1701 -0.1226
 8209W        W23678   9.946  15.435  12.272  0.3034  0.0218 -0.0562
 8210W        W23679  11.909   4.444   2.526  0.4560 -0.1212 -0.1773
 8211W        W23680   2.037   8.466  13.385  0.2230 -0.0905  0.2079
 8212W        W23681   1.159  10.491   2.752  0.2152  0.0453 -0.2305
 8213W        W23682   4.155   1.877  13.755  0.2684 -0.1314 -0.0394
 8214W        W23683  15.315   7.852  15.320 -0.2402 -0.0711 -0.2477
 8215W        W23684   4.973   8.584  12.374 -0.1546  0.1830 -0.1714
 8216W        W23685   9.275  18.707   3.659  0.2414 -0.0568  0.0751
 8217W        W23686   8.345   0.944  13.264 -0.3260  0.0400 -0.0706
 8218W        W23687   9.937   9.674   1.831  0.2201  0.2617  0.3571
 8219W        W23688  14.208   7.299  14.601  0.0793  0.0640 -0.3121
 8220W        W23689   3.241   9.439  15.024  0.1368  0.0493 -0.1520
 8221W        W23690  18.344   5.271   5.617 -0.5156 -0.1479  0.1153
 8222W        W23691   1.197  17.125   0.928  0.0878  0.0017  0.0563
 8223W        W23692  13.832  10.637   1.248 -0.1042  0.0989 -0.1013
 8224W        W23693   0.787   4.893  11.784  0.0011 -0.2137 -0.0976
 8225W        W23694  18.413  13.774   9.740  0.2441 -0.1796 -0.1750
 8226W        W23695   8.668   7.076   3.818 -0.1136  0.1369  0.2669
 8227W        W23696  10.699   1.858  13.928 -0.3717 -0.3757  0.1870
 8228W        W23697  13.594   2.418  11.671 -0.1379  0.0467 -0.2764
 8229W        W23698   3.743  11.080   3.689  0.1026 -0.0529  0.1004
 8230W        W23699   6.919   6.429   1.968  0.0230  0.0123 -0.1849
 8231W        W23700   5.388   9.059   4.281 -0.0288 -0.0384  0.0712
 8232W        W23701   2.995  16.885  12.351 -0.1830  0.0023  0.0969
 8233W        W23702  13.566   9.257   4.317 -0.0079 -0.0692  0.1938
 8234W        W23703  15.190   8.170  14.873 -0.3698 -0.0748 -0.0333
 8235W        W23704   5.451  18.897   5.254  0.1947 -0.1011  0.5746
 8236W        W23705   8.719   8.648   5.254 -0.1382  0.3040  0.1498
 8237W        W23706   7.420  13.901  12.224 -0.0280 -0.4026 -0.5585
 8238W        W23707   7.076   3.420  11.683  0.1418  0.0644  0.1912
 8239W        W23708  12.363  18.399   0.252 -0.1728 -0.2476  0.0299
 8240W        W23709   7.219  14.626   4.706  0.1933  0.3556  0.1280
 8241W        W23710   3.069  15.411  15.009  0.1044 -0.0754 -0.1677
 8242W        W23711   7.234   4.879   3.981  0.3288 -0.1584  0.1711
 8243W        W23712   3.384   4.026   3.945 -0.3396  0.3151 -0.0150
 8244W        W23713   9.989   4.374   1.218  0.0334 -0.2456  0.3146
 8245W        W23714   4.510   4.459   0.932 -0.1139  0.0258 -0.1797
 8246W        W23715   9.441   8.181  11.306  0.5444 -0.0834  0.0307
 8247W        W23716   6.547   2.654  12.946  0.1998 -0.1355  0.0946
 8248W        W23717  14.119   9.523  14.963 -0.1191  0.1184  0.1166
 8249W        W23718   5.630   7.112   1.581 -0.4248 -0.2644 -0.2075
 8250W        W23719  15.627  12.512   2.349  0.0007 -0.0556 -0.2834
 8251W        W23720   9.200   3.552   4.378  0.0862  0.2670 -0.0462
 8252W        W23721   3.585   8.813   3.218 -0.3169  0.0498 -0.1516
 8253W        W23722   6.789  11.662   3.216  0.3299 -0.0824 -0.1463
 8254W        W23723   4.867  12.344   2.306  0.1090  0.0532  0.0380
 8255W        W23724  13.471   6.349   3.239 -0.0542  0.1417  0.2251
 8256W        W23725   4.493  15.309  12.906 -0.1880  0.1448  0.1361
 8257W        W23726   8.759   4.096   3.940 -0.0165 -0.1282  0.1992
 8258W        W23727  10.424   8.061  11.491  0.2218  0.3612 -0.1960
 8259W        W23728   8.923   8.783   2.171  0.3820  0.0517 -0.0473
 8260W        W23729   9.131   4.807  13.654  0.1238  0.0953  0.1876
 8261W        W23730   6.422   2.936   4.765 -0.0504 -0.2871  0.0525
 8262W        W23731  15.910  14.432   4.327 -0.4967  0.2266 -0.1340
 8263W        W23732  15.894  13.344  12.170 -0.1546  0.1235 -0.1310
 8264W        W23733  14.226  12.561  14.225  0.0048 -0.0272  0.1744
 8265W        W23734  10.044   2.577  12.131  0.3047  0.1062 -0.0800
 8266W        W23735   9.988   8.455   2.612 -0.1711  0.0947  0.0964
 8267W        W23736   7.307  11.730   9.482  0.1525  0.0181  0.1677
 8268W        W23737   5.545   4.072  11.205 -0.1288 -0.0019 -0.0141
 8269W        W23738   2.473   4.396   1.847  0.0516 -0.1369  0.0883
 8270W        W23739  17.368   8.668  11.220  0.4860  0.2256  0.0836
 8271W        W23740  17.464  13.798   3.971 -0.1127  0.0840  0.0766
 8272W        W23741   6.567  10.239   3.156  0.1424 -0.2689  0.3045
 8273W        W23742   7.488   1.185   4.170  0.0813 -0.0850  0.1124
 8274W        W23743   8.144  16.601   1.525  0.1986 -0.1433  0.0081
 8275W        W23744   6.859   5.661   1.084  0.2295 -0.2253  0.2940
 8276W        W23745   2.317  11.080  10.210  0.4289 -0.4894  0.3348
 8277W        W23746   0.597  15.799   2.414  0.1565 -0.1811  0.1575
 8278W        W23747  13.228   6.254   4.576  0.4114  0.1843 -0.1568
 8279W        W23748   7.583  16.434  14.695  0.2728  0.0949 -0.0770
 8280W        W23749  11.629  12.236  13.736  0.0966  0.1106  0.0842
 8281W        W23750   8.027   3.362  12.810  0.2057  0.1032 -0.4812
 8282W        W23751  15.195   7.157  12.184  0.0195  0.2285 -0.0969
 8283W        W23752  13.763  13.917  14.686  0.1199 -0.1313  0.1663
 8284W        W23753   5.171   0.933   0.896  0.1546 -0.0299  0.2367
 8285W        W23754   4.851  13.390   0.136 -0.1910 -0.2012 -0.4265
 8286W        W23755  15.860  16.805  12.664 -0.4162 -0.0746  0.0822
 8287W        W23756   0.566   7.476   1.713 -0.0731 -0.0584  0.0113
 8288W        W23757   3.704   7.968   1.045 -0.1913 -0.2130  0.0591
 8289W        W23758   4.116   1.060  14.666  0.0105  0.0523 -0.1839
 8290W        W23759   9.078   9.653   2.999  0.0983 -0.0184  0.2382
 8291W        W23760   8.513  14.298   4.094  0.2498 -0.1903 -0.2556
 8292W        W23761  13.058  10.074   2.909 -0.1300  0.2391  0.0522
 8293W        W23762  14.177   4.095  14.640  0.3129 -0.1835  0.1571
 8294W        W23763   8.575  14.430  14.987  0.0224  0.0610  0.1817
 8295W        W23764   3.625   8.742   2.243  0.0990  0.1311 -0.2044
 8296W        W23765   6.655  13.606  13.863  0.2478  0.3146  0.2442
 8297W        W23766   3.069  13.847   3.948  0.1842 -0.3270 -0.0980
 8298W        W23767  13.488  17.316  11.323  0.2601  0.1921 -0.1790
 8299W        W23768   9.170  11.223   4.230  0.3438  0.2597  0.0693
 8300W        W23769  10.187  14.188   2.201 -0.0877  0.1469 -0.2281
 8301W        W23770   1.379  13.939  11.802 -0.0297 -0.0060 -0.1729
 8302W        W23771   2.623  14.598   3.700 -0.1323  0.2568 -0.1115
 8303W        W23772   5.575  18.870  14.644 -0.0932 -0.0843  0.0584
 8304W        W23773  12.268  14.892   1.894  0.2389  0.0331  0.1905
 8305W        W23774   7.225  18.415   2.740 -0.2003 -0.1815 -0.2036
 8306W        W23775   3.486   4.561  10.444 -0.3911  0.1171  0.3562
 8307W        W23776  17.246   7.822  15.150  0.0676  0.1219  0.1328
 8308W        W23777   1.322   5.444   1.786  0.2473  0.0153  0.2399
 8309W        W23778  13.782  15.246   0.038  0.1902 -0.2485 -0.0970
 8310W        W23779  18.105  17.612   3.953 -0.0446  0.0448  0.0689
 8311W        W23780  15.397  15.159   4.550  0.0961 -0.1847 -0.1242
 8312W        W23781   0.146  16.627   2.695 -0.0851  0.0472 -0.1483
 8313W        W23782  10.713   3.847  14.439 -0.2325  0.1590 -0.0677
 8314W        W23783   2.531  12.010   2.270  0.0776 -0.0651 -0.1248
 8315W        W23784   9.673  12.162  13.687 -0.0199  0.0137 -0.1656
 8316W        W23785   8.567  11.548  11.434  0.2572 -0.1318  0.1341
 8317W        W23786  13.764  10.633   3.041  0.0430 -0.1021 -0.1923
 8318W        W23787   6.086   3.410   2.232  0.0341 -0.1764  0.1324
 8319W        W23788   8.603  15.912   4.739  0.0298 -0.0367 -0.4332
 8320W        W23789   9.210  16.091  10.643  0.4321  0.0513 -0.2428
 8321W        W23790   6.671  11.027  12.982 -0.0116 -0.0549 -0.3311
 8322W        W23791  11.923   3.990   5.561  0.1151  0.0060  0.0850
 8323W        W23792   8.730  16.895  10.768 -0.1652  0.0788  0.2989
 8324W        W23793   9.014   2.157   4.054  0.3474  0.4056 -0.1865
 8325W        W23794  11.034   0.504   6.128  0.2168  0.2307 -0.1222
 8326W        W23795   5.906   9.672   2.286 -0.0127 -0.1442  0.1844
 8327W        W23796   1.097   4.019  10.822 -0.0857 -0.1742 -0.0449
 8328W        W23797  17.529  19.011  13.342  0.5635  0.1304 -0.1218
 8329W        W23798   6.471   3.576   0.489  0.1415  0.0157  0.1140
 8330W        W23799   2.499  12.436  13.809  0.0566 -0.2584 -0.1737
 8331W        W23800   7.997   0.976   1.548 -0.0272 -0.0933 -0.3220
 8332W        W23801  10.463  18.496  14.932  0.2368 -0.2549  0.2564
 8333W        W23802   1.991  11.686  13.305 -0.1923  0.0968  0.0197
 8334W        W23803   1.618   3.791   2.594 -0.0054 -0.1629 -0.2525
 8335W        W23804   9.580  15.831   4.418  0.0626 -0.0474 -0.2699
 8336W        W23805   9.335   4.110  11.601  0.0332 -0.1369 -0.0035
 8337W        W23806  18.654  17.819   1.856 -0.0609 -0.0240 -0.1290
 8338W        W23807   2.200  11.172  11.475 -0.0853 -0.1062  0.0214
 8339W        W23808   0.209  10.784  12.977 -0.2531 -0.0087 -0.1507
 8340W        W23809   4.119  11.683   1.320  0.0152 -0.0300 -0.0353
 8341W        W23810  10.325   9.129  14.656 -0.0381  0.2033 -0.2740
 8342W        W23811  15.186   9.902   1.310 -0.0081 -0.0108 -0.1331
 8343W        W23812  12.021  16.661   1.725 -0.2970  0.2110 -0.0753
 8344W        W23813   8.156  12.089  14.248  0.3623 -0.0936 -0.0437
 8345W        W23814   1.828   6.988   1.541 -0.4090  0.0973 -0.4209
 8346W        W23815   4.430  13.685   4.734  0.0723  0.0346  0.1405
 8347W        W23816   9.646  14.277   0.533 -0.2350 -0.1021 -0.0269
 8348W        W23817  12.281  11.753   2.640  0.2533 -0.1537 -0.1864
 8349W        W23818   0.633  18.979   2.965 -0.0909 -0.1815  0.0641
 8350W        W23819  14.420  14.095   4.048 -0.3596  0.3725 -0.6453
 8351W        W23820  15.611  10.191   2.871  0.2243  0.2893 -0.1378
 8352W        W23821   5.932   4.997  13.931  0.0086  0.1897  0.0727
 8353W        W23822  18.376  15.372  12.413  0.1191 -0.1474  0.4318
 8354W        W23823   9.833  12.278   1.698  0.3415  0.1653  0.2908
 8355W        W23824   2.279  17.609   9.759  0.1378  0.0314 -0.0395
 8356W        W23825   3.018  16.425   0.008 -0.1029  0.2540 -0.0270
 8357W        W23826  12.282   0.359  14.226  0.1529 -0.1505  0.3199
 8358W        W23827   4.987  18.984  13.516  0.3081  0.0746  0.5484
 8359W        W23828  18.322  15.459  13.856  0.0992 -0.0245 -0.0179
 8360W        W23829   6.204   6.339   3.585  0.1112 -0.2221  0.0044
 8361W        W23830  16.584   8.595  11.513 -0.3163  0.1684  0.3823
 8362W        W23831   0.726  16.965  12.357  0.2211 -0.1022  0.1139
 8363W        W23832  18.973   9.819  15.175 -0.3443 -0.4554  0.1712
 8364W        W23833   4.081   6.747   1.438 -0.0401 -0.2426  0.1745
 8365W        W23834   4.698   7.931  11.200  0.0116 -0.0635  0.2221
 8366W        W23835   2.413   9.548  13.541  0.0197 -0.2255 -0.3324
 8367W        W23836  11.139  10.719  10.743 -0.1635  0.4565 -0.2175
 8368W        W23837  13.706  14.088   3.539 -0.2320  0.0143  0.2954
 8369W        W23838  11.480  15.016   1.276  0.4957  0.3437  0.0464
 8370W        W23839   5.202   4.050   3.380  0.0536  0.0137 -0.3765
 8371W        W23840   3.387   2.031   3.754 -0.1419  0.3083  0.0196
 8372W        W23841   9.255   3.502  14.879 -0.0144  0.2146 -0.0312
 8373W        W23842   1.071  18.957  14.437  0.1989 -0.1069  0.1087
 8374W        W23843  15.311  11.103  13.443 -0.2707 -0.0054 -0.0945
 8375W        W23844  14.155   9.487   3.331 -0.0087 -0.2567 -0.0335
 8376W        W23845  12.605  18.694  11.673 -0.2457  0.0502 -0.1018
 8377W        W23846   5.353   3.960  11.994  0.2220 -0.2975  0.1288
 8378W        W23847   6.090   2.453   0.711 -0.0944 -0.0770  0.0510
 8379W        W23848  13.459   5.775   1.907 -0.5354 -0.0393  0.1689
 8380W        W23849   4.376  10.343  14.334  0.2365 -0.1390 -0.2346
 8381W        W23850   5.682   5.087  14.498  0.1675 -0.0172 -0.0866
 8382W        W23851  18.792   8.800   5.625  0.0480  0.2236  0.0944
 8383W        W23852   3.205   7.432   3.916 -0.3440 -0.3309 -0.1751
 8384W        W23853   0.873  15.574  13.281  0.1755 -0.0681  0.0502
 8385W        W23854  15.968  15.926  15.288  0.2317  0.0706 -0.0665
 8386W        W23855  10.231   3.301   3.368  0.0353 -0.1604  0.3323
 8387W        W23856   9.438   6.414   2.490  0.2761 -0.3041  0.1088
 8388W        W23857   1.746   7.032  13.819  0.1218  0.1464 -0.0061
 8389W        W23858   0.250  14.005   2.137 -0.0260 -0.2161  0.0364
 8390W        W23859   8.421  13.624  14.254 -0.0165  0.1758  0.2855
 8391W        W23860  16.750  14.133  13.010 -0.3830  0.0832  0.1918
 8392W        W23861  17.123   4.642   9.492 -0.0737 -0.0436  0.0493
 8393W        W23862   8.424   3.523   2.818  0.3171  0.2638 -0.1659
 8394W        W23863  10.792  13.454  10.415 -0.1753  0.1997  0.1162
 8395W        W23864   8.123  18.202   4.369  0.2399  0.0640  0.1938
 8396W        W23865   5.421   6.947   1.037  0.2872  0.3199  0.4654
 8397W        W23866   3.049  14.324   3.630  0.1017  0.0174  0.0399
 8398W        W23867   7.510  18.964  14.446 -0.0560  0.0915  0.2375
 8399W        W23868   1.389   5.693   0.001 -0.4006 -0.4049  0.0112
 8400W        W23869   3.783  17.633   5.039  0.0452  0.2113 -0.2104
 8401W        W23870   8.352  12.053   5.636 -0.0115  0.0047 -0.4876
 8402W        W23871  15.334  13.358  10.559 -0.1539 -0.0034 -0.0846
 8403W        W23872  17.959   0.240  11.915 -0.0592  0.1041  0.0760
 8404W        W23873  16.720  17.598   0.047 -0.1322  0.1691 -0.1899
 8405W        W23874   8.399   1.270  12.840 -0.2583 -0.2200 -0.0918
 8406W        W23875  16.214   8.762   1.200 -0.0385 -0.2887  0.0359
 8407W        W23876   1.109   5.270   0.073 -0.1788  0.0587  0.2744
 8408W        W23877  10.812  10.505  14.111  0.0548  0.0780 -0.0926
 8409W        W23878   9.594  14.083  13.119 -0.0896 -0.2408  0.0405
 8410W        W23879  12.215   0.020  14.576 -0.3791  0.0332  0.0311
 8411W        W23880  13.716   3.125   2.903 -0.1456  0.3838 -0.1158
 8412W        W23881   8.663  18.005   0.452 -0.1562 -0.1124 -0.0553
 8413W        W23882   8.508   8.123   3.292  0.0195  0.4792  0.1886
 8414W        W23883  17.285   0.880   1.416 -0.1645 -0.0231  0.5279
 8415W        W23884  13.487   1.477   3.550 -0.0468  0.1658  0.0219
 8416W        W23885   0.777  15.854   5.545 -0.1664 -0.3769 -0.0568
 8417W        W23886  15.566  14.498  13.122  0.3987  0.2741 -0.4371
 8418W        W23887  18.437  14.665   1.041  0.0124 -0.0669  0.5317
 8419W        W23888   6.691   8.561  12.936  0.2234 -0.1651  0.0105
 8420W        W23889   9.147   4.387   5.364 -0.0132 -0.4037  0.1762
 8421W        W23890  11.049  10.965  11.193 -0.1211  0.1688  0.1071
 8422W        W23891   1.739  14.524   1.826  0.0588 -0.0382  0.3432
 8423W        W23892   2.858  12.440   1.641  0.3932 -0.0007 -0.1375
 8424W        W23893   4.301   6.490   0.662 -0.0337  0.0372  0.0540
 8425W        W23894   6.504  12.125   2.701 -0.0833  0.4198  0.0411
 8426W        W23895  10.066   5.200  11.000 -0.0212  0.0303  0.0482
 8427W        W23896   5.062   2.957   0.784 -0.0160 -0.0017 -0.0987
 8428W        W23897   6.243   8.447  10.651  0.2512  0.0391 -0.0338
 8429W        W23898   2.014   3.586   2.283 -0.1685  0.1602 -0.5177
 8430W        W23899  11.851  10.341  14.048 -0.2512 -0.1613 -0.0393
 8431W        W23900   1.012   9.821   2.392  0.0651  0.1617 -0.2197
 8432W        W23901  18.104  14.460   4.958  0.1782 -0.5273  0.1600
 8433W        W23902   9.377  14.759   2.065 -0.1185  0.1625 -0.2005
 8434W        W23903   2.254  13.536  14.448 -0.1356  0.0342  0.2874
 8435W        W23904  15.501   4.348   3.092 -0.0669  0.0814  0.2889
 8436W        W23905   4.083   0.995  10.595  0.0552  0.3867 -0.1484
 8437W        W23906   2.648  12.345  12.813  0.0528  0.2395 -0.1164
 8438W        W23907  12.902   8.091   4.197  0.0663  0.0411  0.2945
 8439W        W23908  13.871   7.446   0.277  0.1037  0.1619  0.1564
 8440W        W23909  13.562   9.301  13.042 -0.2220  0.1849  0.2276
 8441W        W23910  11.284  11.259   5.007  0.2375  0.1064 -0.1012
 8442W        W23911   5.111   3.652   1.236  0.0334 -0.0385 -0.3068
 8443W        W23912  11.863  15.187   1.787 -0.0157  0.1470  0.0735
 8444W        W23913   8.861   1.073  11.851 -0.3605 -0.0097  0.0168
 8445W        W23914  11.024   0.777  12.924 -0.0227 -0.4726 -0.4248
 8446W        W23915  17.426  16.491  15.033  0.1945 -0.0873 -0.2182
 8447W        W23916  18.397   8.333   2.994 -0.2082 -0.4434 -0.0546
 8448W        W23917  14.591  11.558  11.043  0.0475  0.4062 -0.0183
 8449W        W23918   3.942   9.943   2.905 -0.0102  0.3410 -0.0081
 8450W        W23919  17.119  13.586  11.303 -0.4098  0.0106 -0.0067
 8451W        W23920  17.662  18.980   9.563 -0.0435 -0.1212 -0.3897
 8452W        W23921   6.936   8.897  14.769 -0.0097 -0.1392  0.0167
 8453W        W23922  12.685   3.052   4.903 -0.6010  0.0025 -0.0215
 8454W        W23923  13.853   3.270   4.249 -0.0161 -0.1693 -0.2591
 8455W        W23924   1.077   5.519  12.391  0.0534  0.1783  0.2087
 8456W        W23925  16.506  15.028  12.293 -0.1163 -0.2607 -0.2629
 8457W        W23926  18.496  16.396   3.385 -0.1051 -0.2618  0.2461
 8458W        W23927   3.482   2.059  13.204 -0.2804  0.0673 -0.1684
 8459W        W23928  16.382   2.471   2.376 -0.3565 -0.3983 -0.2430
 8460W        W23929  16.141   5.384  14.720  0.1617 -0.1245  0.0620
 8461W        W23930  10.373   3.198   1.335 -0.0771  0.2179 -0.2862
 8462W        W23931  17.714   8.911  12.309 -0.1111 -0.3808 -0.3542
 8463W        W23932  14.450   4.122   2.198  0.0600  0.3016 -0.1039
 8464W        W23933   6.911   9.944  12.106  0.1634 -0.1551  0.0244
 8465W        W23934  11.755  15.637   0.784  0.0300 -0.1655 -0.0066
 8466W        W23935  15.872  10.713   1.967 -0.0523 -0.0545  0.2143
 8467W        W23936  10.414   0.814   2.322  0.5798  0.1791  0.1650
 8468W        W23937   0.559   9.303  10.555 -0.0980 -0.1599 -0.3459
 8469W        W23938   2.847  12.246  15.214 -0.1591  0.0795  0.0620
 8470W        W23939  16.198  12.834  13.961  0.0331 -0.1622 -0.1264
 8471W        W23940   4.352  17.838  11.760 -0.4650 -0.0754  0.0598
 8472W        W23941  17.084   5.175  10.276  0.2962 -0.2717  0.1215
 8473W        W23942  15.217   1.485  10.169  0.3307  0.0272  0.0982
 8474W        W23943   9.384   6.941   1.665 -0.0970 -0.3998  0.1716
 8475W        W23944   8.837  18.329  13.517 -0.1629  0.2132 -0.3095
 8476W        W23945  12.425  14.317   3.132  0.2017  0.0485 -0.1048
 8477W        W23946   3.103   7.255   5.867 -0.2469  0.2433 -0.0496
 8478W        W23947   3.395   1.448   1.733 -0.2231  0.0291 -0.0912
 8479W        W23948   4.197   2.596  15.226  0.0724 -0.2669 -0.2941
 8480W        W23949  10.258   1.417   0.726 -0.0221 -0.0827 -0.0412
 8481W        W23950   6.290   6.268  11.374  0.2722  0.1263 -0.0829
 8482W        W23951  18.302   4.463   0.535  0.0042 -0.1892  0.1889
 8483W        W23952  16.103  10.782   3.847 -0.1967  0.2554 -0.0452
 8484W        W23953   7.910   6.263  14.064 -0.0428 -0.0197  0.0341
 8485W        W23954  18.584   1.700  14.831 -0.0415  0.0525  0.1859
 8486W        W23955   1.006   4.125  12.961 -0.1297  0.0385  0.0854
 8487W        W23956   7.766  17.141   0.809 -0.1078 -0.3416  0.0472
 8488W        W23957   3.120   8.515  14.849 -0.1107  0.0336 -0.3731
 8489W        W23958  18.494  16.695   0.276 -0.0181 -0.2419  0.1593
 8490W        W23959  11.557  13.253   3.268  0.1461  0.4491 -0.1471
 8491W        W23960  13.257  11.164   4.972 -0.1067 -0.0388 -0.2227
 8492W        W23961   3.963  10.570  13.540 -0.0143  0.2547 -0.1145
 8493W        W23962   3.753  14.513  13.180  0.0351 -0.0567  0.3256
 8494W        W23963  11.981   8.326   2.330 -0.0679  0.0854 -0.2030
 8495W        W23964  15.596  15.147   2.659 -0.4674  0.2167 -0.3312
 8496W        W23965   1.305  14.390  15.108  0.0557  0.1130 -0.1209
 8497W        W23966  10.471  14.226   9.424  0.1464  0.0082 -0.1051
 8498W        W23967  18.063  12.721  13.675  0.0999  0.1275  0.0708
 8499W        W23968  14.111  12.497   1.461 -0.2090  0.3141  0.4274
 8500W        W23969   6.509   7.219   3.624  0.1665 -0.0725  0.2438
 8501W        W23970  11.769  11.042   5.270 -0.0321 -0.0446 -0.0745
 8502W        W23971  16.066   5.654  12.140  0.0236  0.0536  0.1511
 8503W        W23972  14.998   6.248   2.218 -0.0743 -0.2373 -0.1448
 8504W        W23973  13.043  10.892  12.952  0.1723 -0.0478  0.0883
 8505W        W23974   3.737  18.637   5.766 -0.1191  0.1443  0.1414
 8506W        W23975   3.395   0.232   1.099 -0.0180  0.0045  0.3208
 8507W        W23976   6.499  12.496  11.608 -0.0045  0.0931  0.1096
 8508W        W23977  17.027   2.094   3.889  0.5719 -0.1564  0.1126
 8509W        W23978  16.608   7.209   1.168  0.1993  0.0445  0.1778
 8510W        W23979  12.816   5.065   0.146 -0.1398  0.1088 -0.1599
 8511W        W23980  15.519  15.036  13.992  0.2804  0.2251 -0.5184
 8512W        W23981  18.528   0.486   4.687 -0.0820  0.1024  0.1049
 8513W        W23982  13.382  13.039   1.611  0.0517 -0.1537  0.3046
 8514W        W23983   8.930   1.033   1.334  0.1731  0.0813 -0.0039
 8515W        W23984  14.388   4.883  11.763 -0.0677 -0.1309  0.3370
 8516W        W23985  15.610  11.819   2.050  0.0260  0.6044  0.0833
 8517W        W23986  16.062   6.055   1.951 -0.1343 -0.1462  0.0853
 8518W        W23987  18.654  18.233   3.514 -0.2448 -0.1728 -0.4435
 8519W        W23988   9.899  15.151  10.668  0.0112  0.2013 -0.1523
 8520W        W23989  15.745   0.776   5.486 -0.2164 -0.2256 -0.0278
 8521W        W23990   2.595  15.017  12.234 -0.1798 -0.0638 -0.0453
 8522W        W23991   7.970   0.680  14.075 -0.1606  0.1993  0.2773
 8523W        W23992   7.615   1.503   5.778 -0.0559  0.4559  0.2358
 8524W        W23993   4.651   8.612   4.464 -0.0995  0.0883  0.0271
 8525W        W23994  17.463  13.850   2.968  0.0509  0.3223 -0.2870
 8526W        W23995  13.975   2.164   1.635 -0.0431 -0.2967  0.0649
 8527W        W23996  18.579   2.538  10.543 -0.1182  0.0403  0.0179
 8528W        W23997  15.970   6.376   3.338 -0.0228 -0.1673  0.0931
 8529W        W23998  14.134   8.073   1.716  0.0400 -0.0867 -0.1569
 8530W        W23999   7.573  11.160   1.660  0.0143  0.2970 -0.0162
 8531W        W24000  12.839   1.334  14.232  0.1009 -0.1465 -0.1907
 8532W        W24001   4.448   1.911   2.252  0.1066 -0.2926  0.3367
 8533W        W24002  12.766  16.640   3.112 -0.1749  0.1864  0.1170
 8534W        W24003   0.299  15.342  10.444 -0.0681  0.0801  0.2113
 8535W        W24004   7.131   6.009  14.682  0.0029  0.0964 -0.2226
 8536W        W24005  12.723   3.163  14.478 -0.0627 -0.2557 -0.1224
 8537W        W24006  15.339   1.581   4.512  0.4391  0.1191 -0.2690
 8538W        W24007   8.987   8.975  10.789  0.1267  0.0571 -0.0016
 8539W        W24008   2.598   2.784  12.041  0.1598 -0.1560 -0.2689
 8540W        W24009  16.093   3.854   3.220 -0.0778  0.3034 -0.2023
 8541W        W24010  15.138  12.700  14.694  0.1473  0.1022 -0.0120
 8542W        W24011  18.279  15.093   3.729 -0.0440  0.1936  0.0113
 8543W        W24012   1.039  18.621  10.637  0.2304 -0.0569 -0.4648
 8544W        W24013  13.411  10.978   4.515 -0.1892 -0.2076  0.1069
 8545W        W24014  18.812   9.554   1.343  0.2455  0.1380  0.1330
 8546W        W24015   3.684   0.537  10.945  0.1058  0.0145  0.1776
 8547W        W24016   8.598   1.527  14.399 -0.1928  0.0020  0.3425
 8548W        W24017   9.886  17.584   2.947  0.0399 -0.1784 -0.0473
 8549W        W24018   8.792   5.065   1.658  0.2110  0.1599 -0.0927
 8550W        W24019   3.241   5.721   0.749 -0.1747 -0.1315 -0.3064
 8551W        W24020  12.301  13.003  12.332  0.2571 -0.1191 -0.0735
 8552W        W24021   6.775  17.662  10.775  0.0451 -0.1622 -0.3170
 8553W        W24022  12.422   8.812   1.089 -0.3537 -0.0995 -0.1479
 8554W        W24023  11.170   1.741  14.675  0.1525 -0.1130 -0.2030
 8555W        W24024   5.386   6.726  11.613  0.0563  0.0334 -0.2861
 8556W        W24025  18.378   3.131   0.503 -0.0571  0.0278 -0.0974
 8557W        W24026   1.084   0.302  11.104 -0.0849  0.1145 -0.0887
 8558W        W24027  11.353  17.749  14.006 -0.0456 -0.0666  0.0152
 8559W        W24028  11.451   5.986  10.779  0.1248 -0.0488  0.1968
 8560W        W24029   4.277   6.975   1.911  0.2556 -0.1543  0.3126
 8561W        W24030  11.327  14.889   2.650  0.1292  0.0094  0.2512
 8562W        W24031   5.739   6.366   4.492 -0.0943 -0.1841 -0.0755
 8563W        W24032   2.594   0.106   0.948 -0.1842 -0.3724 -0.3619
 8564W        W24033  10.995  16.962  12.068  0.1357  0.0952 -0.0085
 8565W        W24034  15.958  10.319   3.262 -0.0934  0.1865  0.1917
 8566W        W24035   9.700   8.955  14.923  0.0773 -0.0273 -0.1399
 8567W        W24036  17.652  18.604  10.176  0.1779  0.1882 -0.0486
 8568W        W24037  10.782   7.657   4.700 -0.0935 -0.0908  0.2211
 8569W        W24038   7.177  10.617   2.037 -0.0921  0.5074 -0.0430
 8570W        W24039  10.318   4.291  11.060  0.0154  0.2334  0.3111
 8571W        W24040   1.654   4.121   4.067 -0.1902  0.1103 -0.0591
 8572W        W24041   6.500  16.978  15.356 -0.5167  0.0565  0.1779
 8573W        W24042   7.227  16.436   2.818  0.0439 -0.0398  0.2092
 8574W        W24043  14.768  10.301  11.141  0.6613  0.1595  0.2691
 8575W        W24044  11.137   4.028  12.168  0.0599 -0.0990 -0.0582
 8576W        W24045   6.434  15.480   0.582  0.2803 -0.1455 -0.0908
 8577W        W24046   3.613   6.002   0.620  0.0510 -0.1785  0.0574
 8578W        W24047  10.403  18.296   2.688  0.0733 -0.0971  0.2693
 8579W        W24048   3.715  18.312   4.592  0.0971  0.1003  0.0317
 8580W        W24049   0.283   3.277  13.840  0.0741  0.0561  0.0559
 8581W        W24050  15.191   1.280  11.928 -0.4495  0.1014 -0.2540
 8582W        W24051   5.321   1.314   0.587  0.1040  0.1852 -0.1096
 8583W        W24052   9.674   8.165   1.284 -0.0005 -0.1480 -0.2204
 8584W        W24053   3.514  14.597   2.309 -0.1955 -0.0270 -0.0562
 8585W        W24054  10.257  15.971  13.475  0.0493 -0.1088 -0.1706
 8586W        W24055   7.421   3.493   2.714  0.3146  0.0767 -0.1759
 8587W        W24056  17.799  18.044  14.704  0.1106  0.1780 -0.2390
 8588W        W24057  18.966   7.970   2.354  0.0147  0.0444 -0.0829
 8589W        W24058   0.706  16.886  11.112  0.0540  0.0760  0.3407
 8590W        W24059  15.971   4.069   0.948  0.0932 -0.0282  0.2740
 8591W        W24060  17.722  13.573   2.620 -0.0248 -0.1169  0.2809
 8592W        W24061  17.450   0.822  14.860  0.2360 -0.1592 -0.1245
 8593W        W24062   0.828  16.736   1.459 -0.1430 -0.1101 -0.2723
 8594W        W24063  14.307   1.205   4.630  0.2510  0.0809 -0.0145
 8595W        W24064   9.004  11.884  13.098  0.3618 -0.2625  0.1432
 8596W        W24065  14.695   8.959   4.975 -0.1754 -0.1336  0.1675
 8597W        W24066  15.885  12.429  12.260  0.0820 -0.1380  0.1631
 8598W        W24067  14.527  12.949  11.604  0.1789  0.0756 -0.0370
 8599W        W24068   8.786   4.295   3.063  0.3255 -0.0677 -0.2397
 8600W        W24069  14.672  13.807   2.076 -0.1651 -0.1273 -0.0987
 8601W        W24070  12.359   0.560  15.191  0.0894 -0.0248 -0.1390
 8602W        W24071  17.330  18.517  11.505 -0.0883  0.2007 -0.0157
 8603W        W24072   9.472   6.526   1.912  0.2130  0.1110 -0.2770
 8604W        W24073  13.115   5.869   1.136 -0.0327 -0.0566  0.1282
 8605W        W24074  13.524  13.303  13.974 -0.1740 -0.0914  0.1032
 8606W        W24075   2.403  15.425  14.276 -0.3232  0.1646 -0.1638
 8607W        W24076  18.678   9.050  11.098 -0.0357  0.2759 -0.3106
 8608W        W24077  12.176   5.482  13.965  0.0904 -0.0500  0.1802
 8609W        W24078   9.121  18.682   3.194  0.0519 -0.1431 -0.3970
 8610W        W24079  14.317   9.500   2.764 -0.0543  0.1846  0.0009
 8611W        W24080   1.552  14.932   4.163 -0.3722  0.0854 -0.1161
 8612W        W24081   3.266  13.742   2.971  0.2957  0.1496  0.0241
 8613W        W24082   9.264  17.267  14.207 -0.1362 -0.0837  0.3973
 8614W        W24083  10.687   6.095  12.736  0.1666  0.1277 -0.0560
 8615W        W24084  13.649  17.454   2.718 -0.1393  0.1602  0.3134
 8616W        W24085   0.688  13.430   4.417 -0.1418  0.2770 -0.0235
 8617W        W24086   5.283  14.144  10.601 -0.0819 -0.4109  0.1568
 8618W        W24087  15.448  13.290   0.643  0.3951 -0.2197  0.2582
 8619W        W24088  18.775   5.624   3.460 -0.1159 -0.0966 -0.0756
 8620W        W24089  14.343   8.448   3.648  0.0882  0.1409 -0.0955
 8621W        W24090   5.088   3.021  11.707 -0.0781  0.3801  0.1836
 8622W        W24091  18.750  10.465   3.697  0.3313 -0.1475 -0.0091
 8623W        W24092   5.934  19.020   5.149 -0.0015 -0.2705  0.0915
 8624W        W24093  17.945   4.380  11.790  0.1166 -0.0223  0.0030
 8625W        W24094   4.221  15.574  14.005  0.1717  0.0720 -0.2322
 8626W        W24095  12.029   4.554   2.014  0.0185 -0.0143 -0.1619
 8627W        W24096  12.296   0.054   3.162 -0.2377  0.1664 -0.0224
 8628W        W24097   3.221   4.966   4.686  0.1757  0.1572 -0.1028
 8629W        W24098  12.561   7.590   1.806 -0.1831  0.1593  0.0282
 8630W        W24099   2.820  11.006  11.665  0.2295  0.3515 -0.0324
 8631W        W24100  10.169   0.406   4.441 -0.2500 -0.0539  0.0245
 8632W        W24101   6.617  10.898   0.686 -0.0217 -0.2339 -0.0773
 8633W        W24102   1.145  10.357   5.372  0.0265 -0.0489 -0.0001
 8634W        W24103  10.479   1.816   5.105 -0.3027  0.0048 -0.0426
 8635W        W24104   2.633   5.098   4.290 -0.1445 -0.0697 -0.1165
 8636W        W24105   7.980  14.895   4.297 -0.2119  0.1137 -0.6321
 8637W        W24106   7.403  16.935  13.906  0.0899  0.0043  0.1458
 8638W        W24107  14.488  11.469   3.323 -0.1517  0.3352  0.0796
 8639W        W24108   7.969  10.649  15.046  0.2183 -0.2569 -0.1811
 8640W        W24109   3.380   2.859   1.625 -0.2774  0.0995 -0.2956
 8641W        W24110   2.638   6.363   1.660 -0.1504  0.1463  0.2410
 8642W        W24111   4.295  13.030   4.382  0.1406  0.0603 -0.0555
 8643W        W24112  15.803   2.675   1.756  0.4014  0.1979  0.5354
 8644W        W24113  14.704   5.988   3.819 -0.1338  0.2850  0.0464
 8645W        W24114  18.787  12.472  11.737 -0.1115  0.0422  0.0088
 8646W        W24115   1.894  12.406  12.813 -0.0349 -0.0724  0.3400
 8647W        W24116  11.315   2.401   5.896 -0.0806 -0.3376 -0.3992
 8648W        W24117  14.799  16.444  15.240  0.1792  0.1337 -0.0327
 8649W        W24118   0.924   8.113   2.714 -0.3228  0.0277 -0.3040
 8650W        W24119   1.110  11.188   1.876 -0.1037  0.1178 -0.1482
 8651W        W24120  17.958  19.013   0.758  0.0774  0.0018 -0.1287
 8652W        W24121  11.226   2.157  10.900  0.0910  0.3116  0.2071
 8653W        W24122  12.326   1.276   0.486 -0.0199 -0.2286  0.1770
 8654W        W24123  12.085   3.345  11.977  0.4086  0.1502 -0.0656
 8655W        W24124   0.887   7.550  11.684  0.1117  0.0602 -0.0719
 8656W        W24125  11.682   2.331  15.352  0.1349  0.1151 -0.1058
 8657W        W24126   8.408   9.550  11.687  0.1134 -0.1573 -0.1332
 8658W        W24127  15.873   8.504   3.271 -0.0158 -0.4362  0.0173
 8659W        W24128  11.182   8.028  10.480  0.0479 -0.1402 -0.0615
 8660W        W24129  17.093   0.134   4.150 -0.1310 -0.0905 -0.3735
 8661W        W24130  13.634  18.943   4.804 -0.4170  0.1578  0.0847
 8662W        W24131   1.277   1.125   2.824  0.2871  0.0419 -0.0848
 8663W        W24132  12.354   0.277   2.360 -0.0426 -0.2552  0.3866
 8664W        W24133   3.755  14.452   2.980 -0.1079  0.3738 -0.3615
 8665W        W24134   5.200  17.101   2.735  0.0271  0.2187  0.2298
 8666W        W24135  10.160   4.747   1.550 -0.2626 -0.0805 -0.2870
 8667W        W24136   0.932  15.008  13.990  0.1344  0.2312  0.0719
 8668W        W24137   5.490   9.598  12.223 -0.1180  0.1359 -0.1347
 8669W        W24138   4.113  10.021  15.177  0.0580  0.0225 -0.0865
 8670W        W24139   6.165   1.875   5.004  0.0532 -0.1501 -0.0221
 8671W        W24140  13.552   9.058  11.160 -0.2409  0.2509  0.0491
 8672W        W24141   8.178   3.684  12.472 -0.4112 -0.2207  0.0275
 8673W        W24142   8.811  14.267  14.247 -0.2079  0.1660  0.2014
 8674W        W24143  16.116   8.409  10.085 -0.2176 -0.4902 -0.1308
 8675W        W24144   5.443  12.306   1.557  0.0704 -0.1496 -0.1295
 8676W        W24145   7.994  15.842  13.740  0.0040  0.2704 -0.1021
 8677W        W24146  14.589  10.619  13.362  0.2179 -0.2664  0.2586
 8678W        W24147  18.048   2.709  14.491  0.2428  0.0289 -0.0416
 8679W        W24148   3.434   6.447   2.878 -0.1691 -0.0635  0.1539
 8680W        W24149   6.900   2.183  11.836  0.1726 -0.1118 -0.0226
 8681W        W24150   3.008  13.354   3.181 -0.1369  0.0903 -0.1566
 8682W        W24151   8.901   7.248  15.207 -0.0732 -0.2349  0.0035
 8683W        W24152  14.888  12.763  11.881 -0.0688  0.2247 -0.1968
 8684W        W24153  16.258   1.210  11.529 -0.2318  0.1135 -0.1384
 8685W        W24154   9.340   5.203   4.623 -0.2150  0.0332  0.1801
 8686W        W24155   4.253  15.927   4.762  0.0729  0.0711  0.2401
 8687W        W24156   4.806   3.158  13.569 -0.1727 -0.1020 -0.4185
 8688W        W24157  10.572  12.718  10.740  0.2158  0.4308 -0.0163
 8689W        W24158  16.443   4.444   3.901  0.0591  0.0777  0.0157
 8690W        W24159  13.893   3.192  13.646  0.1670 -0.1483 -0.1559
 8691W        W24160   3.924   4.273  13.559 -0.0667 -0.1117 -0.1314
 8692W        W24161   0.680  11.271  12.219  0.0946  0.1715 -0.3965
 8693W        W24162   7.100  16.237   4.389 -0.0150  0.3441 -0.3743
 8694W        W24163   6.755  17.772  12.212  0.1039  0.1209  0.0594
 8695W        W24164   5.392   3.684   3.683 -0.0600  0.1360 -0.2557
 8696W        W24165   1.905   3.124   4.391 -0.1298 -0.1809  0.2194
 8697W        W24166   7.420  15.022   5.283  0.1001  0.1165  0.3720
 8698W        W24167  16.463   5.383  10.814 -0.1407 -0.2267  0.0694
 8699W        W24168  13.297   8.429  12.193  0.0847 -0.0314  0.1264
 8700W        W24169   2.571   8.858   0.225 -0.2108 -0.0896  0.0742
 8701W        W24170  16.961   4.875   3.258 -0.0411 -0.0729  0.1205
 8702W        W24171   7.026  11.089  13.654  0.0348 -0.1553  0.1158
 8703W        W24172  14.488  11.101   0.637  0.1567 -0.0242 -0.0556
 8704W        W24173   7.188  13.005  12.639 -0.2625 -0.2187  0.2328
 8705W        W24174  10.033  11.634   2.105  0.0217 -0.0502  0.2293
 8706W        W24175  12.413  12.960   5.259 -0.1527 -0.0385  0.0372
 8707W        W24176  16.778  13.421  10.177  0.1346 -0.0536 -0.1451
 8708W        W24177   9.388  15.566   4.959 -0.1314 -0.1785  0.0068
 8709W        W24178   2.775  13.432   9.502 -0.0327 -0.1423  0.3220
 8710W        W24179   0.593  10.993   2.177 -0.0544 -0.0380 -0.1431
 8711W        W24180   2.458  14.701   2.385  0.0561 -0.3234  0.1665
 8712W        W24181  10.964   7.184   4.598  0.3144 -0.2050 -0.1841
 8713W        W24182  17.040   6.029   1.886 -0.0283 -0.1417  0.1379
 8714W        W24183   0.426   1.964  13.547  0.2233 -0.0529  0.0318
 8715W        W24184  18.484   0.689  10.293 -0.1797  0.4101  0.1063
 8716W        W24185   9.003   6.271   3.009 -0.1578  0.1592 -0.0487
 8717W        W24186   5.851   3.420   0.677  0.4166 -0.0310  0.0465
 8718W        W24187  17.245  18.832  11.954  0.0611 -0.0162 -0.1560
 8719W        W24188   1.785   3.817   3.697 -0.1037  0.2385 -0.0041
 8720W        W24189   6.747  13.386   0.160  0.1222 -0.0520 -0.0760
 8721W        W24190  16.840  10.353   2.145  0.0472 -0.2533 -0.3776
 8722W        W24191   2.548   3.558   2.869 -0.3382 -0.1477  0.2076
 8723W        W24192  15.989  10.934   3.175 -0.2284 -0.3013 -0.2966
 8724W        W24193   6.439  17.739   1.192 -0.0991  0.2124  0.2604
 8725W        W24194  14.331  15.737   3.633 -0.0671  0.4000 -0.1854
 8726W        W24195  13.442   0.455   2.803  0.4388  0.4001  0.0786
 8727W        W24196   3.709   4.758  15.154 -0.0536  0.1072 -0.2508
 8728W        W24197   8.916  10.438   1.825 -0.1333  0.2486  0.0004
 8729W        W24198  14.453  11.583  12.973  0.1000 -0.3575 -0.3369
 8730W        W24199   9.147   6.911   3.869 -0.0225  0.2259  0.1781
 8731W        W24200  11.746   4.841  15.172  0.0249 -0.0941 -0.3667
 8732W        W24201   6.353   0.704   2.436  0.2098 -0.3411 -0.0020
 8733W        W24202  12.967  12.725   4.702  0.0923 -0.1090  0.2643
 8734W        W24203  15.270   5.319   3.266  0.1741  0.0481  0.1196
 8735W        W24204  12.246  12.766  14.812 -0.1367  0.1615 -0.1314
 8736W        W24205  18.266   8.189   2.532  0.2586  0.1974  0.0081
 8737W        W24206  14.742  10.973  11.187  0.0569 -0.1865 -0.0206
 8738W        W24207   6.278   1.569   0.468 -0.2043 -0.0660  0.0193
 8739W        W24208   2.108  16.305   0.427  0.1926  0.0910  0.0317
 8740W        W24209   8.292  15.382   5.636  0.2004  0.1701 -0.2901
 8741W        W24210  17.238   8.508  13.331  0.2096 -0.2580 -0.1442
 8742W        W24211   9.489  12.351   4.322  0.0566  0.2506  0.3266
 8743W        W24212   9.210   2.757  11.255 -0.4575  0.4073  0.0764
 8744W        W24213   3.912   0.635  14.899 -0.0826  0.1727 -0.0923
 8745W        W24214   8.946   9.016   4.573  0.0624 -0.1481  0.1858
 8746W        W24215   2.411  10.299   0.515  0.3631  0.0525 -0.3157
 8747W        W24216  15.062   3.861   4.936 -0.1823  0.2061 -0.1715
 8748W        W24217  12.611   8.125  12.733 -0.1145 -0.1383 -0.0730
 8749W        W24218  10.238  13.397   1.172  0.0493 -0.1760 -0.0003
 8750W        W24219   8.106   7.668   1.056  0.0719 -0.1225 -0.2382
 8751W        W24220   0.992   9.964   2.954 -0.2404 -0.2589 -0.1135
 8752W        W24221   2.305  18.931   9.723 -0.1223 -0.1551 -0.2700
 8753W        W24222  11.812  16.401  14.976  0.4027  0.0314 -0.1783
 8754W        W24223   3.494   0.745   0.863  0.1420 -0.1205 -0.0278
 8755W        W24224   6.849   4.195  12.296 -0.4732 -0.0765  0.1002
 8756W        W24225  11.182   4.927   5.382 -0.3040  0.1321  0.0242
 8757W        W24226  18.734   7.756   0.164 -0.1025  0.0354 -0.4276
 8758W        W24227  16.362  12.607  11.670 -0.2159  0.1760  0.2168
 8759W        W24228   2.672  10.073  10.417 -0.1650 -0.0488  0.2331
 8760W        W24229   7.507   0.156   3.393  0.2988 -0.0840  0.2565
 8761W        W24230  11.867  12.088   0.252 -0.2776 -0.1971 -0.0940
 8762W        W24231   0.127   3.466  12.764 -0.0049 -0.2614  0.0152
 8763W        W24232   1.706  16.760  15.234  0.4103 -0.2703  0.0171
 8764W        W24233   5.338   8.992  13.899 -0.2372 -0.0667  0.1249
 8765W        W24234  17.425   1.587   0.995  0.0036  0.0032  0.0731
 8766W        W24235   6.514   8.504   5.953 -0.5062 -0.2370 -0.2128
 8767W        W24236  17.650   0.341  13.672  0.1552 -0.0268  0.3676
 8768W        W24237  10.878  10.693  12.290  0.1213 -0.3342  0.2634
 8769W        W24238  13.432   1.949  11.614  0.1740  0.2142 -0.1926
 8770W        W24239   2.402  17.819   2.443  0.0557  0.1423  0.1422
 8771W        W24240  13.250   4.605  14.583  0.0541  0.0861  0.0697
 8772W        W24241  13.808   3.342  12.918  0.1687  0.1851  0.0823
 8773W        W24242   4.238  10.683   2.461  0.1695  0.0579  0.0581
 8774W        W24243   5.729   6.446  13.563 -0.1115  0.0993 -0.1803
 8775W        W24244   4.501   6.961   3.698 -0.1908  0.0226  0.2479
 8776W        W24245   6.170  14.573   3.148 -0.0399  0.0972  0.2725
 8777W        W24246  10.319   9.590  13.693 -0.0628 -0.3476  0.3087
 8778W        W24247   7.072   6.927   2.330 -0.0650 -0.1224  0.2593
 8779W        W24248  10.719  16.488   1.936 -0.0673 -0.1009  0.1611
 8780W        W24249  15.695  15.450   1.241 -0.0746 -0.0525 -0.2708
 8781W        W24250  12.065  15.855   1.128  0.0384  0.0527  0.5117
 8782W        W24251   3.252   5.812  13.805 -0.1521  0.2311  0.0507
 8783W        W24252   3.255   2.167   4.859  0.3225  0.2499 -0.0705
 8784W        W24253   5.423  12.895   3.581  0.0179  0.1139 -0.0528
 8785W        W24254  11.993   5.109   0.635  0.0441  0.1257  0.0842
 8786W        W24255   1.142   1.913   1.206  0.0714 -0.0740 -0.0199
 8787W        W24256  13.446  18.933   6.142  0.0112 -0.0436  0.3242
 8788W        W24257   3.596   8.194  13.480  0.2835 -0.3477 -0.0016
 8789W        W24258   4.273  14.620   2.220 -0.0648  0.1469  0.2802
 8790W        W24259   9.973  15.044  12.025  0.0594  0.1538 -0.1665
 8791W        W24260  11.711  13.419   0.054 -0.1966  0.2699  0.1755
 8792W        W24261   7.658  18.128  14.962 -0.0124 -0.1824 -0.0173
 8793W        W24262   3.317  12.967  10.818 -0.1738  0.2370 -0.2433
 8794W        W24263  18.944  16.913   0.328  0.2344 -0.1660 -0.2288
 8795W        W24264   0.114  16.711  13.487 -0.1989  0.0500  0.1308
 8796W        W24265   9.454  12.129  14.611  0.2163 -0.0136 -0.2528
 8797W        W24266   2.453  18.004   1.956 -0.0149 -0.1754  0.1543
 8798W        W24267   1.276   0.541  12.437 -0.1265  0.0378 -0.1027
 8799W        W24268   2.316   7.023  13.113  0.0603  0.0630  0.0828
 8800W        W24269   1.517   1.484   4.194 -0.0979 -0.3940 -0.0110
 8801W        W24270  17.674   5.486   5.369  0.0372 -0.0743  0.0854
 8802W        W24271   2.073  13.225  12.153  0.1127 -0.1086 -0.4346
 8803W        W24272   3.881  12.419   0.028  0.0045  0.3848  0.1137
 8804W        W24273   5.663  12.966   0.343 -0.0765 -0.1974  0.2758
 8805W        W24274  17.940   8.918   4.780  0.1601  0.3582 -0.2939
 8806W        W24275   2.437  15.285   4.169  0.3401  0.2230 -0.2055
 8807W        W24276   7.382   6.525   0.549 -0.4591  0.2744 -0.0829
 8808W        W24277  13.313  10.795   0.174  0.2418 -0.0891  0.0646
 8809W        W24278  12.944  12.086  11.955 -0.2455  0.1026 -0.1816
 8810W        W24279   7.534  11.557  12.048  0.0404 -0.0763  0.1200
 8811W        W24280   3.817  10.807  12.671  0.0396  0.0279 -0.0944
 8812W        W24281  16.503   9.815  13.733 -0.2943  0.0643 -0.0688
 8813W        W24282  13.710  10.277   2.572 -0.0072 -0.1192 -0.0982
 8814W        W24283  10.442   9.809   5.005  0.1293 -0.1760  0.0318
 8815W        W24284  16.822  17.913   0.994 -0.2321  0.1886 -0.1368
 8816W        W24285  16.414   0.814   9.813 -0.0285  0.3076  0.0856
 8817W        W24286  17.912  14.168   2.964 -0.1219  0.0429 -0.2362
 8818W        W24287   8.741   9.540   4.342  0.0432  0.0781  0.3601
 8819W        W24288   6.186   4.854   4.986  0.2893 -0.3465 -0.1650
 8820W        W24289  11.083   8.432  15.255  0.0481 -0.0476 -0.3297
 8821W        W24290   2.574  17.453  11.592  0.1957 -0.0565 -0.0429
 8822W        W24291   7.175   5.629  10.896 -0.0066 -0.0468  0.0314
 8823W        W24292   3.973   5.853   2.889 -0.1025 -0.1435 -0.5212
 8824W        W24293  17.529  13.182  12.013 -0.0225  0.0327  0.1007
 8825W        W24294   6.703   8.161   2.951 -0.0840 -0.2465 -0.0138
 8826W        W24295   2.419  14.212  13.865  0.0955  0.0792  0.0835
 8827W        W24296  18.065   4.014   1.568  0.0278  0.4675 -0.0702
 8828W        W24297   4.095  11.205  14.821 -0.1571 -0.0275  0.0884
 8829W        W24298   9.773   3.061   5.547 -0.1550  0.1140  0.0052
 8830W        W24299   7.906   7.946   1.443  0.0960 -0.0533  0.2125
 8831W        W24300   3.357  18.131   1.941  0.0749  0.1631  0.4393
 8832W        W24301   4.288  17.670  12.624  0.2042  0.1518  0.1432
 8833W        W24302  17.781  12.420   0.081  0.0751  0.2511 -0.4029
 8834W        W24303   9.948  16.417   0.008 -0.2093 -0.2987 -0.0125
 8835W        W24304   5.376   6.803   3.080 -0.3486  0.0106 -0.0234
 8836W        W24305   8.960  14.532   0.821 -0.0263  0.0362 -0.0570
 8837W        W24306   9.045   3.035   0.294 -0.1295  0.0384  0.1388
 8838W        W24307  14.799  17.277  14.282 -0.1551  0.0892  0.1399
 8839W        W24308   0.447   0.141   9.216 -0.2413 -0.5153  0.1088
 8840W        W24309   3.335   3.493  13.848  0.1289 -0.3884 -0.1394
 8841W        W24310   1.220   6.218   2.518 -0.4448  0.1831  0.0951
 8842W        W24311  15.911  11.562   0.869  0.0432  0.1140  0.1122
 8843W        W24312   1.666   7.757   3.248  0.1004 -0.1500 -0.3201
 8844W        W24313   7.895   5.919  11.259  0.0895 -0.0999  0.1626
 8845W        W24314  16.350  12.795   5.485 -0.1774 -0.2944 -0.0061
 8846W        W24315   8.144   2.686  11.648  0.1669 -0.1980  0.1551
 8847W        W24316   3.273   1.756   2.923 -0.0258  0.2859  0.0061
 8848W        W24317  13.856  16.855  14.072  0.1392 -0.2184  0.0709
 8849W        W24318  18.345  12.490  12.100 -0.5142  0.0180 -0.1235
 8850W        W24319   9.140  17.668  10.861  0.2259  0.2525 -0.0948
 8851W        W24320  14.421   5.678   1.098  0.2256 -0.0191  0.4532
 8852W        W24321  12.810   3.261   3.299 -0.2157 -0.0734  0.0024
 8853W        W24322   1.354   2.986   4.896 -0.0400  0.0231  0.0019
 8854W        W24323  11.174  11.931   2.810  0.1104  0.0974 -0.2044
 8855W        W24324   3.644  18.707   2.341  0.1854  0.0930 -0.0289
 8856W        W24325   5.552   8.841   3.370 -0.1765  0.5490 -0.1702
 8857W        W24326   9.505   4.144  15.279  0.0496 -0.1454 -0.2662
 8858W        W24327   8.129  10.522   1.231 -0.2062  0.2190  0.0826
 8859W        W24328   3.987  12.180  12.403 -0.0601 -0.2188 -0.2155
 8860W        W24329  18.051   0.982  14.431  0.0559 -0.1834  0.2484
 8861W        W24330   7.792   3.078   4.359  0.1928  0.1896  0.0511
 8862W        W24331   9.969  17.485   2.439 -0.2825 -0.1801 -0.0918
 8863W        W24332   2.266   6.071  13.243 -0.1686 -0.0770  0.0799
 8864W        W24333   0.760  14.954   0.424  0.0743  0.0998 -0.1476
 8865W        W24334  17.655  14.298   1.948  0.0295 -0.1649  0.0580
 8866W        W24335  11.480   1.785  12.697  0.0109  0.0114  0.1270
 8867W        W24336   5.029  13.787   0.620 -0.0609 -0.1204  0.0555
 8868W        W24337  10.826   8.742   5.351 -0.0864 -0.0454 -0.0653
 8869W        W24338   4.110  16.150   2.686  0.0088  0.2457 -0.0757
 8870W        W24339   5.547  11.691  10.368 -0.0636  0.1410  0.0632
 8871W        W24340  11.415   9.722  10.012  0.1724 -0.2472  0.1483
 8872W        W24341  18.672  15.041   3.070 -0.1262 -0.0146  0.0231
 8873W        W24342  16.772  15.398  13.561  0.1437  0.0751  0.1195
 8874W        W24343   5.842  17.112   6.051 -0.0487  0.0852 -0.2003
 8875W        W24344   0.803   0.295   0.450 -0.0359  0.2097 -0.1001
 8876W        W24345   6.728   8.478  11.966  0.0378  0.0531  0.0474
 8877W        W24346   1.899   1.757   4.279  0.1296  0.1901 -0.0220
 8878W        W24347  11.072  11.619   3.197  0.0502 -0.0487  0.2663
 8879W        W24348   0.305  10.278   1.671  0.1489  0.0617  0.1577
 8880W        W24349   8.227  12.135  12.885 -0.1011 -0.2309 -0.0217
 8881W        W24350   0.035  18.325  15.157 -0.1549 -0.0877  0.0928
 8882W        W24351  18.322   9.943  12.692  0.0358  0.0492  0.2149
 8883W        W24352  15.877  13.988   5.729  0.3549  0.1312 -0.1679
 8884W        W24353  15.820  11.830   0.402  0.0484  0.3479 -0.1769
 8885W        W24354   5.454   3.662   5.878  0.1086  0.2158  0.2597
 8886W        W24355   0.474   3.165   4.515  0.2589  0.3689 -0.0112
 8887W        W24356  13.542   2.388   2.774  0.0977  0.2370  0.0235
 8888W        W24357   0.004   6.703  13.063 -0.1573  0.0457  0.0441
 8889W        W24358   6.538   9.106   2.848 -0.0461  0.1763 -0.2080
 8890W        W24359  13.510   6.844  12.829  0.1739 -0.0200 -0.0497
 8891W        W24360   8.712  18.301   4.755 -0.2205 -0.1821  0.0578
 8892W        W24361   0.856  14.745   2.503  0.0776 -0.1816  0.1824
 8893W        W24362   0.556   8.921  10.886 -0.0010 -0.0475 -0.2403
 8894W        W24363   2.094  12.435   2.324 -0.1417  0.0862 -0.2602
 8895W        W24364   4.012   4.567  10.221 -0.2121 -0.0417 -0.1536
 8896W        W24365   9.303   6.207   1.528 -0.1814  0.0403  0.1015
 8897W        W24366  10.841   3.098   1.206  0.0276 -0.2398 -0.1020
 8898W        W24367   0.871   2.316   0.993 -0.0198  0.0083  0.0357
 8899W        W24368  15.241   7.573   4.013  0.0341  0.2667  0.5350
 8900W        W24369   6.121  15.440  14.400  0.2436 -0.1868  0.2249
 8901W        W24370   8.154  15.812  13.189 -0.1661  0.2015 -0.5919
 8902W        W24371   3.463  14.156  13.948  0.0523  0.1604 -0.0339
 8903W        W24372  17.722  10.943  12.292  0.2033 -0.1070 -0.2906
 8904W        W24373   7.025   0.284   1.563 -0.0122  0.0593 -0.2533
 8905W        W24374  12.996   5.284   4.967 -0.0357 -0.1233 -0.0893
 8906W        W24375  17.989  11.403   0.057 -0.1154 -0.0580  0.1496
 8907W        W24376  13.624  10.453  13.374  0.4080  0.3833  0.4764
 8908W        W24377   1.707   1.422   5.228  0.0813 -0.0396 -0.1863
 8909W        W24378   6.332  11.395  15.131  0.5474  0.1499 -0.1123
 8910W        W24379   1.941  18.724   2.418 -0.2225 -0.5488  0.0408
 8911W        W24380  15.840   3.264  13.768 -0.0122  0.4695  0.1019
 8912W        W24381   0.854  13.288   3.898  0.0049  0.0273 -0.1653
 8913W        W24382  15.562   0.828   1.982  0.2054  0.1545  0.3407
 8914W        W24383  12.645   1.805  14.352 -0.1851  0.0890 -0.2740
 8915W        W24384  15.750   7.609  14.393 -0.1179  0.1179  0.3432
 8916W        W24385  13.981   4.177  10.764  0.0611 -0.3547  0.2055
 8917W        W24386   3.773  15.802  13.086 -0.2043 -0.3922 -0.0735
 8918W        W24387  17.193   8.355   2.008  0.3063  0.1987 -0.2589
 8919W        W24388  16.803  10.095  13.461  0.2505 -0.3189  0.1564
 8920W        W24389   0.174   7.118  12.572  0.0908  0.3604  0.0191
 8921W        W24390   2.899   0.211  15.004  0.1822  0.1603 -0.1013
 8922W        W24391   0.443  15.616  12.259 -0.3062  0.0099 -0.0724
 8923W        W24392   3.699  13.084   1.433 -0.1620  0.0458  0.0850
 8924W        W24393  15.545  15.404   4.164  0.0413  0.1558 -0.1942
 8925W        W24394   8.182   4.494   0.875 -0.2851 -0.2821 -0.0390
 8926W        W24395  10.573   0.455  10.513  0.2876  0.3319  0.3397
 8927W        W24396  16.046   0.729   0.220 -0.3105 -0.2811  0.3043
 8928W        W24397   8.939   6.608  12.491 -0.2791 -0.3976  0.0097
 8929W        W24398  15.335  10.788  13.856  0.0641 -0.1710 -0.0247
 8930W        W24399   0.070   7.275   4.530  0.1959  0.1139 -0.0272
 8931W        W24400   4.662  11.988   4.206  0.0884 -0.1822 -0.5021
 8932W        W24401  16.705  15.491   3.340 -0.1166 -0.0777 -0.1899
 8933W        W24402  18.052  15.265   4.179  0.1845 -0.2183  0.1797
 8934W        W24403   7.729   4.248  14.022  0.1110  0.0539  0.1679
 8935W        W24404   0.673  11.194  13.685  0.2849  0.1696  0.2100
 8936W        W24405   8.476   2.176  11.735  0.0050  0.0918  0.1258
 8937W        W24406   4.487   3.433  10.655 -0.1406 -0.2032  0.1912
 8938W        W24407  17.131   2.306  13.925  0.4613 -0.3985 -0.2340
 8939W        W24408   5.230  11.276   0.537  0.1549  0.2052  0.2311
 8940W        W24409   3.579  12.757   0.731  0.0359 -0.0844  0.0588
 8941W        W24410   6.378   5.715  10.711 -0.2513  0.2551  0.1332
 8942W        W24411   9.453   3.154   4.244 -0.0429  0.3495  0.0615
 8943W        W24412  12.515   3.376   1.383  0.0911 -0.1460 -0.1027
 8944W        W24413  13.729  13.328   0.863  0.1289  0.1660 -0.1441
 8945W        W24414  12.204  13.679  14.786 -0.1823  0.0675  0.0825
 8946W        W24415  11.046   2.181  12.326  0.0935  0.0777  0.6187
 8947W        W24416   3.984  15.754   3.082  0.0846  0.1436  0.0906
 8948W        W24417  15.697  14.103  10.184  0.2759  0.1473  0.1368
 8949W        W24418   3.016   2.173  11.849  0.1055 -0.0869  0.0709
 8950W        W24419  16.630  11.654   4.665 -0.1992  0.4561 -0.1646
 8951W        W24420  15.498  18.919  13.664 -0.2816  0.1153 -0.0886
 8952W        W24421  11.067   2.116   5.056  0.3103 -0.0349 -0.1228
 8953W        W24422   5.843   6.535  11.515 -0.1903 -0.0080 -0.1860
 8954W        W24423  14.815  14.765  12.359  0.0990  0.1178 -0.0430
 8955W        W24424   3.060   4.241   5.272 -0.0095 -0.1954 -0.2528
 8956W        W24425   2.243   2.156   4.335  0.1032 -0.2004  0.0465
 8957W        W24426  16.750   9.213   0.882 -0.2664 -0.3830  0.2544
 8958W        W24427   2.803   4.768  12.595 -0.1814  0.1470  0.0785
 8959W        W24428   9.838   8.985   3.479  0.0812  0.1107 -0.0391
 8960W        W24429   2.412   8.420  12.895 -0.0966  0.2003  0.1621
 8961W        W24430   3.186   4.886  13.405  0.0865 -0.1480  0.1692
 8962W        W24431  14.406   6.101  12.498 -0.1171 -0.3365  0.0608
 8963W        W24432  16.062  17.303  11.915  0.0247 -0.1967  0.0514
 8964W        W24433  17.170  16.558   9.972 -0.0108 -0.0397 -0.0497
 8965W        W24434  15.120   5.620  11.440  0.1538  0.1087  0.0220
 8966W        W24435  15.844  18.509  10.555  0.1340  0.2724 -0.3174
 8967W        W24436   1.732  18.583  10.687 -0.1708  0.1647  0.1478
 8968W        W24437   8.411   1.981  14.180  0.2636  0.3705  0.1942
 8969W        W24438  18.742  16.820  13.114  0.0845  0.1519  0.1767
 8970W        W24439   5.246   2.051   5.604  0.2932  0.1371 -0.0381
 8971W        W24440  18.256   2.515  12.228  0.0836 -0.0692  0.1121
 8972W        W24441  15.104  10.115  14.700 -0.1936 -0.2495 -0.1023
 8973W        W24442   3.609  15.328  12.169  0.2417 -0.0496  0.0887
 8974W        W24443  14.915  16.061   0.186 -0.0880  0.1189  0.0795
 8975W        W24444   2.554   9.838   1.521  0.2734  0.1041  0.0369
 8976W        W24445   3.359   0.049   3.981 -0.3690  0.0297 -0.1295
 8977W        W24446  10.774  15.030   2.754  0.0687  0.1074 -0.0205
 8978W        W24447   6.953   7.975  14.070 -0.0372 -0.1934 -0.0190
 8979W        W24448   2.521   1.811   4.044 -0.0833  0.0207 -0.0357
 8980W        W24449  12.749   4.648  14.456  0.2944 -0.2493  0.1800
 8981W        W24450   3.241   3.384  14.768 -0.0234 -0.1614  0.0558
 8982W        W24451  14.121   6.550  10.567  0.0224  0.2098  0.2586
 8983W        W24452   7.937   6.401   0.073 -0.2837 -0.0189 -0.6174
 8984W        W24453  10.705   3.193  11.092 -0.0497  0.0109 -0.0019
 8985W        W24454   1.610   6.412   4.168 -0.0640 -0.0400  0.0022
 8986W        W24455  13.862  11.670   2.897  0.2811  0.0204 -0.0411
 8987W        W24456   8.014   7.809  10.442 -0.0359 -0.0265  0.1870
 8988W        W24457   1.837   9.071   3.482  0.0842  0.0701  0.0614
 8989W        W24458   7.879   3.089   5.128 -0.0449 -0.1446 -0.0303
 8990W        W24459  11.397   6.874   3.616  0.2736  0.1240  0.0935
 8991W        W24460   9.366   9.405  12.619 -0.0107  0.2081 -0.1046
 8992W        W24461   7.150  10.291   0.135 -0.1683 -0.1633  0.1597
 8993W        W24462   0.051   2.829  10.533 -0.0239  0.0061 -0.0394
 8994W        W24463   9.920   6.185  12.902  0.0216 -0.0865 -0.1466
 8995W        W24464  13.331   5.981   9.719  0.3797 -0.1636  0.3257
 8996W        W24465  15.414   4.390   1.202 -0.2078  0.3441  0.2226
 8997W        W24466   3.236  14.948  11.131  0.1159 -0.2921  0.2853
 8998W        W24467  10.236  18.249  12.621  0.1026 -0.4652 -0.2088
 8999W        W24468   2.913   4.252   0.212 -0.0680 -0.2170 -0.0855
 9000W        W24469  15.655  16.069   1.794  0.3430  0.0618  0.1450
 9001W        W24470   5.645   8.574  14.596 -0.1248  0.0727 -0.1398
 9002W        W24471  17.959   4.444  11.224 -0.0898  0.0616  0.1090
 9003W        W24472  13.463   6.694   4.819  0.2811 -0.1987 -0.1240
 9004W        W24473   0.387   8.270   0.680 -0.0495 -0.1192  0.1404
 9005W        W24474  12.524   6.732   3.322  0.1917 -0.0752  0.0908
 9006W        W24475  14.551   1.279  12.772 -0.0722 -0.1307  0.0196
 9007W        W24476   9.221   0.656   5.473 -0.3886 -0.1662  0.2563
 9008W        W24477  11.563   7.116  14.552 -0.0721 -0.0344  0.0018
 9009W        W24478   5.966  12.906   2.629  0.0637  0.0530 -0.0700
 9010W        W24479  15.812   0.489   1.710  0.2084 -0.2409  0.0903
 9011W        W24480   5.886  12.082   3.849  0.2999  0.2822  0.1928
 9012W        W24481  10.728  14.666  13.746 -0.4919 -0.3454  0.1552
 9013W        W24482  15.744   2.259  12.601 -0.0769 -0.0973  0.2162
 9014W        W24483  18.223  16.672  11.553  0.0922  0.0353  0.3301
 9015W        W24484   0.583  17.150   1.329  0.0795 -0.5185  0.3853
 9016W        W24485  10.463  11.706   4.791  0.0413  0.1553  0.5445
 9017W        W24486   0.155   0.149  13.284  0.2834  0.2577 -0.2008
 9018W        W24487   0.392   4.541  13.576  0.2014  0.1633  0.1440
 9019W        W24488  11.429  18.539  14.560  0.1929  0.2604 -0.1345
 9020W        W24489   2.820   9.203  10.840  0.1021 -0.0223  0.0084
 9021W        W24490   0.544   7.151  10.761 -0.1748  0.4258  0.1632
 9022W        W24491   6.119   9.369  11.792 -0.1283 -0.1814 -0.1108
 9023W        W24492  10.673  12.947   2.133 -0.2146 -0.2632 -0.2815
 9024W        W24493  15.950  12.651   3.182  0.0114 -0.0423 -0.0742
 9025W        W24494   1.649  18.536   3.479  0.1532 -0.2172  0.1766
 9026W        W24495   7.583  16.898   0.444  0.3545 -0.3999 -0.1285
 9027W        W24496  18.410  10.354  12.956  0.1452 -0.1060 -0.2762
 9028W        W24497   5.138   2.200   3.541 -0.1818 -0.2396  0.1621
 9029W        W24498   2.504   1.823   6.070  0.0453  0.1971 -0.0372
 9030W        W24499  16.511  16.701  11.714 -0.0766 -0.0233  0.5489
 9031W        W24500   1.063  10.524  13.272  0.2106  0.2069  0.0716
 9032W        W24501  10.235  11.660   0.536  0.1554 -0.0445  0.0071
 9033W        W24502   1.688  13.489   4.140 -0.0951 -0.4278 -0.4123
 9034W        W24503  12.792  10.430   0.916  0.1803 -0.0584  0.2092
 9035W        W24504  17.239   1.985  10.817 -0.0229  0.0568 -0.0412
 9036W        W24505  13.657   7.262  10.792  0.0058  0.1615 -0.0770
 9037W        W24506   4.156   2.554   5.619 -0.2196 -0.1962 -0.0115
 9038W        W24507  16.513   5.264  11.310  0.4665 -0.0915  0.0706
 9039W        W24508  10.310  18.263  12.099 -0.0176  0.2991  0.1195
 9040W        W24509   0.183  18.150  12.104  0.1132 -0.1606  0.0947
 9041W        W24510   3.119   0.186  10.896 -0.0432 -0.5042  0.2230
 9042W        W24511   7.678   0.685   1.312 -0.0593  0.1415 -0.1275
 9043W        W24512   6.268   6.662  10.966  0.1702 -0.2111  0.0546
 9044W        W24513   9.011   1.858  10.620  0.1159 -0.0987 -0.3918
 9045W        W24514  19.032  16.657   3.422 -0.0035 -0.3021 -0.0980
 9046W        W24515   2.626  12.012  12.461  0.0430  0.1394 -0.0901
 9047W        W24516  12.695   7.907  14.656  0.1266  0.2496 -0.0768
 9048W        W24517   8.063  16.194   4.647 -0.3283  0.2036 -0.1365
 9049W        W24518   1.728   2.594  12.100  0.0020  0.4108 -0.1501
 9050W        W24519   6.133   0.337  10.761  0.1110  0.1636  0.2301
 9051W        W24520   2.371  11.728  12.908 -0.1270  0.2360  0.2032
 9052W        W24521   4.804   7.197   1.878  0.3091 -0.0355 -0.0441
 9053W        W24522  16.956   9.301   1.723  0.3965 -0.0084  0.1171
 9054W        W24523   4.290  10.192   2.421 -0.3000  0.0266  0.0318
 9055W        W24524   3.966  13.587   0.094  0.2201  0.0123 -0.2227
 9056W        W24525   5.229   7.386   1.924  0.1408  0.2275 -0.2231
 9057W        W24526  16.215   6.436  10.629  0.3232  0.1682 -0.0575
 9058W        W24527  16.385  17.690   1.372  0.3034  0.0035 -0.0500
 9059W        W24528  15.823  10.247   4.956 -0.0106 -0.0158  0.0039
 9060W        W24529   2.689  12.904  12.759 -0.1003 -0.2676 -0.2160
 9061W        W24530   5.851  14.365  14.693  0.0505 -0.0338 -0.1061
 9062W        W24531   6.213  16.950   3.204  0.0167  0.1584 -0.0222
 9063W        W24532   1.190  17.278  10.157  0.0162 -0.1096  0.0997
 9064W        W24533   4.067  13.017  12.192 -0.0776  0.1330  0.4358
 9065W        W24534  13.697   7.202   4.032  0.0031 -0.3974  0.0580
 9066W        W24535  18.421  10.658  13.515 -0.1047  0.3005 -0.2800
 9067W        W24536  18.856   9.857  10.509  0.2312 -0.1099 -0.3206
 9068W        W24537   3.089   0.498   2.902 -0.0098 -0.3384 -0.0866
 9069W        W24538  14.073   8.431   4.730 -0.3130  0.0668 -0.0798
 9070W        W24539  14.771   6.875   1.998  0.1980 -0.0146 -0.1675
 9071W        W24540  17.742   4.695   5.092  0.3448  0.3172  0.0629
 9072W        W24541   7.863   6.801   2.243 -0.2124  0.1011  0.1388
 9073W        W24542  18.865  16.598  15.280 -0.3892  0.1311  0.0744
 9074W        W24543  11.059   9.852  12.988  0.0447  0.2706  0.2654
 9075W        W24544   1.045  11.783  11.287 -0.0725 -0.1109  0.2317
 9076W        W24545   5.623   2.732  13.858 -0.0843 -0.2885 -0.0391
 9077W        W24546   5.600   0.219  13.659  0.1633  0.1227  0.2044
 9078W        W24547  18.899   6.067  11.116  0.1545  0.4245 -0.1050
 9079W        W24548  10.911  10.277   2.804  0.0330 -0.3595 -0.3081
 9080W        W24549   3.797  16.987  12.191 -0.0480 -0.1534  0.1935
 9081W        W24550   1.400  17.591   3.785  0.2244 -0.3741  0.4473
 9082W        W24551   2.172  17.659  11.848 -0.0313 -0.0145  0.4272
 9083W        W24552   9.753   6.468  14.175  0.2551  0.1800  0.2812
 9084W        W24553   6.622   1.584   4.334  0.0551 -0.0783 -0.2307
 9085W        W24554  14.787   6.876  11.315  0.1074  0.0880  0.3846
 9086W        W24555   4.210  13.029  14.859  0.1270 -0.4218 -0.1450
 9087W        W24556  13.773  15.924   4.830 -0.0032 -0.0123 -0.0521
 9088W        W24557  17.089   3.860  13.357 -0.3368  0.2872 -0.0109
 9089W        W24558  11.436  15.316   4.777 -0.0007  0.1331  0.0252
 9090W        W24559   0.390  15.702   5.062 -0.0226 -0.0276  0.1923
 9091W        W24560   2.591  18.782   4.346 -0.4338 -0.4909 -0.2186
 9092W        W24561  10.999  18.917  12.394 -0.0306  0.0964  0.0950
 9093W        W24562  11.168   0.253   5.180  0.4927  0.2183  0.1180
 9094W        W24563  14.139   3.177   2.723 -0.0416 -0.0561 -0.1357
 9095W        W24564  15.604   3.848   3.083  0.4631 -0.1125  0.0630
 9096W        W24565   3.157  16.149   4.581  0.1368 -0.1236  0.2688
 9097W        W24566   3.556  10.402   4.172 -0.0118  0.1885  0.0309
 9098W        W24567  18.335   8.858  14.808 -0.2677  0.3392  0.3381
 9099W        W24568   5.994   9.455  10.820  0.1901 -0.1994 -0.0337
 9100W        W24569  16.462   7.916  10.866 -0.4560  0.2032  0.2804
 9101W        W24570  16.532   6.767  15.049 -0.0361 -0.2362 -0.1690
 9102W        W24571  13.228  12.856  11.031  0.0521 -0.1332 -0.1342
 9103W        W24572  15.389   7.556   9.727  0.2334  0.1525  0.0127
 9104W        W24573   2.311   5.009   0.755 -0.0265  0.4378  0.1317
 9105W        W24574  15.788  17.632   2.766  0.3075  0.1573  0.0377
 9106W        W24575  18.887   4.176  15.151  0.2297 -0.1376 -0.0117
 9107W        W24576  10.878  10.214   1.461 -0.2809 -0.0364 -0.2516
 9108W        W24577   0.643   9.498  11.717 -0.2401  0.0197  0.1087
 9109W        W24578   4.025  10.287  14.721  0.1948 -0.0479 -0.0753
 9110W        W24579  18.740   7.494  15.086 -0.0318 -0.0039  0.0357
 9111W        W24580   0.011   8.040  11.665  0.2048 -0.1306 -0.0699
 9112W        W24581   6.568   7.696  10.235 -0.2793 -0.0189 -0.1024
 9113W        W24582   2.004   3.480  11.948 -0.2284 -0.2368  0.0778
 9114W        W24583  12.842   6.435  15.105 -0.2281  0.0264  0.1338
 9115W        W24584  15.734  10.437   2.465  0.1353  0.1514 -0.1398
 9116W        W24585  13.172  15.643  14.331 -0.1296  0.3618 -0.1097
 9117W        W24586  17.926  15.150   1.573 -0.1297  0.1466 -0.1903
 9118W        W24587  18.844   5.184  12.363 -0.0679  0.0189  0.2221
 9119W        W24588   1.803   3.435  15.087  0.2414 -0.1218 -0.2549
 9120W        W24589  10.061   5.472   4.087 -0.1230 -0.2506  0.2156
 9121W        W24590   3.589  13.601   0.892  0.2144  0.4739  0.0464
 9122W        W24591  13.254  10.201  13.147  0.3641 -0.1591  0.2784
 9123W        W24592  16.266   4.700  10.419  0.0309  0.0831  0.3772
 9124W        W24593   2.234  11.046   5.608  0.1022  0.1354  0.3057
 9125W        W24594  16.677  14.215   1.364  0.1499 -0.2844 -0.1442
 9126W        W24595   6.288  10.320  10.833  0.3716  0.0723 -0.2401
 9127W        W24596   5.875  16.541   6.267 -0.1379  0.0924  0.0483
 9128W        W24597   1.121   1.690  10.423  0.1807 -0.4599  0.1246
 9129W        W24598  12.265  11.372  12.022 -0.0232  0.0991  0.1335
 9130W        W24599  16.087  13.341   5.129 -0.0058  0.2725 -0.2624
 9131W        W24600  13.005   2.402   2.739  0.1417  0.0213  0.0263
 9132W        W24601  14.684   7.445  11.370 -0.1452  0.0278 -0.0746
 9133W        W24602   4.545   0.882   2.514 -0.2253 -0.1792 -0.0647
 9134W        W24603  16.918  12.686  12.606 -0.1147  0.2854  0.0693
 9135W        W24604   4.493   7.129  10.955  0.2778 -0.3167  0.0971
 9136W        W24605  11.615   1.975  13.969 -0.1485 -0.2048 -0.2445
 9137W        W24606  12.323  13.264  11.892  0.1055 -0.4573  0.2386
 9138W        W24607   8.576   7.624  12.662 -0.0158  0.0668 -0.0823
 9139W        W24608  11.314   6.617   0.075  0.1970 -0.0553 -0.1293
 9140W        W24609   5.912   5.038   1.600  0.1774 -0.0096 -0.0597
 9141W        W24610  14.219   2.694  12.291  0.2591  0.1943 -0.2933
 9142W        W24611  10.344   7.648  14.893  0.0237 -0.2091 -0.1285
 9143W        W24612  16.412  11.270  14.059 -0.3745  0.0630 -0.1656
 9144W        W24613  14.336   2.151   1.222  0.0090 -0.1324 -0.2697
 9145W        W24614   4.173   5.582  12.203  0.2968 -0.0353  0.3577
 9146W        W24615   4.301   4.446   3.928 -0.2601  0.4048 -0.0687
 9147W        W24616   7.152   8.913   0.681 -0.1063  0.0392  0.2239
 9148W        W24617  14.259   2.545  13.128 -0.0171 -0.0065 -0.3293
 9149W        W24618  11.310   3.363   4.281 -0.2208 -0.0876 -0.3932
 9150W        W24619   9.311  14.001   5.012 -0.0556  0.1144 -0.0021
 9151W        W24620  17.456  17.965  12.882  0.0609 -0.2979  0.2295
 9152W        W24621  14.119   7.075   1.834 -0.2818 -0.4018  0.3165
 9153W        W24622   5.664  15.309   4.277  0.0624  0.1737 -0.2077
 9154W        W24623   2.446   7.239   2.356  0.0369  0.1203  0.2833
 9155W        W24624   2.206   4.306   1.346 -0.3031 -0.1785  0.0548
 9156W        W24625  11.456   0.608   4.799 -0.2137 -0.1127 -0.1394
 9157W        W24626  14.137  14.411  11.252  0.2680 -0.3392  0.1263
 9158W        W24627  18.086   4.033  13.619 -0.2047 -0.1982 -0.2785
 9159W        W24628  18.702   0.323   1.293 -0.2408  0.1556  0.2350
 9160W        W24629   2.122  12.569   4.120 -0.0450  0.1018  0.2432
 9161W        W24630   4.644   6.167  11.951  0.3372 -0.2499 -0.1793
 9162W        W24631  12.357   4.720  10.627 -0.3937 -0.3181  0.1673
 9163W        W24632  15.669   6.401  11.504 -0.0706 -0.0913  0.0311
 9164W        W24633   0.314  10.972   6.016 -0.1478 -0.3008 -0.0450
 9165W        W24634   5.431   1.713  15.213 -0.1893 -0.0629  0.3298
 9166W        W24635   8.120  12.989   0.690  0.3368 -0.1387 -0.1296
 9167W        W24636  15.490  15.748  11.361 -0.2175 -0.0690  0.1279
 9168W        W24637   6.993  17.127   1.511  0.2634 -0.4384  0.0309
 9169W        W24638  15.134   8.338  11.337  0.1540 -0.0386  0.0564
 9170W        W24639   3.125   4.020  15.100 -0.0490 -0.0006  0.1415
 9171W        W24640   1.120  12.683   5.462 -0.1222  0.3583  0.0809
 9172W        W24641   6.468   9.912   2.366  0.0241 -0.1139 -0.1848
 9173W        W24642   8.245  11.956  12.327 -0.0133 -0.1706 -0.1192
 9174W        W24643  12.225  10.116  12.675 -0.1742 -0.1294 -0.1441
 9175W        W24644  14.690   1.911  11.380 -0.1715 -0.0597  0.1301
 9176W        W24645  17.962   5.007   4.700 -0.0826  0.1049 -0.3661
 9177W        W24646  12.929   3.956  13.731 -0.1540  0.2032  0.0392
 9178W        W24647  12.374  17.418   4.520  0.0965 -0.3538 -0.2513
 9179W        W24648  12.619  15.622   4.164  0.0014  0.1890  0.0960
 9180W        W24649   2.286  15.504  13.260 -0.1775  0.1992 -0.2937
 9181W        W24650  16.966   5.232  10.816  0.2464  0.2505  0.0133
 9182W        W24651  12.189  13.903  12.788 -0.0942 -0.0123 -0.2484
 9183W        W24652   6.607   8.670   0.969  0.2134  0.1262  0.0887
 9184W        W24653  18.530   6.506   0.004 -0.3749  0.1554 -0.3819
 9185W        W24654  15.898   3.287  10.697 -0.1285 -0.0367 -0.0047
 9186W        W24655   4.529   9.988   1.020  0.0976  0.3068 -0.0344
 9187W        W24656  12.775  11.199   1.898  0.1767  0.0959 -0.0035
 9188W        W24657   8.846   1.111   4.701 -0.0167  0.1612 -0.2083
 9189W        W24658  18.044   9.200   3.469  0.1527  0.1442  0.0186
 9190W        W24659   7.527   4.068   5.138 -0.1209 -0.1039 -0.0480
 9191W        W24660  17.898   6.575  14.385 -0.0834 -0.1116  0.0288
 9192W        W24661   2.302  12.381   3.688  0.1029  0.3266  0.0933
 9193W        W24662  18.357  11.682  15.168  0.1707  0.0871 -0.0524
 9194W        W24663  14.131   3.101   4.678  0.3531 -0.1246 -0.2449
 9195W        W24664  12.591   7.679   4.543 -0.0263  0.2138 -0.0955
 9196W        W24665  12.222   0.264   4.779 -0.0925 -0.0712 -0.0557
 9197W        W24666  12.945   5.668  13.594  0.0157  0.3310 -0.2170
 9198W        W24667  11.885  10.690  12.066  0.0498  0.0051 -0.1584
 9199W        W24668  13.894  17.035   1.469  0.0297 -0.2522 -0.0937
 9200W        W24669   3.155  15.256  11.942  0.1487 -0.3781 -0.2036
 9201W        W24670   8.034   8.863   3.463  0.0209  0.0714 -0.1485
 9202W        W24671  15.463  18.603  14.159 -0.0106  0.0889 -0.2469
 9203W        W24672  13.477   6.916   1.113  0.0750 -0.1339  0.2269
 9204W        W24673  19.000  12.180   1.875  0.0023 -0.0020 -0.0032
 9205W        W24674  10.554  18.109  13.000 -0.2346 -0.2358  0.2374
 9206W        W24675  16.324  14.700   1.596 -0.1427 -0.0711 -0.0488
 9207W        W24676   1.829   8.918   1.522  0.2712 -0.0981  0.0044
 9208W        W24677  13.308   7.047  12.035  0.3143  0.0768 -0.1426
 9209W        W24678   3.045  11.848  12.167 -0.0911  0.1778 -0.0702
 9210W        W24679  14.719  16.086  14.736  0.1863 -0.0424  0.0890
 9211W        W24680  13.109   6.347  13.834 -0.1274  0.0353  0.1219
 9212W        W24681  14.574   9.621   2.275 -0.1167 -0.0877 -0.2370
 9213W        W24682   8.938  17.880   1.220  0.0238  0.1409 -0.0156
 9214W        W24683  13.530   2.814   1.969  0.0379  0.0982  0.2729
 9215W        W24684  14.046  10.387   9.561 -0.1784 -0.3954  0.4776
 9216W        W24685  12.691   1.924  13.361 -0.1255  0.0564  0.0512
 9217W        W24686   7.696   6.103   1.442 -0.0651  0.1041 -0.0792
 9218W        W24687  17.362   5.886  11.837 -0.1182  0.3790 -0.2634
 9219W        W24688  18.810   3.856   2.531 -0.2399 -0.0609  0.0761
 9220W        W24689  17.677  18.326  14.065  0.2569  0.0346 -0.1887
 9221W        W24690   6.085   5.260  14.327  0.0284 -0.2646  0.1674
 9222W        W24691  10.202  18.382  10.672 -0.0524 -0.0968  0.1513
 9223W        W24692   4.122   6.774  11.108 -0.0495 -0.1709 -0.0248
 9224W        W24693  17.140   5.848   4.316  0.2559 -0.2532  0.0317
 9225W        W24694   9.207  19.010  13.446 -0.0215  0.1906 -0.0983
 9226W        W24695  13.184   4.627  15.086 -0.1910 -0.0846  0.1254
 9227W        W24696  15.321  18.471   2.147 -0.1924 -0.2541 -0.0336
 9228W        W24697  18.697   1.813  15.330 -0.1757 -0.2553  0.4725
 9229W        W24698   7.709   1.920   2.419  0.0068  0.0113  0.0549
 9230W        W24699   0.858   5.793   0.834 -0.0225 -0.0492  0.1572
 9231W        W24700   8.578   1.661   3.532  0.1340  0.0750 -0.1383
 9232W        W24701   8.594   8.641  14.402 -0.0715 -0.0726  0.3120
 9233W        W24702   3.398   1.213   0.685  0.2797 -0.1220  0.0188
 9234W        W24703   2.450   7.555  13.361 -0.2837  0.0089 -0.1689
 9235W        W24704   2.981  11.421  14.989 -0.0039 -0.1531 -0.1527
 9236W        W24705   3.494   3.524  14.380  0.0169 -0.4250 -0.2110
 9237W        W24706  14.798  18.838   1.139 -0.3512  0.0941  0.1958
 9238W        W24707  15.743   2.306   4.706  0.1694 -0.0819  0.3269
 9239W        W24708   9.778   5.797   4.303  0.3420  0.0317 -0.2894
 9240W        W24709   9.360  11.909   9.600 -0.1754 -0.4808 -0.0487
 9241W        W24710   7.382  11.590  14.393  0.2726  0.1505 -0.1949
 9242W        W24711   7.944  15.879  15.149  0.2203 -0.3689 -0.0736
 9243W        W24712   5.800   6.898   3.298  0.1055 -0.0451 -0.1747
 9244W        W24713  18.736   0.889  10.836  0.0393  0.0705 -0.0716
 9245W        W24714  16.106   6.604  11.429 -0.0360  0.0233  0.1979
 9246W        W24715  10.376   5.404  14.383 -0.2000 -0.0512 -0.0450
 9247W        W24716  18.652   6.975   4.280 -0.0288  0.0661  0.1104
 9248W        W24717  18.637  12.605  14.944  0.0665 -0.0262  0.2344
 9249W        W24718   3.524  12.741   2.737  0.1244 -0.2288  0.1647
 9250W        W24719   4.251   0.099   1.649  0.0277  0.0299 -0.0919
 9251W        W24720   5.759  16.032  10.113  0.1143 -0.0034  0.5010
 9252W        W24721   9.314   2.616   2.338 -0.0012 -0.0705  0.1788
 9253W        W24722   8.582   3.606   1.550  0.3012 -0.1258  0.3943
 9254W        W24723  11.855  14.272  14.673  0.3484  0.1379  0.1399
 9255W        W24724  13.700   1.394   5.405 -0.2695  0.0559  0.0193
 9256W        W24725   7.522  12.458   1.282  0.3679  0.1876  0.0240
 9257W        W24726   1.540  14.017  14.970  0.0381  0.1450  0.2563
 9258W        W24727   1.151  12.809  12.885 -0.0026 -0.3298  0.1358
 9259W        W24728  11.312  14.738  11.732 -0.1211  0.0315  0.2351
 9260W        W24729  13.527  15.736   1.404 -0.2787 -0.1025 -0.1962
 9261W        W24730   6.523  13.270   0.684  0.1534 -0.1593  0.0525
 9262W        W24731   4.447   9.038   0.779  0.3800  0.1009  0.0687
 9263W        W24732  11.131  16.306   1.887  0.1018  0.1537  0.0834
 9264W        W24733  17.202  15.420   5.052 -0.2172 -0.1006  0.1083
 9265W        W24734  10.819  18.527  12.128  0.1048 -0.0809  0.2836
 9266W        W24735  12.399   5.224   0.366 -0.1880  0.2273  0.0171
 9267W        W24736   0.467   7.587  14.301  0.1102 -0.0327 -0.3539
 9268W        W24737  18.542  11.288  12.367  0.0544 -0.1499  0.1181
 9269W        W24738   2.965   8.910  13.183  0.2815 -0.1126  0.2330
 9270W        W24739  13.894  13.938   1.477  0.2274  0.1154 -0.0226
 9271W        W24740  15.064  16.593  10.126 -0.1447 -0.1289  0.2727
 9272W        W24741   4.678   9.749  13.868 -0.1509 -0.3337  0.1738
 9273W        W24742   7.853  12.411  14.445 -0.1497  0.0536 -0.2675
 9274W        W24743  17.708   3.676   2.477 -0.0922  0.1913  0.5417
 9275W        W24744   0.319  10.687  13.455  0.0261 -0.1005 -0.1231
 9276W        W24745   1.061  16.655   0.555 -0.1347 -0.2798  0.1558
 9277W        W24746   2.727  15.509   2.545 -0.1005  0.1167  0.1876
 9278W        W24747  13.934  13.326  10.940  0.2093  0.0745 -0.2103
 9279W        W24748   9.670   0.714  11.486 -0.1229  0.0007  0.0144
 9280W        W24749   2.481   6.770   0.029 -0.3827  0.1099 -0.0403
 9281W        W24750  14.058   4.548   2.741  0.3051 -0.0465 -0.1612
 9282W        W24751   4.804  18.688  15.259  0.0184 -0.0801 -0.2033
 9283W        W24752  13.891  15.990   3.376 -0.3059  0.3948 -0.3030
 9284W        W24753  15.556   8.549   4.568  0.3406 -0.4241  0.4259
 9285W        W24754  14.592  11.428  13.466 -0.1061 -0.2485 -0.1123
 9286W        W24755   1.899   6.216   0.410 -0.2682 -0.2082 -0.1229
 9287W        W24756  18.414   7.181   1.032 -0.2913 -0.2111  0.2168
 9288W        W24757  14.472  12.861  14.515  0.1304 -0.3197 -0.4616
 9289W        W24758   7.018   5.133  12.547  0.1638  0.3396  0.1558
 9290W        W24759  16.703  15.294  14.511 -0.2794 -0.2962  0.1991
 9291W        W24760   4.044   1.679  11.906  0.1652 -0.0842 -0.0517
 9292W        W24761  15.113  13.118   3.578 -0.0545 -0.2565  0.3171
 9293W        W24762  14.056  19.019   0.531  0.2351 -0.0338 -0.1700
 9294W        W24763   8.577  15.443   9.546  0.0155 -0.2441  0.0912
 9295W        W24764  13.000  11.371  12.701 -0.0003  0.0617  0.2097
 9296W        W24765   6.409   4.019  11.498 -0.0303 -0.0153  0.0158
 9297W        W24766  16.673  18.443   1.943 -0.0316  0.0612 -0.0710
 9298W        W24767  13.535  13.014   5.157  0.2240  0.1154  0.0245
 9299W        W24768   9.870   8.282  12.761 -0.0300  0.1161  0.3383
 9300W        W24769   8.104   2.652  12.727  0.4218 -0.1118 -0.0142
 9301W        W24770  13.020  17.669  13.397  0.1492 -0.3248  0.6217
 9302W        W24771   9.705   3.649   4.117 -0.2195  0.5768 -0.1268
 9303W        W24772   3.035  12.989  11.866 -0.0967 -0.3579  0.1856
 9304W        W24773   1.225   1.634   3.774  0.3442  0.0024  0.0699
 9305W        W24774   1.197  15.245  14.640 -0.2105 -0.0937  0.1037
 9306W        W24775   4.647  12.521  12.714  0.0858 -0.2908 -0.3149
 9307W        W24776  15.913   8.771  13.833 -0.2475 -0.1174  0.2009
 9308W        W24777   8.740   2.119   3.088  0.0463 -0.0536  0.4122
 9309W        W24778  16.300   3.798  10.103 -0.0175  0.0356  0.0913
 9310W        W24779  11.361  10.741  13.275 -0.1720  0.0534  0.1045
 9311W        W24780  13.529   7.542   2.611  0.2944  0.0005 -0.4423
 9312W        W24781  13.960   7.222  10.408 -0.2808 -0.3716 -0.1190
 9313W        W24782  16.204   2.639  10.620 -0.2008  0.2092 -0.0285
 9314W        W24783   6.697   4.085  13.715 -0.1972 -0.0309  0.2186
 9315W        W24784  12.958   6.198   0.217 -0.4368  0.0932 -0.0332
 9316W        W24785   2.102  11.167   4.307 -0.2123  0.0745 -0.4482
 9317W        W24786  18.332  17.997   3.217  0.2107 -0.0119 -0.1547
 9318W        W24787   1.567   6.215  11.567 -0.3267 -0.0919 -0.1552
 9319W        W24788   2.234   0.380   3.914  0.1815  0.0412  0.0714
 9320W        W24789  11.490  17.274   5.137  0.4366 -0.0532 -0.3329
 9321W        W24790   1.337  18.509  14.364 -0.0499 -0.1523 -0.0230
 9322W        W24791   4.150   6.325  13.129  0.0594 -0.1170 -0.4931
 9323W        W24792   2.650   1.838  13.122  0.1437 -0.3081 -0.1405
 9324W        W24793  15.336  17.353  14.395  0.1815 -0.1394  0.1538
 9325W        W24794  17.435   0.210  12.125 -0.1698  0.1046 -0.4962
 9326W        W24795   7.447   5.291   4.389  0.1147 -0.0013  0.0944
 9327W        W24796   0.817   4.057   1.271 -0.3324  0.2036 -0.1129
 9328W        W24797  18.099   9.575   9.864 -0.2083  0.4059 -0.0564
 9329W        W24798  11.935   2.452  13.071  0.1880 -0.2332 -0.3960
 9330W        W24799  10.574  18.148  15.257 -0.0106  0.2466  0.3538
 9331W        W24800  14.787  14.103  10.892 -0.0317  0.0155  0.4460
 9332W        W24801  14.639  16.225   1.649  0.1842 -0.1960  0.0812
 9333W        W24802  14.308  14.726   0.362 -0.1436 -0.0284  0.1589
 9334W        W24803   6.425  10.335   5.060  0.1408 -0.0610 -0.2299
 9335W        W24804   7.943   8.741  13.354 -0.1646 -0.0899 -0.1420
 9336W        W24805  14.835   7.309   9.943  0.0335 -0.0734 -0.0818
 9337W        W24806  10.525  13.882   1.955 -0.0229 -0.1017 -0.0497
 9338W        W24807  13.454  12.927   3.831 -0.2057 -0.1747 -0.0062
 9339W        W24808   2.367   6.351   5.928  0.0801 -0.0037  0.0092
 9340W        W24809   2.021   6.918   2.008 -0.2327 -0.2481 -0.0386
 9341W        W24810   6.136  17.841   4.605  0.0413  0.2943  0.0875
 9342W        W24811   5.304   7.546  12.598 -0.0130  0.4038 -0.1522
 9343W        W24812  17.856   9.235   0.227  0.1562  0.0500  0.0080
 9344W        W24813   9.421  11.675   0.042 -0.2461 -0.0525 -0.2520
 9345W        W24814   8.013   7.044   1.753  0.1669  0.1083 -0.1454
 9346W        W24815   1.437   1.962   4.102 -0.2922 -0.1876  0.0815
 9347W        W24816  18.996   6.171  13.105  0.1860  0.3752  0.1216
 9348W        W24817  10.326  18.455  11.230 -0.2093 -0.2662 -0.4288
 9349W        W24818  11.324   9.087   0.503  0.0763  0.1295  0.0014
 9350W        W24819  11.569   9.102  14.077  0.0478  0.2039  0.1067
 9351W        W24820   8.533   5.978  14.814 -0.1847  0.0563 -0.1393
 9352W        W24821  17.264  16.763  11.697  0.2844 -0.0365  0.5438
 9353W        W24822   6.972  14.931   0.028 -0.1759 -0.4395 -0.0543
 9354W        W24823  15.659   4.509  14.850  0.2750 -0.1966 -0.3633
 9355W        W24824  13.250   4.820  14.087 -0.1988 -0.0143  0.0987
 9356W        W24825   0.880  15.876   2.880  0.0367 -0.0336 -0.4488
 9357W        W24826   7.919   9.713  15.186  0.2432 -0.3734  0.1622
 9358W        W24827  17.527   3.427  11.832  0.1319 -0.0712  0.1149
 9359W        W24828   0.608   3.422  12.719 -0.1648  0.1218  0.0822
 9360W        W24829   9.528  11.144  11.474  0.0518 -0.1834  0.2515
 9361W        W24830   1.182   0.618  13.410  0.3046  0.1099  0.0534
 9362W        W24831   9.659   8.166  10.863  0.0455  0.0651  0.1515
 9363W        W24832   5.338  18.083   4.596  0.0846  0.3179  0.0724
 9364W        W24833  16.657  17.761  13.276 -0.1495 -0.3941  0.2792
 9365W        W24834   4.325   0.343  14.884 -0.3239  0.0637 -0.0443
 9366W        W24835  12.365  11.225  15.352 -0.2708 -0.1120  0.3687
 9367W        W24836   8.698   4.213   0.562  0.3341 -0.0970  0.1274
 9368W        W24837   7.189   2.521  12.289  0.0395  0.2381 -0.0833
 9369W        W24838  10.698  17.877   4.782 -0.0387  0.1491 -0.0696
 9370W        W24839  17.614   3.032  14.367 -0.1215  0.0133 -0.1418
 9371W        W24840  17.290   9.025   2.624  0.0120 -0.2336  0.1897
 9372W        W24841   2.522  17.004   0.965 -0.4820  0.2741  0.3833
 9373W        W24842  11.331  12.030  12.429  0.3123  0.1108  0.1823
 9374W        W24843   8.252  15.308   4.291  0.0521  0.2299 -0.1097
 9375W        W24844   5.851   5.006  11.240 -0.0306  0.1141  0.2249
 9376W        W24845   6.701  10.210  15.174 -0.1190 -0.0062 -0.1570
 9377W        W24846   9.157   4.759   1.697  0.1035  0.1979  0.3446
 9378W        W24847  14.547  11.297   2.888 -0.0834  0.2610  0.1179
 9379W        W24848   9.931  15.244  11.538  0.1662  0.2206 -0.3029
 9380W        W24849   6.685   7.174   5.701 -0.0389  0.4706 -0.2752
 9381W        W24850   9.098   5.441  11.136 -0.0006  0.0493  0.1389
 9382W        W24851   5.538  16.395   3.442  0.0713  0.0412  0.1664
 9383W        W24852   6.931   4.757   2.966  0.3089  0.0689  0.1205
 9384W        W24853   9.153   1.770  12.943 -0.2031  0.0077 -0.2493
 9385W        W24854   2.434  16.942  12.462 -0.3586 -0.2534  0.0331
 9386W        W24855   6.409   9.210   4.098  0.0604 -0.4103 -0.1748
 9387W        W24856   1.990  18.533   3.868  0.2711 -0.1514  0.3035
 9388W        W24857   8.266   0.740   5.266 -0.1613  0.1769 -0.2268
 9389W        W24858   0.988  12.696  14.723  0.2287 -0.1295 -0.1605
 9390W        W24859   8.717  14.488  12.923  0.1200  0.4891  0.1864
 9391W        W24860   9.693   0.068  14.176 -0.0699  0.0214  0.0442
 9392W        W24861  13.188   7.816   2.398  0.0758 -0.0886 -0.0613
 9393W        W24862   3.950   6.798  15.137  0.1600  0.1216 -0.1179
 9394W        W24863   4.450   8.992   4.752  0.1659  0.0679  0.2298
 9395W        W24864   7.624   6.300  15.108 -0.6100  0.4751  0.0602
 9396W        W24865   1.654  18.472  13.796  0.1012  0.0658 -0.1820
 9397W        W24866  18.554   8.976   0.346  0.0931 -0.1311 -0.1944
 9398W        W24867  12.728   9.508   3.772  0.2459  0.0684 -0.1723
 9399W        W24868   6.037  14.564  11.555  0.1464 -0.0322  0.0236
 9400W        W24869   7.690  16.569  13.683 -0.1331  0.0215  0.0934
 9401W        W24870   3.551  19.026  13.807  0.0651  0.1825 -0.1284
 9402W        W24871  10.244  11.070   0.005 -0.0378  0.2277 -0.2511
 9403W        W24872   5.325  15.934   3.324 -0.2687 -0.2256 -0.1912
 9404W        W24873  17.787   5.373   4.378 -0.4656  0.2203  0.0515
 9405W        W24874  13.366   9.314   2.557  0.0142  0.1976 -0.2507
 9406W        W24875   9.945  10.059  15.069  0.0681  0.2115 -0.1744
 9407W        W24876  13.632   2.240   5.668  0.0471 -0.0712  0.2115
 9408W        W24877  13.142   7.886  13.949  0.1235  0.0207 -0.4398
 9409W        W24878   4.656   7.164  13.429 -0.0850  0.0420  0.2289
 9410W        W24879  18.565   6.769  13.237 -0.0665  0.0253  0.2350
 9411W        W24880  16.685  12.510  15.226 -0.0065 -0.0995  0.2478
 9412W        W24881   6.104  10.995  11.999 -0.2273 -0.0651 -0.2650
 9413W        W24882   6.492   1.658   6.116 -0.0265  0.4858 -0.1444
 9414W        W24883  13.846   8.695  12.177 -0.1492  0.2301  0.2649
 9415W        W24884   9.730  10.884   5.655  0.0967  0.2531  0.1361
 9416W        W24885   3.915   8.095  12.638 -0.2320  0.2889  0.0544
 9417W        W24886  15.209   8.574  14.037 -0.3486  0.0211 -0.3325
 9418W        W24887   9.360  18.459   1.745  0.1075  0.1518 -0.0776
 9419W        W24888  18.710  14.963  13.918  0.1049 -0.1033 -0.1037
 9420W        W24889   4.282  17.496   1.687 -0.1128  0.0343  0.1831
 9421W        W24890   6.517   4.426  13.348  0.0074  0.0069 -0.1280
 9422W        W24891   9.055  16.523  12.871  0.1109 -0.0212  0.2875
 9423W        W24892   6.124   9.897   1.443 -0.0688  0.1219 -0.0109
 9424W        W24893   6.707   6.543  11.228 -0.1842 -0.1338  0.0745
 9425W        W24894   3.496   8.244   5.153 -0.0632 -0.0801  0.0155
 9426W        W24895   5.870  10.703  10.417  0.0174  0.0594 -0.2267
 9427W        W24896  11.468   6.651   4.890  0.0714  0.4600  0.2121
 9428W        W24897  10.947   0.684  14.442 -0.1032 -0.0136  0.0090
 9429W        W24898   7.771  14.026  12.556  0.2199  0.1039  0.1952
 9430W        W24899  16.159   7.003   3.897 -0.0130 -0.1098  0.4869
 9431W        W24900  12.881  12.139   9.939 -0.1391 -0.1256  0.2260
 9432W        W24901  15.738  13.374   1.945 -0.0283 -0.1812  0.1683
 9433W        W24902   4.611  14.389   3.062  0.1121  0.0840  0.6512
 9434W        W24903  17.387   1.924  10.351 -0.1714 -0.5052 -0.3139
 9435W        W24904   6.349   9.526  13.350  0.0482  0.2163 -0.0656
 9436W        W24905  11.352   3.687  14.541 -0.1347  0.3898  0.4289
 9437W        W24906  16.627  18.206  14.188  0.1861 -0.4452  0.0897
 9438W        W24907   2.906   3.528  15.175  0.0531  0.1225  0.0515
 9439W        W24908   5.563  13.551   4.503  0.2398 -0.0120 -0.1666
 9440W        W24909   2.795  14.830  14.944  0.0143 -0.0668  0.0485
 9441W        W24910   6.099  18.257   3.594  0.2381  0.0956 -0.1410
 9442W        W24911   5.601  17.305  15.030 -0.0801  0.3201 -0.0333
 9443W        W24912   2.799   0.994  10.681  0.1521  0.2949  0.1707
 9444W        W24913  10.891  12.535   0.405  0.8040 -0.0942  0.4105
 9445W        W24914   2.371   1.708   4.552  0.1087 -0.1481 -0.0306
 9446W        W24915   0.478   3.996  11.573  0.0719  0.1611 -0.1241
 9447W        W24916  17.771   3.281  14.788 -0.1816 -0.0406  0.1245
 9448W        W24917   5.208  10.661  13.514 -0.2681  0.1445 -0.1235
 9449W        W24918   6.985  14.773  13.396 -0.1348 -0.3254 -0.0778
 9450W        W24919   2.649  17.081  11.999  0.1052  0.3211  0.0868
 9451W        W24920   4.145  14.054   9.636 -0.1214 -0.1584  0.3640
 9452W        W24921   8.168  13.998   5.282 -0.0109 -0.0042 -0.0825
 9453W        W24922  16.272   2.911  14.231 -0.0952 -0.1056  0.0816
 9454W        W24923  13.403   0.908   4.557 -0.2143  0.2242 -0.2324
 9455W        W24924   5.021   7.445  13.006  0.1072 -0.0739 -0.0164
 9456W        W24925  10.601  12.612   3.986 -0.1848  0.2878  0.0634
 9457W        W24926  18.166   4.386  12.721  0.1630 -0.0361  0.0865
 9458W        W24927  12.849   2.553  13.287 -0.1402  0.0955  0.2322
 9459W        W24928  13.479   3.542   3.065  0.2560  0.3311  0.0009
 9460W        W24929   6.253  14.189   2.429 -0.2976  0.1019 -0.1355
 9461W        W24930   6.995   9.744   4.936 -0.2853 -0.1167 -0.2186
 9462W        W24931   3.667  10.050   1.780  0.0921 -0.0649 -0.0368
 9463W        W24932  10.706   2.695  15.305  0.1081 -0.2147  0.0620
 9464W        W24933   8.649  11.944  12.606  0.1743  0.2716 -0.0435
 9465W        W24934  14.828   8.532  15.363  0.0657  0.0870 -0.0449
 9466W        W24935  17.846  12.317  13.470 -0.0894  0.1165  0.1145
 9467W        W24936  15.815  12.774   0.990 -0.2216 -0.1486  0.0577
 9468W        W24937   3.712   1.614   4.255  0.3366  0.0791 -0.0296
 9469W        W24938  15.805   3.166   1.501 -0.1571  0.0022  0.0413
 9470W        W24939  14.940   8.466  14.584 -0.1915 -0.0374  0.0302
 9471W        W24940  12.752  15.225   1.840  0.5842  0.0091  0.0008
 9472W        W24941   2.211  14.188   4.892 -0.0057 -0.0272 -0.0154
 9473W        W24942  13.529   9.836  12.917  0.2125  0.2573  0.1640
 9474W        W24943  14.712   3.607  13.890 -0.0766  0.1161  0.3164
 9475W        W24944  10.973   8.267  13.512  0.0161 -0.1215  0.4949
 9476W        W24945  17.534  12.090  10.931 -0.4671  0.2889  0.0480
 9477W        W24946   6.512  13.134  10.889  0.1291  0.1770  0.4598
 9478W        W24947   3.696   7.942  13.895 -0.0270 -0.3794  0.2758
 9479W        W24948   0.514  18.803   4.775 -0.2005  0.0307 -0.5348
 9480W        W24949   2.546   2.334   2.915  0.0090 -0.2279  0.3285
 9481W        W24950  13.187  13.517   0.964 -0.0291  0.1062 -0.1431
 9482W        W24951   2.216  19.002  12.763 -0.2640  0.0234  0.2034
 9483W        W24952  18.076  12.098  14.769  0.0717 -0.6147  0.0203
 9484W        W24953   4.810   2.760   1.159 -0.0970  0.2671  0.3733
 9485W        W24954   7.977  13.794   2.707  0.1190 -0.0567 -0.2168
 9486W        W24955   9.199   2.694  14.025  0.0681 -0.3720  0.0943
 9487W        W24956   2.815  10.273  13.492 -0.4071  0.0365  0.2787
 9488W        W24957  15.168  17.045  11.884  0.0871  0.0672 -0.0075
 9489W        W24958   9.414  18.933   1.519 -0.2227 -0.0279  0.1928
 9490W        W24959  17.094   0.514   2.221  0.1079 -0.1086  0.1493
 9491W        W24960  16.185   6.577  13.252  0.3394  0.0400 -0.2708
 9492W        W24961   5.859   4.786   4.661 -0.2643  0.2961  0.0399
 9493W        W24962  18.567  16.880   0.801  0.0552 -0.1623 -0.1381
 9494W        W24963   5.697   9.995   3.569  0.0041 -0.3965 -0.1915
 9495W        W24964  15.014   9.118  11.824 -0.1775 -0.2278 -0.1224
 9496W        W24965  18.420   4.826  13.563  0.0432 -0.1635  0.2724
 9497W        W24966  17.123  13.104   0.198 -0.4948 -0.1176  0.2927
 9498W        W24967   7.716  14.140   3.649  0.1606  0.1200 -0.5139
 9499W        W24968   4.746  15.251  15.206 -0.0088  0.1068  0.2167
 9500W        W24969   2.798  16.378  10.305 -0.2569  0.1543 -0.3466
 9501W        W24970  10.163   1.112   2.651  0.0009  0.0371  0.1485
 9502W        W24971   8.872   0.080  11.052  0.3759 -0.2729 -0.0757
 9503W        W24972  14.748   9.093   3.842  0.0540 -0.1052 -0.0602
 9504W        W24973   3.130  15.717  10.023 -0.2053  0.0993  0.3701
 9505W        W24974  15.332  12.767   3.980  0.1577 -0.2036 -0.2790
 9506W        W24975  12.296   3.338   3.238 -0.1378  0.3103  0.0808
 9507W        W24976  11.342  15.323   3.688 -0.1629  0.2532 -0.3560
 9508W        W24977  15.983   9.270   2.084  0.3621  0.3425  0.0029
 9509W        W24978   2.177   4.174   5.856 -0.1548  0.1944  0.0866
 9510W        W24979   1.271  16.747   1.673  0.3879 -0.1059  0.1723
 9511W        W24980  14.453  17.936   4.867 -0.0373  0.0950 -0.1817
 9512W        W24981   6.545  14.716   5.247  0.1316 -0.1212 -0.0695
 9513W        W24982   1.190  11.288  15.218 -0.1169 -0.1484  0.0345
 9514W        W24983   0.894  18.505  14.081  0.2679 -0.1263 -0.0142
 9515W        W24984  18.587  18.912   1.106  0.0797  0.1117 -0.1529
 9516W        W24985  13.691  14.912   3.047 -0.2199  0.4607  0.1226
 9517W        W24986  16.077  18.607  13.192  0.1884 -0.1978 -0.0197
 9518W        W24987  15.426   2.178   1.115  0.1755  0.0832 -0.0396
 9519W        W24988   2.882   2.171   2.064 -0.1766 -0.0042 -0.1534
 9520W        W24989  17.260  14.901   4.851  0.2123 -0.1555 -0.0084
 9521W        W24990   7.640  13.792  11.456 -0.2687  0.0717  0.1173
 9522W        W24991   2.858  14.219   0.948 -0.1503 -0.0173 -0.5429
 9523W        W24992  15.256   9.460  13.988 -0.4954  0.1935 -0.2125
 9524W        W24993   4.971   1.045  10.573 -0.1286  0.1486  0.1315
 9525W        W24994  10.293   4.828  15.191  0.0133 -0.3907 -0.0736
 9526W        W24995   6.056  10.655  14.013  0.0581 -0.6020  0.0315
 9527W        W24996  17.681  11.083   3.582  0.1687  0.0688 -0.0287
 9528W        W24997  14.268   7.680   9.253  0.1954  0.0498 -0.2014
 9529W        W24998  13.353   0.037  12.671 -0.0684  0.0049  0.4010
 9530W        W24999  11.754   8.541   2.727 -0.4779  0.0322  0.1771
 9531W        W25000   5.947   0.641  12.013  0.0467  0.0602  0.1424
 9532W        W25001  17.566  15.742  13.426  0.1443 -0.1026 -0.0144
 9533W        W25002  13.593   6.360  12.354 -0.3548 -0.0488 -0.1141
 9534W        W25003   6.043  12.177  14.537 -0.0454 -0.2128 -0.1548
 9535W        W25004   8.760   6.472  10.553  0.2410 -0.1739 -0.1869
 9536W        W25005   2.918   3.805  13.042 -0.0577  0.0666  0.0234
 9537W        W25006   0.216   1.615   3.529 -0.0651  0.1803 -0.3001
 9538W        W25007   4.296   1.748  12.750  0.2300 -0.3817  0.2978
 9539W        W25008   3.340   9.848   4.657 -0.2287 -0.0780  0.2076
 9540W        W25009  10.087   3.527   1.119  0.0883  0.3728 -0.1016
 9541W        W25010   0.212  17.733  14.259 -0.2915  0.0471 -0.1370
 9542W        W25011   7.212   0.544  12.903  0.2197 -0.0189  0.0648
 9543W        W25012   5.802  16.390  14.113  0.3292 -0.1824 -0.1577
 9544W        W25013  15.469   8.870   3.302 -0.3017  0.0367  0.1988
 9545W        W25014  18.901   5.355   4.772  0.2527 -0.5816 -0.0373
 9546W        W25015  18.593   8.141   4.975 -0.0925 -0.2043  0.1455
 9547W        W25016  13.749   1.553  13.442 -0.1867  0.0274  0.1635
 9548W        W25017   0.284  15.183   0.050  0.0460 -0.2317 -0.1584
 9549W        W25018   9.871   5.332  14.549  0.1444 -0.1481  0.1577
 9550W        W25019  17.134   6.648  11.895 -0.0422 -0.1560  0.2944
 9551W        W25020   7.367   5.233  13.413 -0.1045 -0.0479 -0.0281
 9552W        W25021   1.969   3.532   9.758 -0.0142 -0.1094 -0.2250
 9553W        W25022  17.249  10.476  11.852  0.0725  0.2816  0.3771
 9554W        W25023   5.083  10.964   4.413 -0.2473 -0.1864  0.0405
 9555W        W25024  18.036   8.069   4.759  0.0986  0.0931 -0.0726
 9556W        W25025  16.627  12.920   0.216 -0.0775 -0.1128 -0.2176
 9557W        W25026   4.560   1.735   0.882 -0.0545 -0.0058  0.0833
 9558W        W25027   3.960   9.810   3.375 -0.0802 -0.0829  0.2435
 9559W        W25028   2.220  16.005  13.022  0.0486 -0.0412 -0.0122
 9560W        W25029   7.928   2.405  10.101 -0.0850 -0.1429 -0.0644
 9561W        W25030  17.235  16.407  10.796  0.0583 -0.2856 -0.1782
 9562W        W25031  12.977  12.981   0.206  0.2503 -0.0625  0.1218
 9563W        W25032  18.832  18.750  10.700  0.2621  0.0225 -0.0924
 9564W        W25033   0.864  11.960   4.012  0.0403 -0.1374  0.2184
 9565W        W25034  14.466  16.617   3.884 -0.0244 -0.0033 -0.1691
 9566W        W25035  10.137   0.534   2.629 -0.1980  0.1460 -0.1191
 9567W        W25036  13.296   7.223  14.948 -0.3929  0.1618 -0.0178
 9568W        W25037  14.686  10.620   3.891  0.1539  0.0446  0.2658
 9569W        W25038  15.952  15.627   0.829 -0.4326  0.0608 -0.3032
 9570W        W25039  11.281   6.630   2.635  0.0328  0.0178 -0.0361
 9571W        W25040   8.717   6.259   4.787 -0.1335 -0.0481  0.3245
 9572W        W25041  13.341   8.798   9.596 -0.2562  0.2419 -0.1004
 9573W        W25042   8.365   4.102  14.947  0.2031 -0.2184  0.1185
 9574W        W25043   0.126  11.883  14.361 -0.0214  0.1821  0.3289
 9575W        W25044   1.650  16.890  13.008 -0.3516  0.0128  0.2225
 9576W        W25045   1.525   0.139   3.453  0.1486 -0.1854  0.2061
 9577W        W25046  16.414   0.376  14.316 -0.0443 -0.4059  0.2481
 9578W        W25047  16.066  10.371  14.198  0.1039 -0.2192  0.1860
 9579W        W25048   9.609  14.787   0.320 -0.1290  0.0739  0.1267
 9580W        W25049  15.071   1.508  11.463 -0.0346 -0.1598 -0.2695
 9581W        W25050  14.885   0.471   1.859  0.1381  0.1279  0.0355
 9582W        W25051   1.024  10.814  11.563  0.4321 -0.4009 -0.2299
 9583W        W25052  17.715   7.707  10.822  0.0880  0.0010  0.1084
 9584W        W25053  14.945   0.268  12.309 -0.2764 -0.0876  0.1017
 9585W        W25054   5.375  13.437  11.373 -0.0908 -0.1214 -0.0524
 9586W        W25055  15.976   3.254  12.702  0.1502 -0.1650 -0.0925
 9587W        W25056  18.519  16.921   3.425  0.2311 -0.0957  0.2060
 9588W        W25057   2.508  12.594   0.209  0.2121 -0.4269 -0.1274
 9589W        W25058   9.387   4.608   3.082 -0.0312 -0.2402  0.2167
 9590W        W25059  18.578   3.695   4.361  0.0702  0.0663  0.0251
 9591W        W25060   8.046  17.014  15.076 -0.1001  0.0133  0.0648
 9592W        W25061  17.671  10.272   4.524 -0.2062 -0.0696 -0.1660
 9593W        W25062   5.005  14.495  13.150 -0.0504  0.0770 -0.0032
 9594W        W25063   5.466   9.121   3.768  0.0528 -0.2826  0.1715
 9595W        W25064  14.930   6.473  11.038  0.1455 -0.1359  0.1643
 9596W        W25065   4.566  14.609   3.698  0.0540 -0.0318 -0.0122
 9597W        W25066   3.620   0.990   2.359  0.0413 -0.1875 -0.3557
 9598W        W25067   2.669   5.281   0.448  0.2032 -0.1349 -0.0389
 9599W        W25068   2.722  12.182  14.216  0.0005  0.2734  0.1482
 9600W        W25069   0.341   9.851   5.117  0.3340 -0.0678  0.2211
 9601W        W25070  12.127   9.617  12.865  0.1596  0.2835 -0.1647
 9602W        W25071   0.260   3.903   4.491  0.0889 -0.1563  0.2115
 9603W        W25072   7.076  10.111   4.482  0.4923  0.1449 -0.0301
 9604W        W25073  13.625   0.483   4.315 -0.2193 -0.3676 -0.1939
 9605W        W25074  14.320  12.380  11.169 -0.1088  0.0359  0.0161
 9606W        W25075   4.730   8.817  10.997 -0.0349  0.1293  0.2793
 9607W        W25076   8.618  10.183   1.254  0.2194  0.0971 -0.0402
 9608W        W25077   3.912  18.540   6.209 -0.1754 -0.1280 -0.2161
 9609W        W25078  12.135  17.324  10.550 -0.1341 -0.1128  0.0322
 9610W        W25079  13.179   0.868   2.955  0.0011  0.2696  0.0345
 9611W        W25080   4.691  17.829   2.001 -0.3858 -0.1202  0.1482
 9612W        W25081   6.242  17.020   2.023  0.2753  0.0675 -0.3111
 9613W        W25082   8.292   3.223   1.415 -0.2886 -0.1683  0.2216
 9614W        W25083  11.002  16.550  13.383 -0.3580 -0.2712  0.1939
 9615W        W25084   0.261  18.447  10.391 -0.2295  0.0398 -0.2130
 9616W        W25085   7.627   9.417  11.076  0.1329 -0.0810 -0.0419
 9617W        W25086   3.457  10.673  11.171 -0.5165  0.1964 -0.1921
 9618W        W25087   0.809  13.198  14.759  0.1157  0.2220 -0.1907
 9619W        W25088   3.060  12.832   2.356  0.0887 -0.2561  0.1543
 9620W        W25089  12.056   3.012   0.741 -0.0966  0.0379  0.0050
 9621W        W25090  15.685  11.550  14.753  0.3490 -0.0355 -0.2695
 9622W        W25091   2.310   3.704  11.532 -0.1864  0.3664  0.2541
 9623W        W25092  11.056   4.605  14.192 -0.3329  0.3242 -0.0849
 9624W        W25093   8.253   5.456  11.874  0.3167  0.0893 -0.0503
 9625W        W25094   9.314  13.569   4.662  0.2617 -0.2751 -0.1670
 9626W        W25095   4.384   1.144  14.151 -0.1320 -0.3276 -0.0296
 9627W        W25096  10.386   8.677  14.478  0.1437 -0.3780 -0.0668
 9628W        W25097  11.100   4.259   3.896 -0.2600  0.1640 -0.1106
 9629W        W25098  14.520  18.598  13.140 -0.1961  0.4675  0.2094
 9630W        W25099   5.696   4.539  10.898  0.1831 -0.1378  0.2863
 9631W        W25100  10.193  18.622   4.351 -0.1222 -0.0829  0.0705
 9632W        W25101  10.528   6.704  15.234 -0.0244 -0.3958 -0.0687
 9633W        W25102   2.129   9.056   2.841  0.3767 -0.0213 -0.0830
 9634W        W25103   0.425   7.014   4.381 -0.3387  0.0201  0.3774
 9635W        W25104   2.628  10.223   3.720  0.0131 -0.1193 -0.1998
 9636W        W25105  15.712  14.553  12.186 -0.0925  0.0596  0.1678
 9637W        W25106   7.461   8.038   1.103 -0.4270 -0.0800  0.0683
 9638W        W25107  15.186  15.866  11.757  0.3046  0.2392  0.4426
 9639W        W25108  13.375   2.492  14.138  0.0083  0.1947  0.1444
 9640W        W25109   2.122   9.054   1.118  0.0045 -0.1541  0.0644
 9641W        W25110   3.887   4.037  14.009 -0.2615  0.0824 -0.0812
 9642W        W25111  14.484   4.954  11.106 -0.2505  0.0195 -0.0973
 9643W        W25112  10.198   4.053  13.875 -0.1639  0.1775  0.3782
 9644W        W25113   6.395  15.051  12.595 -0.3688  0.1574  0.0556
 9645W        W25114  15.405  17.028   4.514  0.2084 -0.2436 -0.0253
 9646W        W25115  11.815   8.082   2.894  0.0025  0.2077 -0.1577
 9647W        W25116  12.904  18.261  11.604 -0.0344 -0.1538 -0.0886
 9648W        W25117   3.737   2.070   1.374 -0.2902 -0.0761 -0.2670
 9649W        W25118   3.181   2.414   3.021 -0.0063 -0.0350  0.4212
 9650W        W25119   0.312   5.932   0.765 -0.0282  0.1900  0.1146
 9651W        W25120   6.603  14.667   1.066 -0.1463 -0.5433  0.0972
 9652W        W25121  13.910   1.001   0.699  0.0491 -0.1310 -0.2719
 9653W        W25122  14.974  15.170  10.456 -0.1329 -0.1950  0.0989
 9654W        W25123   5.446   4.002  15.317  0.0753 -0.0037 -0.3716
 9655W        W25124   7.797  18.418   2.377  0.1062  0.0910 -0.2647
 9656W        W25125  17.483  13.461   1.484 -0.1564 -0.0382  0.0698
 9657W        W25126  16.583   4.963  12.600  0.1129  0.0013  0.1036
 9658W        W25127   3.513   9.754   2.627 -0.1992 -0.0183 -0.0332
 9659W        W25128   8.492  14.238   1.135  0.1861 -0.0117  0.0438
 9660W        W25129  14.333   2.976  10.576 -0.1945  0.2356 -0.3982
 9661W        W25130   3.690  10.147  13.478  0.0657  0.0634 -0.4391
 9662W        W25131  13.135   9.932  12.674 -0.0876  0.2459  0.0978
 9663W        W25132  17.575  16.491   3.745 -0.2175  0.0987  0.3782
 9664W        W25133  16.981  16.092   3.020 -0.0838  0.1557  0.2421
 9665W        W25134   4.112   3.274  10.920  0.0712  0.0612  0.2453
 9666W        W25135  18.087   3.682  14.572 -0.1267 -0.0402 -0.1472
 9667W        W25136   4.399  12.727  11.225  0.2500  0.1822 -0.0454
 9668W        W25137   4.101   0.813   5.057  0.2214  0.2292  0.1222
 9669W        W25138   1.779  18.822   0.394 -0.1706  0.2470 -0.3233
 9670W        W25139  10.878  15.371   4.799  0.1007  0.2329 -0.0432
 9671W        W25140   1.739  18.980  12.962  0.0073 -0.4497 -0.1733
 9672W        W25141   6.223  11.170   2.762  0.1127 -0.4905  0.1632
 9673W        W25142   7.738  12.731  13.647 -0.0419 -0.1872 -0.0512
 9674W        W25143   6.286   2.263   0.161  0.1038  0.2329  0.0312
 9675W        W25144  12.411   8.702  12.599  0.2555  0.1068  0.0360
 9676W        W25145   3.236   5.394  12.575  0.1011 -0.1764 -0.0257
 9677W        W25146   5.407  10.105   3.956  0.0438  0.3144  0.0339
 9678W        W25147   1.377   4.081   3.612 -0.1368  0.0640 -0.2893
 9679W        W25148   7.179   5.742   4.964 -0.0273  0.4709  0.0784
 9680W        W25149  12.417   9.507  11.867 -0.0513 -0.1100  0.2600
 9681W        W25150   7.725   8.227  14.485  0.0423  0.0076 -0.0074
 9682W        W25151  10.887  10.661  13.111  0.0153  0.1239 -0.0646
 9683W        W25152  18.198  16.732   3.024  0.2719 -0.1563 -0.3870
 9684W        W25153  18.263  15.613   5.538 -0.1269 -0.2834  0.1398
 9685W        W25154  18.016  16.009   2.391 -0.0456 -0.3537 -0.1163
 9686W        W25155   5.941   6.505  12.336  0.0920  0.0020  0.2616
 9687W        W25156  18.556  15.242   9.734  0.0130 -0.0064  0.1106
 9688W        W25157   6.602  13.005   2.247  0.1130 -0.3381  0.1647
 9689W        W25158  17.073   6.744   2.105  0.3221 -0.0529  0.0484
 9690W        W25159  14.045   8.797   2.068  0.0408 -0.3082  0.0524
 9691W        W25160   4.567  18.826   3.239  0.0897 -0.0204  0.0478
 9692W        W25161   9.340  12.962  11.008  0.0628  0.1795 -0.1114
 9693W        W25162   2.018  14.158  13.587  0.0082 -0.0034  0.1979
 9694W        W25163   1.352   7.561  14.720  0.2971 -0.0820  0.0660
 9695W        W25164   5.246   0.815   0.081  0.3100  0.2466  0.1000
 9696W        W25165  12.649  13.374  15.028 -0.0997  0.1367  0.1155
 9697W        W25166  14.997   3.181   2.719 -0.3585  0.0013 -0.0511
 9698W        W25167   1.681  12.115  12.387 -0.0475 -0.1017  0.1524
 9699W        W25168   9.672   0.820   3.527 -0.2305 -0.0595 -0.3653
 9700W        W25169   4.913   3.166  11.206 -0.0806 -0.4204 -0.1515
 9701W        W25170  14.478   4.870   3.168  0.0499  0.0644  0.0119
 9702W        W25171   6.657   5.339  15.253 -0.1100  0.2167  0.2464
 9703W        W25172   4.849  12.604  11.457 -0.2734 -0.2729  0.0407
 9704W        W25173  16.030  17.125   2.758 -0.0790 -0.2504  0.2813
 9705W        W25174  16.524   2.169   1.880  0.1310 -0.2712  0.3307
 9706W        W25175   2.601   8.590   4.003 -0.3029 -0.1514 -0.3903
 9707W        W25176  15.705  18.086   5.638  0.0214  0.1665 -0.2530
 9708W        W25177   8.449   1.292   1.230  0.1193 -0.0690 -0.0260
 9709W        W25178   2.539   5.596  12.052  0.3183  0.1485 -0.1228
 9710W        W25179  12.644   0.144   4.523  0.1065 -0.1062  0.1387
 9711W        W25180   5.884   0.645  13.293 -0.3339  0.1001  0.1393
 9712W        W25181  11.492   2.555   5.053  0.0653 -0.0643  0.2293
 9713W        W25182   7.460   3.490   3.229  0.0478  0.3181 -0.3684
 9714W        W25183   3.704   3.427   5.747 -0.0384 -0.2282  0.0378
 9715W        W25184   7.668  13.785   4.548  0.3593 -0.2385 -0.1552
 9716W        W25185   4.846  18.846  14.332 -0.3934  0.1619  0.3444
 9717W        W25186  17.500  14.419  15.098 -0.0581 -0.0019  0.0215
 9718W        W25187   8.918  16.263   2.068 -0.1795 -0.0219 -0.0891
 9719W        W25188   0.194   8.829   5.317 -0.3170 -0.1985  0.1624
 9720W        W25189  16.667  13.023  10.597  0.0253 -0.0978  0.2995
 9721W        W25190  17.631  15.257  13.124 -0.2305 -0.3078  0.0970
 9722W        W25191   4.020   5.799   1.028  0.4413  0.0127  0.1109
 9723W        W25192   3.506   9.585   0.536 -0.3163  0.3643  0.1067
 9724W        W25193  18.625   8.177  11.471  0.1416  0.0391  0.5179
 9725W        W25194  18.571  18.962   2.673 -0.0715  0.1636  0.3217
 9726W        W25195   8.552   0.131  12.908 -0.0977  0.1169  0.3266
 9727W        W25196  10.183   0.110   5.278  0.1122 -0.3113  0.0331
 9728W        W25197  18.293   9.015   5.638  0.0286 -0.1063 -0.0101
 9729W        W25198  13.478   7.542   1.624  0.0057 -0.1165  0.1326
 9730W        W25199   9.056  16.424   4.662  0.2388 -0.1159  0.0577
 9731W        W25200  18.996   3.336  14.782  0.2643 -0.0069  0.2187
 9732W        W25201   7.927   2.768   2.564 -0.0946  0.0678 -0.1738
 9733W        W25202   3.385   7.428   2.885 -0.3839 -0.0578 -0.0641
 9734W        W25203  18.637   8.829  15.205  0.0590 -0.2371 -0.1350
 9735W        W25204  11.374  15.425  10.106  0.1758  0.1918 -0.1249
 9736W        W25205   9.058  12.808   3.011  0.1372 -0.1841 -0.0510
 9737W        W25206  15.712  13.892   2.577  0.1924 -0.1520 -0.1552
 9738W        W25207  16.220   3.437  11.210 -0.0442 -0.0279 -0.2102
 9739W        W25208  11.262   9.768  12.180  0.1459 -0.0578 -0.1270
 9740W        W25209   3.244  10.213   2.694 -0.4407  0.2438  0.0299
 9741W        W25210   6.504   1.894   2.577  0.3609  0.1569 -0.0603
 9742W        W25211   5.316  18.645  14.306 -0.1385  0.2012  0.1855
 9743W        W25212   8.201  11.648   3.098  0.0990 -0.0551  0.2522
 9744W        W25213  16.493   3.671  13.634 -0.3068  0.0116  0.0107
 9745W        W25214   4.006  16.075  13.917 -0.0819 -0.3237 -0.1170
 9746W        W25215  12.447   1.309  12.046 -0.3920 -0.4679 -0.3919
 9747W        W25216   7.801   3.081   0.227 -0.0964 -0.0086  0.3687
 9748W        W25217   2.037   7.695   0.925  0.0933 -0.2323 -0.3213
 9749W        W25218   6.223   4.375  13.753  0.1458  0.2373  0.1363
 9750W        W25219  16.909   8.726  14.942  0.0272 -0.3907  0.2293
 9751W        W25220   2.811  17.093   0.601  0.0913 -0.2203  0.1632
 9752W        W25221  10.354  11.348   2.483  0.1045  0.1580 -0.3292
 9753W        W25222   0.236  10.786   1.864  0.0539  0.2258 -0.2241
 9754W        W25223  13.569  11.363   3.229 -0.2913  0.3002 -0.0685
 9755W        W25224  12.944   7.777  10.448 -0.0286  0.1157 -0.0302
 9756W        W25225  17.515   6.615   2.668 -0.3558  0.3055 -0.1329
 9757W        W25226  16.429  12.773   3.739 -0.4867  0.5233 -0.0212
 9758W        W25227  14.861  14.764   4.628 -0.1432 -0.1186  0.1950
 9759W        W25228   1.532   4.115   1.783 -0.2555  0.1709 -0.1204
 9760W        W25229  13.699  15.019  10.881  0.2062  0.2257 -0.0120
 9761W        W25230  16.852   8.142   2.333  0.1343  0.0386 -0.1498
 9762W        W25231   3.324   7.525  13.073  0.1288 -0.3119 -0.1721
 9763W        W25232  12.356   4.840   0.873  0.0657 -0.0338  0.3639
 9764W        W25233   8.672  12.948   4.589 -0.0404  0.2372  0.1773
 9765W        W25234  13.942  15.995  11.544 -0.0886 -0.2309 -0.0865
 9766W        W25235  10.618  15.358   0.124  0.0019  0.0832  0.4517
 9767W        W25236   0.274   7.096  11.164 -0.2914 -0.0127  0.2273
 9768W        W25237   6.716   7.233   2.438 -0.2358 -0.1568  0.3607
 9769W        W25238  10.463   6.046  11.004  0.1826  0.1322  0.0373
 9770W        W25239  15.017   6.174  10.632  0.0931 -0.0116  0.1158
 9771W        W25240  10.383   6.004   3.107 -0.1626 -0.0699  0.1854
 9772W        W25241  13.191  18.044   4.744  0.0619  0.1805  0.0350
 9773W        W25242   5.979  15.165  15.236  0.2066  0.0839  0.1040
 9774W        W25243  15.243  13.935   2.440 -0.2937  0.1544  0.0453
 9775W        W25244   7.398   5.535  14.575  0.0248  0.0817  0.0646
 9776W        W25245  11.643  10.761   3.376 -0.1050  0.2725 -0.1711
 9777W        W25246  12.598  14.674   4.329  0.0815  0.0443  0.1861
 9778W        W25247  10.006   1.865   0.136  0.1465 -0.0932  0.1140
 9779W        W25248  10.862  16.904  11.576 -0.0723  0.0087 -0.0712
 9780W        W25249  18.530   3.400  15.011 -0.2758  0.1406  0.3187
 9781W        W25250  16.320  15.180   4.291 -0.1459  0.2074 -0.1087
 9782W        W25251  15.457   6.779  11.882  0.2154  0.3043 -0.1167
 9783W        W25252  12.329   9.142  14.279  0.0369 -0.0238  0.2054
 9784W        W25253   6.556   3.281  14.905 -0.0582 -0.0939  0.0520
 9785W        W25254   3.979   5.311  11.307  0.0686  0.0002 -0.0613
 9786W        W25255   5.245  13.909   1.072 -0.3098  0.1062  0.1154
 9787W        W25256  12.569  16.990  14.453  0.0440  0.1810  0.0192
 9788W        W25257   6.665   4.552  13.822 -0.3173  0.0740 -0.1741
 9789W        W25258   0.910   3.774  11.656  0.1341  0.3066 -0.1206
 9790W        W25259  16.420   4.961  14.555 -0.0404 -0.0480  0.2438
 9791W        W25260  17.803  15.435  13.955 -0.1827 -0.1450  0.0371
 9792W        W25261   2.611  13.132   0.092 -0.6126 -0.0796 -0.2498
 9793W        W25262   0.012   6.669   2.015  0.0415  0.1557 -0.3069
 9794W        W25263   2.438   8.440  12.023 -0.3137  0.3804  0.1043
 9795W        W25264  15.532  10.556  11.632  0.2247 -0.0794 -0.1847
 9796W        W25265   2.333  12.893   4.470  0.3226  0.2076  0.0413
 9797W        W25266  17.230   9.475   4.975  0.0848  0.2585 -0.3393
 9798W        W25267   1.842   9.796   2.434  0.3439  0.1880  0.0246
 9799W        W25268  11.766   7.790   5.731 -0.3500 -0.3281 -0.0809
 9800W        W25269  10.384   5.062   4.021 -0.1159  0.2384 -0.2505
 9801W        W25270   1.597   0.222  13.578  0.2139  0.2100 -0.1460
 9802W        W25271  10.849   6.448   0.160 -0.0861  0.1071  0.1933
 9803W        W25272   2.899  14.945  12.624 -0.0439  0.2061  0.0589
 9804W        W25273   0.884   7.351   2.216  0.1559  0.0751  0.1533
 9805W        W25274   8.201   9.168   4.489  0.1553 -0.0292  0.0917
 9806W        W25275   8.138  11.079   1.267  0.0459 -0.3019 -0.1444
 9807W        W25276   5.580   6.420   5.563  0.1042  0.2342  0.2886
 9808W        W25277  14.384  18.980   3.294 -0.1180  0.1132  0.0039
 9809W        W25278   8.181   0.459  12.360 -0.2400  0.0245 -0.2961
 9810W        W25279  11.680   6.897  12.155  0.1532 -0.0042 -0.2483
 9811W        W25280   1.061   9.082   4.828  0.1197  0.1319  0.0611
 9812W        W25281  15.437   6.624   0.816  0.0986  0.0441 -0.2093
 9813W        W25282  13.969   5.336   0.608  0.0214 -0.1473 -0.0660
 9814W        W25283  11.013   3.737  15.334 -0.1260 -0.1776  0.4148
 9815W        W25284  11.227   3.032   5.020 -0.0673 -0.0495  0.0322
 9816W        W25285  15.495   2.533  13.014  0.3239  0.2557  0.1315
 9817W        W25286  11.733  11.920  14.091  0.0797  0.1769  0.1181
 9818W        W25287  17.302   4.580   0.733 -0.3974 -0.0164 -0.2645
 9819W        W25288   3.087   4.043  13.642 -0.1271  0.2467  0.0919
 9820W        W25289   8.889   3.033  13.944  0.1845  0.1353 -0.0791
 9821W        W25290   6.002   4.862   5.423  0.1670 -0.1415 -0.0450
 9822W        W25291  14.124   9.837   2.075 -0.1443 -0.0113 -0.1597
 9823W        W25292  14.988  16.887   1.329 -0.3025 -0.1621 -0.3710
 9824W        W25293   5.688  10.206  15.081  0.0143  0.0148 -0.2188
 9825W        W25294   1.093   3.458  12.875 -0.3215 -0.0874 -0.0359
 9826W        W25295   3.411   6.277   0.278  0.1529 -0.1451 -0.0079
 9827W        W25296   0.761   3.669  10.869  0.2460 -0.0835 -0.4067
 9828W        W25297   3.694  13.643  13.365 -0.1196  0.3664  0.0301
 9829W        W25298   4.158  15.125   0.289 -0.0857  0.0939 -0.0185
 9830W        W25299   7.557   1.284  15.049 -0.1074 -0.0604 -0.0974
 9831W        W25300   3.935  15.631  14.837 -0.2149  0.2748 -0.0806
 9832W        W25301   9.937   0.204   0.385 -0.2472  0.0242  0.0620
 9833W        W25302   1.145   4.278  12.081  0.3191  0.0665  0.0607
 9834W        W25303  16.491  16.496   0.548  0.0040 -0.2821  0.0227
 9835W        W25304  12.389   9.155  11.056 -0.2179  0.0837  0.2296
 9836W        W25305  11.956  11.848   2.299 -0.1278  0.1027  0.1486
 9837W        W25306  16.292  11.951   3.533 -0.1154  0.2605 -0.0275
 9838W        W25307  13.515  11.846   3.244 -0.0100  0.2559  0.1140
 9839W        W25308  14.264  13.606   9.727  0.0315  0.1690 -0.2933
 9840W        W25309  14.643   8.835   0.818 -0.1017  0.1535  0.4280
 9841W        W25310  13.455  12.634  12.200 -0.2423 -0.1004 -0.1502
 9842W        W25311  10.955  15.914   2.633  0.0564 -0.0771  0.0897
 9843W        W25312   9.161   0.056  12.080 -0.1074 -0.0274 -0.0060
 9844W        W25313   6.209  15.925  10.777 -0.0365 -0.2719 -0.2424
 9845W        W25314  18.928   3.775   3.925 -0.1342 -0.1565  0.2626
 9846W        W25315   9.760  17.671  14.910  0.0446 -0.2365 -0.3469
 9847W        W25316   3.097  17.128  12.798  0.1025 -0.0546  0.1843
 9848W        W25317  13.117   4.567   2.010 -0.0516  0.2030  0.0138
 9849W        W25318   1.359   6.698  15.291  0.3726  0.2111  0.1074
 9850W        W25319   9.743   7.652   3.432  0.0565 -0.0602 -0.4113
 9851W        W25320  16.240   8.704   5.468  0.2370  0.0168  0.2006
 9852W        W25321   6.149   6.987   1.920 -0.0331  0.1437  0.1846
 9853W        W25322   4.506   1.361  15.043 -0.2112  0.1399 -0.3539
 9854W        W25323  11.874  16.949  11.478  0.0535 -0.3854  0.0146
 9855W        W25324   2.296   8.789   1.554 -0.0547 -0.1569  0.0372
 9856W        W25325   0.047  11.326   3.711 -0.2503  0.4786 -0.2942
 9857W        W25326   7.808  10.028   5.088  0.0537 -0.1960  0.0540
 9858W        W25327  14.853   0.954  11.850 -0.2962  0.1060  0.1828
 9859W        W25328   5.293   4.127   0.993 -0.2504 -0.0173 -0.2297
 9860W        W25329   6.279   7.856   0.993  0.2821  0.1131  0.2900
 9861W        W25330   1.510  14.848  14.786  0.1619 -0.1221 -0.2627
 9862W        W25331   0.303  18.445   2.104  0.0700 -0.2977 -0.0125
 9863W        W25332   1.265  11.677  14.218  0.0586  0.0871 -0.1662
 9864W        W25333   5.536   0.130   0.180 -0.1673 -0.0122 -0.3060
 9865W        W25334   1.365   4.046   0.926  0.3527  0.1101  0.1494
 9866W        W25335  11.031  12.172  14.578 -0.1089  0.1999 -0.0397
 9867W        W25336   4.465   3.999  12.146  0.0212  0.0771 -0.5938
 9868W        W25337  12.527  13.084  12.863 -0.1512 -0.1342  0.0765
 9869W        W25338   7.616   1.147   3.634  0.2287 -0.1024  0.0708
 9870W        W25339  12.165   5.188  10.391  0.1577  0.0029  0.0058
 9871W        W25340   9.831  14.485   5.583  0.2859  0.0455  0.1300
 9872W        W25341  14.046   7.338   0.892 -0.4997 -0.1651 -0.1078
 9873W        W25342  18.522  18.317   1.420 -0.0955 -0.0594  0.0210
 9874W        W25343  17.844  17.836   1.961 -0.2018 -0.0224 -0.3956
 9875W        W25344   5.887   9.523   3.631  0.2102  0.1437 -0.0025
 9876W        W25345  14.270  18.704  12.683 -0.0343 -0.1268  0.0587
 9877W        W25346   5.109   9.349   2.937  0.0277 -0.0758  0.1217
 9878W        W25347   9.353   4.805   2.609  0.0365  0.1560  0.0006
 9879W        W25348   1.541  17.317  14.133 -0.0989  0.2220  0.1737
 9880W        W25349  18.241   8.789   3.180 -0.0359  0.1718  0.0158
 9881W        W25350  15.790  13.325   1.056 -0.0431  0.4088  0.1587
 9882W        W25351   2.206  14.886   0.557 -0.3832 -0.0003  0.0360
 9883W        W25352   9.588  10.364   3.866 -0.0795  0.2355  0.0602
 9884W        W25353   3.449   7.883   3.827 -0.1427  0.0128 -0.5253
 9885W        W25354   4.256  17.466   2.202  0.0424  0.2101  0.3272
 9886W        W25355   7.261   6.672  11.565  0.0926 -0.3215 -0.1735
 9887W        W25356  16.618  15.839  13.298 -0.1691  0.1344  0.1823
 9888W        W25357   1.737   3.183  12.291  0.3617  0.1187 -0.2785
 9889W        W25358   4.931   9.614   1.298 -0.1526 -0.1338 -0.1702
 9890W        W25359  17.297  14.434   2.325 -0.1755 -0.0874 -0.0541
 9891W        W25360   8.963  10.907   3.812  0.3038 -0.2135 -0.1686
 9892W        W25361  17.815  11.732  15.087 -0.0088  0.5674  0.0647
 9893W        W25362  11.992   8.185  12.666 -0.3057  0.0214  0.1399
 9894W        W25363  14.220   5.786  13.011 -0.4168 -0.2034  0.0348
 9895W        W25364   1.151   0.899  14.621  0.2592  0.1389 -0.2925
 9896W        W25365   2.905   3.170   2.583  0.3439 -0.2762  0.4327
 9897W        W25366  10.597   8.428   4.124  0.1990  0.2067  0.3234
 9898W        W25367   7.630  14.041  14.932  0.0722  0.0078 -0.0668
 9899W        W25368  10.113  14.589  11.996 -0.1405 -0.1644 -0.5307
 9900W        W25369  15.469  16.889  10.777 -0.2036 -0.1578 -0.2134
 9901W        W25370   3.624   6.509  13.895 -0.1438 -0.3208 -0.3341
 9902W        W25371  12.229  15.414   1.062  0.2225  0.2073 -0.1304
 9903W        W25372  13.515  11.534  13.882 -0.2563  0.0504 -0.0322
 9904W        W25373   8.314  17.335   2.613  0.0202  0.3076  0.1944
 9905W        W25374   1.886   1.302  10.496  0.1379 -0.0533  0.0760
 9906W        W25375   2.831  18.443  10.211 -0.2987  0.2214 -0.0298
 9907W        W25376   6.243   8.341   2.191  0.2093 -0.1902 -0.2170
 9908W        W25377  13.194  11.046  14.896 -0.1586 -0.3472  0.0425
 9909W        W25378   3.687   7.668   1.727  0.3281  0.3561 -0.2268
 9910W        W25379  15.606   8.460   5.343  0.1500 -0.0096 -0.0332
 9911W        W25380   6.013  11.347  14.620  0.2102  0.1926 -0.0230
 9912W        W25381  16.988   1.684  14.501  0.0245  0.0811  0.1323
 9913W        W25382   1.842  13.266  13.641 -0.1206 -0.2570  0.0107
 9914W        W25383   5.434   5.443   1.561 -0.0635  0.0028  0.2642
 9915W        W25384   0.728   1.785   2.316 -0.1811 -0.1250  0.0278
 9916W        W25385  16.078  10.814  10.260 -0.1736  0.0336  0.2716
 9917W        W25386   7.436   3.133   6.240  0.0487 -0.0052 -0.1150
 9918W        W25387   8.142   1.560   0.355 -0.0167 -0.0417  0.0390
 9919W        W25388   3.869  18.821   1.573  0.4268 -0.0800 -0.2095
 9920W        W25389   3.391  10.448   3.185 -0.0531 -0.0865 -0.5256
 9921W        W25390   0.372   5.382  14.841 -0.0755  0.3413  0.3152
 9922W        W25391   1.085  11.100   4.331 -0.0645 -0.0138  0.1774
 9923W        W25392  11.685   7.596  10.983 -0.3624  0.0147  0.1945
 9924W        W25393  15.412  12.449  12.537  0.1681 -0.0314 -0.5381
 9925W        W25394  11.745   9.944   0.163 -0.1895 -0.2727 -0.3878
 9926W        W25395  13.777  17.012   0.283  0.1524  0.0738 -0.1462
 9927W        W25396  18.653   4.157   0.253  0.1255  0.1430 -0.3046
 9928W        W25397   6.360   7.281   5.326 -0.0405  0.1235 -0.3110
 9929W        W25398   5.212   3.771  13.236  0.1241  0.0771  0.2116
 9930W        W25399  12.174  14.307   4.452 -0.0781 -0.0271  0.2325
 9931W        W25400   8.794  12.718  13.913  0.0981 -0.0616  0.0493
 9932W        W25401   9.733   2.719   0.606  0.2254 -0.0268 -0.3027
 9933W        W25402  12.221   2.973   1.244 -0.1865  0.3664 -0.1757
 9934W        W25403   8.328   1.839  15.043 -0.1774 -0.1095  0.2729
 9935W        W25404  16.076   3.960   0.363 -0.0061 -0.2373  0.1008
 9936W        W25405   1.573  11.548  14.685 -0.0745 -0.0216  0.0185
 9937W        W25406  18.184   5.662  11.386  0.0796 -0.0784  0.2330
 9938W        W25407  12.027  13.988   1.775  0.1293  0.1773 -0.1057
 9939W        W25408   1.195   0.561   3.365 -0.2658  0.3809 -0.0199
 9940W        W25409  18.253  14.588  14.108 -0.1963 -0.2773 -0.1839
 9941W        W25410   4.781   3.866  11.784  0.0997  0.2011 -0.1573
 9942W        W25411  17.373   4.910   2.062  0.0168 -0.0233  0.1288
 9943W        W25412   7.802   3.453   4.712 -0.1720  0.0269 -0.0129
 9944W        W25413  14.129  13.295  13.096 -0.0340  0.0805 -0.4029
 9945W        W25414  15.204  13.513   0.253  0.1587  0.2447 -0.0472
 9946W        W25415  12.886  18.768   4.287  0.0452  0.0865 -0.1104
 9947W        W25416  15.979  12.130   3.125  0.2903  0.2570  0.0402
 9948W        W25417   4.369   6.708   2.784  0.0442 -0.4372 -0.0648
 9949W        W25418  18.176   2.774  10.799 -0.2243  0.2245 -0.0440
 9950W        W25419  13.283   1.855   0.987 -0.2283  0.0951  0.2041
 9951W        W25420   4.697  16.888  15.309 -0.1028 -0.2108 -0.1760
 9952W        W25421  18.163   7.111  10.943 -0.1260  0.5609 -0.0932
 9953W        W25422   0.883  17.912  12.519  0.1678  0.2756 -0.0362
 9954W        W25423   7.526   8.660   2.464 -0.1564  0.1486 -0.2116
 9955W        W25424   7.969   7.237  10.390 -0.2363 -0.0968  0.3174
 9956W        W25425   3.864  16.539   3.215  0.1128 -0.1659  0.2396
 9957W        W25426   8.458  17.448  12.239  0.1239  0.0386 -0.3409
 9958W        W25427   8.097  17.961   0.989 -0.1798 -0.0677 -0.0975
 9959W        W25428  12.282   8.338   3.901 -0.0076  0.0565  0.0082
 9960W        W25429  16.951  15.412  12.348  0.0417 -0.1171 -0.0143
 9961W        W25430   6.332   5.728   4.381 -0.0253  0.4544  0.1369
 9962W        W25431  17.704   9.577   0.792  0.0190  0.0736 -0.1248
 9963W        W25432   0.095   4.811  12.272  0.1021 -0.0445  0.2212
 9964W        W25433   5.391   3.001  10.778 -0.2001  0.1431 -0.0097
 9965W        W25434   8.720   2.134   6.014  0.1348 -0.2329  0.2162
 9966W        W25435  10.612   8.979   2.251  0.1108 -0.2940  0.4587
 9967W        W25436  11.472  17.622  12.660  0.0580 -0.2020 -0.1387
 9968W        W25437  11.222  12.735  12.203  0.1095 -0.2103 -0.2665
 9969W        W25438   8.445  14.916   5.688  0.0669 -0.0317  0.1424
 9970W        W25439  14.841  17.854  13.675 -0.1834 -0.1216  0.1017
 9971W        W25440  12.555   9.745   0.263 -0.3881 -0.0830  0.2045
 9972W        W25441   1.333   3.964  11.598 -0.2931 -0.1498  0.1744
 9973W        W25442  14.856   1.095   0.335 -0.1035 -0.0032 -0.0403
 9974W        W25443  14.089   1.995  15.153  0.1019 -0.3041 -0.0731
 9975W        W25444   2.564  15.031   1.633  0.1092 -0.1125 -0.0113
 9976W        W25445  11.355   0.170   3.155  0.0569 -0.0764 -0.0889
 9977W        W25446  10.191   6.900  14.254  0.2049  0.3814  0.1274
 9978W        W25447  17.809  14.597  14.339  0.3037 -0.3048 -0.0303
 9979W        W25448   9.646  11.567   0.470  0.1926 -0.3953 -0.1625
 9980W        W25449  13.622  14.720   2.469  0.2853  0.1693 -0.0729
 9981W        W25450   4.334  13.181  14.419  0.0172 -0.0894  0.0519
 9982W        W25451   9.930  16.734   4.184  0.1656  0.1080  0.1661
 9983W        W25452  17.609  14.387   4.912 -0.2107 -0.1413 -0.0583
 9984W        W25453  16.593   5.737   4.158  0.0011  0.1858  0.1291
 9985W        W25454   6.418  10.464  10.310 -0.2686  0.0538 -0.2686
 9986W        W25455   3.953   8.117   2.899  0.2311  0.3896  0.1206
 9987W        W25456  12.063   2.157   1.683  0.0040 -0.2651  0.0765
 9988W        W25457   0.969   4.518  10.920  0.0685 -0.1613  0.0928
 9989W        W25458  13.249   9.983   0.849  0.1156  0.2042 -0.4279
 9990W        W25459   4.106  10.230   4.790  0.4330  0.1941 -0.4422
 9991W        W25460   3.104   9.050   1.510 -0.0256  0.1953 -0.0497
 9992W        W25461   0.829   1.622  11.858  0.0774 -0.0994 -0.3288
 9993W        W25462  17.068  17.710   0.597 -0.0610 -0.1281 -0.1315
 9994W        W25463   8.302   6.162  12.947 -0.2589 -0.1026  0.2045
 9995W        W25464   2.847   6.080  14.658 -0.0350 -0.0829 -0.3508
 9996W        W25465   8.949   8.393   5.571 -0.0316 -0.4974  0.0488
 9997W        W25466  10.193  16.135  10.914  0.3686  0.0984  0.0147
 9998W        W25467   0.116  11.440   9.922  0.2442 -0.2414  0.2631
 9999W        W25468   1.601   7.388   1.122  0.2832  0.1294  0.2374
10000W        W25469   4.815  18.249   1.227  0.0470  0.0184  0.1218
10001W        W25470  14.076   4.111  11.741  0.3655  0.0058  0.3424
10002W        W25471   7.195   5.175  10.587 -0.0208  0.0999  0.1422
10003W        W25472  10.368  13.652  10.538 -0.3291 -0.1142 -0.0708
10004W        W25473   5.477   4.052   5.371 -0.0314  0.1660  0.0132
10005W        W25474  18.903  11.352  15.214 -0.1396  0.1369  0.2006
10006W        W25475   9.690  16.034   0.200  0.2266  0.1712 -0.0468
10007W        W25476   0.475  13.212   4.840 -0.0008  0.2219  0.1684
10008W        W25477   7.756  11.519   1.370  0.2684 -0.2036 -0.0311
10009W        W25478   7.682   9.207   3.605  0.2550 -0.1723  0.0729
10010W        W25479   2.801  11.495  13.089 -0.0680 -0.1755 -0.1604
10011W        W25480  18.955   1.190  14.028  0.0366 -0.1516 -0.1219
10012W        W25481  18.263   9.272   5.152  0.0812  0.0697  0.3017
10013W        W25482  18.786  11.843  15.356  0.2375  0.2489 -0.0169
10014W        W25483   5.239   2.373   4.112 -0.0321 -0.1106 -0.0017
10015W        W25484  15.423  14.969  10.621 -0.2202 -0.2347  0.1218
10016W        W25485   9.065  14.263  10.768 -0.2168 -0.2706  0.1956
10017W        W25486   3.233   6.257   2.421  0.1131  0.0314  0.0698
10018W        W25487  14.745   1.492  11.821  0.3466 -0.2140  0.2442
10019W        W25488  13.943   4.081   1.837  0.1729  0.1989 -0.2666
10020W        W25489   0.595   1.823   3.875 -0.2176 -0.2324 -0.1508
10021W        W25490   7.522  12.387  11.131 -0.0302 -0.1004 -0.1507
10022W        W25491  11.724   4.423  10.528 -0.0953 -0.0911 -0.1400
10023W        W25492  16.716  10.908   2.173  0.0475  0.3751 -0.0495
10024W        W25493   1.428  16.617  14.083  0.1502  0.0028  0.1535
10025W        W25494  11.766   6.231   5.318 -0.3241 -0.1209 -0.0315
10026W        W25495   6.416   3.158   5.263 -0.3561 -0.1086 -0.3606
10027W        W25496   4.192   9.630   5.361 -0.1215  0.1960  0.2488
10028W        W25497   2.630  16.089   0.724  0.1281 -0.2666 -0.0378
10029W        W25498   1.983   3.641   1.459  0.1940 -0.0876  0.2634
10030W        W25499   4.014   4.720   5.102  0.1474 -0.1265  0.1094
10031W        W25500   8.667   5.788   4.109  0.1581 -0.1963  0.1528
10032W        W25501  11.642   6.218  13.681  0.3962 -0.2154  0.1150
10033W        W25502  18.390   0.737  14.190 -0.4675 -0.0450  0.0377
10034W        W25503   5.516  17.521   1.043  0.0712 -0.3757 -0.0365
10035W        W25504   0.555   9.702   3.714  0.1898  0.0439 -0.1560
10036W        W25505  10.617   8.764  14.974  0.1466  0.3164  0.2166
10037W        W25506   4.989  18.004  13.772 -0.2925  0.0321  0.1839
10038W        W25507   3.842  12.766  11.690 -0.0335  0.0580 -0.0334
10039W        W25508  16.533   1.855  12.345  0.1747 -0.0500 -0.1248
10040W        W25509  13.334   9.060  14.248  0.3104  0.0145  0.2984
10041W        W25510   5.557  18.303  12.731  0.1389  0.0623  0.3189
10042W        W25511  14.558   2.736  10.926 -0.4758  0.2692  0.4017
10043W        W25512   0.403   5.165  11.554 -0.0796 -0.1117 -0.2971
10044W        W25513  10.110   2.239  14.028 -0.3626 -0.2432 -0.2442
10045W        W25514  12.105  12.537  11.349  0.0253  0.1230  0.3520
10046W        W25515   3.301  18.978  15.207  0.0954  0.2866  0.2865
10047W        W25516  16.921  12.715   5.741  0.2888  0.1107  0.1108
10048W        W25517   1.616  11.764   5.072 -0.1883 -0.3709  0.0380
10049W        W25518   8.368  15.597   0.074 -0.0800  0.2279  0.0534
10050W        W25519  11.871   4.946  10.808 -0.3398  0.3519  0.1259
10051W        W25520   9.854   1.786   2.233 -0.2375  0.4083 -0.0608
10052W        W25521   5.062   6.782   0.752  0.1389 -0.1314  0.0861
10053W        W25522  17.930   3.455  11.388 -0.1616 -0.1757 -0.1952
10054W        W25523   5.741   0.370   0.639 -0.2019  0.2367 -0.3130
10055W        W25524   2.605   5.243  14.323  0.0723 -0.0002 -0.2057
10056W        W25525   6.143   3.241   0.155  0.2078  0.0734 -0.0654
10057W        W25526  17.812  17.125  10.432 -0.1372  0.0427 -0.4357
10058W        W25527   6.068  12.701  13.974 -0.2119  0.0301 -0.2473
10059W        W25528   5.982   5.033  14.910  0.1904 -0.3225 -0.1928
10060W        W25529  16.400   6.042   3.230 -0.1851  0.0329 -0.0529
10061W        W25530  17.242  16.837   2.012 -0.4826  0.3380  0.1138
10062W        W25531  14.636   4.944   1.857 -0.1746  0.0544 -0.3275
10063W        W25532   5.835  18.915  15.229  0.1243 -0.3354 -0.2347
10064W        W25533  15.552   8.625  15.036  0.4185 -0.1060 -0.0470
10065W        W25534   2.670  15.014   0.662 -0.0781 -0.3204 -0.3532
10066W        W25535   4.948   9.543   1.794  0.0942 -0.1346 -0.0549
10067W        W25536  13.703   6.447   1.189 -0.1021 -0.1638 -0.1723
10068W        W25537  18.378  14.321  13.594  0.0015  0.1268 -0.0084
10069W        W25538   2.760   9.381   9.840 -0.2526 -0.1537 -0.2015
10070W        W25539  17.574   3.576   0.995 -0.0289 -0.0189  0.3815
10071W        W25540  12.893   7.176  12.243  0.0304 -0.0958  0.2810
10072W        W25541   7.838   7.870  11.192 -0.0581 -0.2181  0.3611
10073W        W25542   6.160  18.155   1.406  0.1378  0.3164  0.2323
10074W        W25543   4.932   4.021   4.550  0.1413  0.2511 -0.4836
10075W        W25544   3.500   5.940   2.888 -0.0260 -0.2064  0.4635
10076W        W25545   8.110   6.572  11.758 -0.2059 -0.1466  0.0689
10077W        W25546  15.790  15.827  13.945 -0.2549  0.2259  0.0621
10078W        W25547  10.488   4.944   4.853 -0.0601  0.0391  0.1919
10079W        W25548   8.346  12.923  13.556 -0.1256  0.1946 -0.1165
10080W        W25549  14.284   2.899   9.646  0.1128  0.5014  0.1607
10081W        W25550   9.792   1.054  11.176 -0.1830  0.0278  0.2618
10082W        W25551   9.891  10.243   9.994  0.3522 -0.2618  0.0680
10083W        W25552  10.876   3.463   2.245  0.0991  0.0346  0.1953
10084W        W25553   1.534   4.879  12.535  0.3421 -0.0247  0.3294
10085W        W25554   2.653   6.492  10.870 -0.2359  0.0391  0.1151
10086W        W25555   0.017  16.073  10.778 -0.2471  0.0143  0.5448
10087W        W25556  10.123   5.873  13.374 -0.1292 -0.2373 -0.0575
10088W        W25557   9.808   0.913   3.034  0.3349  0.0987 -0.1396
10089W        W25558  10.111  14.177   1.661  0.1233 -0.1866 -0.2420
10090W        W25559  16.992   6.633   4.250 -0.1878 -0.1071 -0.2372
10091W        W25560   9.936  18.038  11.319 -0.1441 -0.1594 -0.1679
10092W        W25561  18.025   1.072   5.303  0.2806  0.0954  0.1398
10093W        W25562  17.244  15.749  15.161 -0.1631  0.5725  0.0710
10094W        W25563   3.391   0.340  14.761  0.0534  0.0793  0.0602
10095W        W25564   1.733  14.265   3.333 -0.2018  0.2102 -0.1418
10096W        W25565  15.160   3.266   0.498 -0.1168 -0.2027 -0.0804
10097W        W25566   5.094   5.819  10.646 -0.0974  0.0524  0.1942
10098W        W25567   0.246  11.345  12.449 -0.0363  0.2057 -0.0227
10099W        W25568   1.191   4.773   3.178  0.0132 -0.0711  0.3244
10100W        W25569   4.173  14.722   5.143 -0.2156 -0.1844 -0.0987
10101W        W25570   9.214  17.513   3.475  0.0923 -0.0766 -0.1215
10102W        W25571   2.216  14.415   3.204 -0.1296 -0.1815 -0.3874
10103W        W25572  10.805  16.836   3.765 -0.1044 -0.1828  0.2476
10104W        W25573  13.573   3.111  14.812  0.2209  0.2393 -0.2043
10105W        W25574   8.505  18.120  14.386 -0.2594  0.1257  0.0967
10106W        W25575   7.859   2.675   1.012  0.0678 -0.1731 -0.1425
10107W        W25576  13.087  17.102  11.753  0.0437  0.0147  0.2203
10108W        W25577   9.719   5.946  14.926 -0.0128  0.0025 -0.0886
10109W        W25578  17.401  15.270   2.870 -0.2544  0.1151  0.3867
10110W        W25579  12.048   5.740  14.967  0.2725  0.0336  0.0273
10111W        W25580   3.813   6.778   1.863 -0.2947 -0.3313  0.0084
10112W        W25581   0.478  17.894  10.409 -0.0891 -0.0241 -0.6323
10113W        W25582   6.043  17.373  14.663 -0.2801 -0.0161  0.1711
10114W        W25583   6.685  12.170   1.744  0.0600 -0.0477  0.1613
10115W        W25584  14.080   4.670  12.426 -0.3218  0.0996 -0.0827
10116W        W25585  14.664  13.477  13.383  0.0411 -0.3404  0.1807
10117W        W25586   9.351  11.508  12.814 -0.1464 -0.0428  0.1210
10118W        W25587   9.013  11.237  11.465 -0.3728  0.1235  0.0698
10119W        W25588   1.605  16.192   0.619 -0.4011  0.3356  0.2465
10120W        W25589  14.785  15.512  12.957  0.0633 -0.1213 -0.1424
10121W        W25590   6.898  14.678   3.649  0.0984 -0.4436 -0.0715
10122W        W25591   5.076  15.349   4.898 -0.0273 -0.1176  0.2421
10123W        W25592   9.111  12.276  15.344 -0.3511  0.0462  0.0616
10124W        W25593   1.122  16.665  14.504  0.0996 -0.0012 -0.0593
10125W        W25594   6.459   4.923  14.113 -0.3647 -0.2315  0.0253
10126W        W25595   8.743   3.054   3.422 -0.1914 -0.1532  0.2261
10127W        W25596  10.860   8.556  12.708 -0.0635 -0.0355  0.4457
10128W        W25597   7.582   5.884   0.972  0.0505  0.0587 -0.1961
10129W        W25598   2.172   4.823   1.180  0.0055  0.1377 -0.1166
10130W        W25599   7.282   2.555   0.271  0.3710 -0.3622  0.0735
10131W        W25600  18.885  12.735  13.864  0.0067  0.0328 -0.0606
10132W        W25601  10.284   1.630   2.602 -0.2932 -0.0405 -0.1125
10133W        W25602  12.135   2.604  11.703 -0.1140  0.0885 -0.0620
10134W        W25603  12.645   4.110   2.113  0.0250 -0.0245  0.0569
10135W        W25604   9.595  18.512   3.325 -0.2621  0.1659  0.0963
10136W        W25605   1.296   5.956   4.245  0.2634 -0.1156 -0.2638
10137W        W25606  15.235  14.660  14.740  0.1238  0.0558 -0.0075
10138W        W25607   3.516   9.147   4.126 -0.2500  0.2888  0.1788
10139W        W25608  13.095   2.831  11.328 -0.0450 -0.1129 -0.1539
10140W        W25609   8.845  17.409  13.361 -0.0155 -0.1027  0.0875
10141W        W25610  17.726   6.599  10.048 -0.1799 -0.1847 -0.5283
10142W        W25611  10.915   2.875   3.032 -0.1222  0.1714  0.1273
10143W        W25612   7.824   7.345   3.712 -0.0182  0.2615  0.2668
10144W        W25613   2.402  16.618  11.684 -0.3987  0.0711  0.0652
10145W        W25614   3.488   2.102   2.255  0.0214 -0.0062  0.1111
10146W        W25615   6.281  12.933   0.042  0.2232 -0.2223 -0.0236
10147W        W25616  16.892   9.013   2.253 -0.4069  0.1747  0.0778
10148W        W25617  13.830   6.329  15.061  0.1302 -0.1388  0.3067
10149W        W25618   8.019   0.901  13.678 -0.0598 -0.1593  0.0000
10150W        W25619   1.514  18.221  12.862 -0.1005  0.0864  0.1560
10151W        W25620   8.719  13.878  15.010  0.0110  0.0642 -0.2470
10152W        W25621   0.397   4.017   3.867  0.1258  0.0728  0.1248
10153W        W25622  15.275  13.229  12.895 -0.1544  0.0191  0.0959
10154W        W25623  10.026   0.629  11.177  0.4020 -0.1201 -0.0579
10155W        W25624  12.089   7.453   1.963 -0.3437  0.0038  0.2527
10156W        W25625  12.675  11.317  11.727  0.1691  0.3229 -0.1041
10157W        W25626   3.425   5.882   1.629 -0.1423  0.3970  0.2882
10158W        W25627  13.624   2.956   4.643  0.0764 -0.2437  0.2408
10159W        W25628  10.996   8.052  12.788 -0.1054 -0.1715  0.1072
10160W        W25629   2.280   4.878   2.535  0.2837 -0.3627  0.0778
10161W        W25630  14.935  10.848  13.008  0.0742  0.0284  0.1417
10162W        W25631   6.878   5.606  13.751  0.1752 -0.3242  0.2361
10163W        W25632   1.140   8.933  10.857 -0.0003 -0.3351  0.2585
10164W        W25633  18.819   2.857   3.761  0.0395  0.1297 -0.1030
10165W        W25634   2.502  15.438   2.015 -0.2131 -0.0740 -0.0696
10166W        W25635   1.384   7.317   2.434  0.2954 -0.0719 -0.2285
10167W        W25636  10.430  13.694  11.058 -0.1257  0.0804  0.1419
10168W        W25637  16.585  18.949   4.827  0.3221 -0.2749  0.0787
10169W        W25638   7.454   2.673  15.111 -0.0326 -0.0638  0.0844
10170W        W25639   1.124  14.535   4.601  0.5219  0.1330 -0.0652
10171W        W25640   7.276  10.770   0.325 -0.0651 -0.0710  0.0290
10172W        W25641  15.216  12.895  12.258 -0.0005 -0.0910 -0.1255
10173W        W25642   7.008  16.519  13.060  0.0301  0.1785  0.4404
10174W        W25643  13.929  12.241  14.875 -0.0198  0.3483 -0.1199
10175W        W25644   9.347   5.536   1.880  0.0765 -0.2994  0.0995
10176W        W25645  12.691  12.295  10.973 -0.0792 -0.0493 -0.0141
10177W        W25646   2.954  14.970  14.123 -0.0265  0.0349 -0.2995
10178W        W25647   8.320  10.868  12.410 -0.2074 -0.1651  0.4011
10179W        W25648   9.762   7.657   1.077  0.0606  0.0671 -0.1752
10180W        W25649   6.348   8.203   3.728  0.3291  0.0244 -0.0506
10181W        W25650  12.112  13.014   0.755 -0.2239 -0.1647  0.1260
10182W        W25651  12.902  18.071   0.263  0.1000 -0.0920  0.0524
10183W        W25652   8.982   6.332  13.340  0.1272  0.1969 -0.2681
10184W        W25653   5.156   7.190   4.856  0.0942  0.1456  0.1508
10185W        W25654   4.685   3.814  14.808  0.2050  0.0571  0.1686
10186W        W25655  10.386   5.215   1.554  0.2162  0.0965 -0.1694
10187W        W25656   4.434   5.723   3.021  0.4310  0.0525 -0.1104
10188W        W25657   0.045   8.077   3.736  0.0493 -0.1905 -0.0433
10189W        W25658   4.552  13.878  12.852 -0.3713 -0.0016  0.1380
10190W        W25659  16.057   2.601  11.730  0.3919 -0.1298  0.0802
10191W        W25660  14.200  16.575  12.249 -0.1406 -0.0775  0.2192
10192W        W25661   9.843  10.949  10.374  0.3053 -0.2874  0.1145
10193W        W25662  13.736  17.475   5.414  0.0222 -0.1139  0.2743
10194W        W25663  18.900   6.701  14.447  0.1686 -0.2527  0.1026
10195W        W25664  18.601   4.045   3.646  0.2071  0.1020  0.0741
10196W        W25665  17.562   8.894  13.276 -0.0104 -0.1050  0.1337
10197W        W25666  13.509   1.010   3.346 -0.2643  0.2963 -0.4404
10198W        W25667  16.647   1.202   4.059  0.2371 -0.0092 -0.2198
10199W        W25668   8.171  13.288   2.747  0.0087  0.0161  0.2616
10200W        W25669   4.541   2.059  14.112  0.0237 -0.2561 -0.0770
10201W        W25670   7.010   5.626  15.051 -0.0856  0.0752 -0.0763
10202W        W25671  16.904  11.402   0.873  0.0377 -0.1468  0.1584
10203W        W25672  14.843   1.832   4.841 -0.3292 -0.4467  0.2585
10204W        W25673   8.776   3.871   2.791  0.3305 -0.2210  0.1251
10205W        W25674   9.125   9.279  10.339  0.0021  0.0262  0.0688
10206W        W25675   2.732   9.006   4.258  0.2932 -0.3689 -0.3032
10207W        W25676  13.877  17.314   1.903 -0.1071 -0.3253  0.2788
10208W        W25677   1.599   0.072   3.930  0.4224 -0.0914 -0.0778
10209W        W25678   8.163  17.182   0.483  0.2592  0.0073 -0.1746
10210W        W25679   2.566   4.021  13.580 -0.0999  0.0047  0.0601
10211W        W25680  15.766  12.270   4.944  0.2548 -0.4536 -0.3059
10212W        W25681   0.379  14.721   0.734 -0.2917 -0.0672  0.3945
10213W        W25682   8.331  13.300  13.236 -0.1722  0.2925  0.0664
10214W        W25683  11.605   6.086   2.210  0.0044 -0.1536  0.1802
10215W        W25684  12.743   2.577   1.191 -0.0682 -0.0283  0.0110
10216W        W25685   8.870  12.483   2.146  0.2328  0.2977  0.4424
10217W        W25686   4.601   8.155  13.026 -0.1569 -0.1009 -0.1472
10218W        W25687  11.841   5.399  11.085 -0.1353  0.0833 -0.0156
10219W        W25688   6.304   8.581   4.713 -0.0146  0.4693 -0.1631
10220W        W25689   0.660   8.960   5.193 -0.5506 -0.0453 -0.0237
10221W        W25690  15.249  12.482   4.931  0.0204 -0.0247 -0.1387
10222W        W25691  10.946  16.787  14.840  0.0295  0.2297 -0.3045
10223W        W25692  11.488  18.980  12.417  0.0664 -0.0264 -0.0499
10224W        W25693  17.005   1.626   2.910  0.0831 -0.2158 -0.0738
10225W        W25694  13.349   6.653   4.281  0.0730 -0.2894  0.1145
10226W        W25695  16.509   4.984  15.032 -0.1356 -0.1559  0.1222
10227W        W25696  17.584  10.469   3.460  0.0704  0.2167  0.1632
10228W        W25697  11.271  17.199   4.166 -0.0079  0.0978 -0.0631
10229W        W25698   3.859   7.265   1.885 -0.3712 -0.3727 -0.3625
10230W        W25699   8.086   4.125  12.093 -0.2452  0.0677 -0.0134
10231W        W25700   3.023   9.190   0.515  0.1773  0.0535  0.1224
10232W        W25701   4.674  15.507   2.397 -0.2472  0.0354  0.2297
10233W        W25702  17.910   6.448  12.564  0.2186  0.1573 -0.2751
10234W        W25703   4.946  12.978  12.981 -0.2096  0.0819  0.0069
10235W        W25704   8.510   2.387   1.749  0.1605 -0.4050  0.4174
10236W        W25705  11.419   3.570   2.851 -0.0163  0.2044 -0.0637
10237W        W25706  16.931   2.239  11.148  0.2257  0.1160  0.2511
10238W        W25707   2.109   9.673   4.483  0.1228 -0.0604 -0.0710
10239W        W25708   1.803  12.950   4.247  0.0693 -0.2324 -0.1225
10240W        W25709  16.412   1.308  13.833 -0.0288 -0.2681 -0.1331
10241W        W25710   4.102  15.121  14.828 -0.2020  0.2308 -0.0707
10242W        W25711  10.091   7.930   2.598 -0.4360  0.0959  0.2139
10243W        W25712   2.031   6.237   3.895 -0.1843  0.0446  0.2231
10244W        W25713   4.650  14.071  11.820 -0.2137  0.4290  0.1237
10245W        W25714   0.829   9.583  13.709  0.2380 -0.0141 -0.1050
10246W        W25715   3.731  16.490  13.024  0.3147 -0.0745 -0.3060
10247W        W25716   2.416  10.701   3.685  0.1498 -0.2085  0.2223
10248W        W25717   2.459  12.654  14.292  0.3336  0.0259 -0.1134
10249W        W25718  14.549  13.775   0.652  0.2390 -0.2345  0.2707
10250W        W25719  18.760   9.528  13.068  0.0318 -0.0688  0.1009
10251W        W25720  12.272   2.873   4.749 -0.2758  0.0979  0.4555
10252W        W25721  15.804   2.319  12.129  0.0525 -0.0873  0.1682
10253W        W25722  14.051  13.878  13.389  0.1101  0.3108 -0.0346
10254W        W25723   3.606   4.473   0.893  0.1463 -0.1578 -0.3453
10255W        W25724   4.401  16.461  15.362  0.3334  0.2136 -0.3154
10256W        W25725   1.988   5.028  12.595 -0.2565  0.0022  0.0168
10257W        W25726   8.088   9.335   3.250 -0.0093  0.0709 -0.0281
10258W        W25727  16.670   2.982   2.276  0.3448  0.2486  0.2086
10259W        W25728  16.693   2.710   1.797 -0.1266 -0.1869 -0.1132
10260W        W25729  11.314  14.208   0.381  0.1836 -0.0394  0.1156
10261W        W25730   9.493  10.027   2.465  0.0436  0.0251 -0.1002
10262W        W25731   1.701  18.205   4.128 -0.4172 -0.2723 -0.3303
10263W        W25732   4.530  12.638  13.219  0.0240 -0.0613  0.2140
10264W        W25733  12.722   2.458   4.159 -0.1177 -0.1062 -0.1762
10265W        W25734   7.261  18.768  14.066  0.2379 -0.1267 -0.1624
10266W        W25735  18.166  13.470   0.783 -0.1806 -0.2025  0.0824
10267W        W25736  12.999  15.575  13.841 -0.0086  0.3826  0.1230
10268W        W25737   2.440   9.735  10.752  0.0675 -0.3141 -0.3139
10269W        W25738   9.673  11.068  10.927  0.0028  0.0797  0.2864
10270W        W25739  13.111  18.485   5.046 -0.0939 -0.2288  0.2267
10271W        W25740  15.344   3.277   1.705 -0.2971 -0.2749 -0.2009
10272W        W25741  18.987   4.591   9.845  0.2647  0.1157  0.0533
10273W        W25742   2.562   6.067  12.849  0.2210 -0.1885  0.2813
10274W        W25743   9.815  14.736   2.410 -0.1302  0.0857 -0.1015
10275W        W25744  13.437   7.569   3.636  0.0523 -0.2583  0.0944
10276W        W25745   5.966   6.601   1.667  0.1060 -0.0156 -0.4732
10277W        W25746   7.882   0.913   2.864 -0.0664 -0.0388 -0.0049
10278W        W25747  17.969   5.478   3.790 -0.2012 -0.1529 -0.0543
10279W        W25748   3.122   6.158  13.130  0.0884  0.1892  0.3123
10280W        W25749  11.152   7.707   1.495 -0.1435 -0.0299 -0.1403
10281W        W25750  11.713  13.712  12.646  0.0832 -0.3549  0.2367
10282W        W25751  15.231   6.810   1.808  0.1771  0.0985 -0.0407
10283W        W25752   5.529   2.044  14.434 -0.2091  0.1010  0.2436
10284W        W25753  13.529   6.497  11.431 -0.1661  0.2393  0.1400
10285W        W25754   2.333  11.583   3.415  0.3029 -0.0302 -0.3652
10286W        W25755  16.375   7.142   1.676  0.0537  0.1322  0.0570
10287W        W25756   8.534   4.248   4.642  0.1012  0.0859  0.1620
10288W        W25757   4.003   4.545   3.574 -0.0165 -0.0847 -0.3359
10289W        W25758   0.339   3.339  13.178  0.2233  0.1153 -0.2091
10290W        W25759   1.572   1.375   0.466  0.1507 -0.0793  0.0852
10291W        W25760   8.843   4.669   2.253  0.1169  0.1601 -0.3079
10292W        W25761   5.869  17.728  13.413  0.2501 -0.2996  0.0477
10293W        W25762  12.906  17.964   5.185  0.0287  0.1764 -0.3334
10294W        W25763  14.387   4.405  13.626 -0.2059 -0.0180 -0.0952
10295W        W25764   7.718   0.195   2.110 -0.0260 -0.0207  0.2117
10296W        W25765   8.695   0.621  13.427 -0.3129 -0.1702 -0.0625
10297W        W25766   4.518  13.288   3.426 -0.0144  0.1841 -0.1465
10298W        W25767   6.690   3.739  12.412  0.0644 -0.4941  0.3583
10299W        W25768  18.286  16.889  10.490  0.1322  0.2462 -0.0368
10300W        W25769  18.744   1.736   3.673 -0.1729 -0.2037  0.1774
10301W        W25770   0.181  15.822  10.267  0.0143  0.0009 -0.0401
10302W        W25771   2.832   7.808  11.561  0.3422 -0.0382  0.0563
10303W        W25772   8.872   0.653  12.953  0.0536  0.0739  0.1835
10304W        W25773  18.952   9.019   1.313  0.1884 -0.0125  0.1297
10305W        W25774  14.156   3.165   3.243  0.1838 -0.1212  0.1856
10306W        W25775   0.014   8.543   1.087  0.0330 -0.0598  0.2433
10307W        W25776   6.156   6.782  14.433 -0.2093 -0.0782 -0.0606
10308W        W25777   9.112  12.262   4.917  0.0564 -0.5294  0.0015
10309W        W25778  13.355  11.605   5.281 -0.2176  0.2716 -0.3726
10310W        W25779  10.677   4.845   1.642  0.2857  0.0644 -0.3236
10311W        W25780   7.686   1.974  14.388  0.0045  0.0898 -0.2376
10312W        W25781   8.995  14.028   1.091 -0.2754  0.2020 -0.0980
10313W        W25782   3.620  13.690  10.128  0.2365 -0.0669  0.3045
10314W        W25783   4.996   0.911  11.419  0.1532 -0.0391 -0.0265
10315W        W25784   5.742  15.819  15.335  0.0922 -0.3401 -0.1357
10316W        W25785   8.582  10.871   0.458 -0.0576  0.2674  0.1220
10317W        W25786  16.493   5.704   0.668 -0.1715  0.1477  0.1515
10318W        W25787  10.671   2.507   2.690  0.0539 -0.0612 -0.3632
10319W        W25788   3.857   4.355   1.729  0.0154 -0.3998  0.2587
10320W        W25789   6.524  15.404  12.283  0.0239  0.3388  0.2275
10321W        W25790   2.292   2.529  11.251 -0.1343  0.4374  0.0472
10322W        W25791   2.697   8.735   3.492  0.0414  0.1183 -0.0287
10323W        W25792   9.722   7.949  14.316  0.2317 -0.1599  0.3075
10324W        W25793   7.744   8.408  12.005 -0.2093  0.1482  0.1121
10325W        W25794   5.063   1.772   3.138  0.0140  0.2387  0.1232
10326W        W25795  10.649  16.787  13.195  0.1546  0.1523  0.0256
10327W        W25796   0.239   3.382   1.006  0.1390 -0.1350 -0.1093
10328W        W25797   2.468   4.630   4.348  0.1451 -0.0847  0.0095
10329W        W25798  12.639  12.563  13.059 -0.1458 -0.1031 -0.3619
10330W        W25799   6.490   2.042   2.072  0.1401  0.1550  0.0317
10331W        W25800  10.548   0.674  11.134 -0.1388 -0.0475  0.3908
10332W        W25801   0.090   7.971  10.703 -0.0064 -0.0532  0.0189
10333W        W25802   4.134  10.559  11.311  0.3832 -0.0478  0.2189
10334W        W25803   6.831   0.465   2.735 -0.1495 -0.0596 -0.0012
10335W        W25804  15.315  17.184   1.109  0.0853  0.1786  0.0875
10336W        W25805   6.068   6.827  10.552  0.3051 -0.2296 -0.2748
10337W        W25806  14.728   6.395   1.650 -0.0000 -0.2708 -0.3130
10338W        W25807   0.921   4.591   4.521 -0.1974 -0.3054 -0.2245
10339W        W25808   7.415  13.302   2.110 -0.3112  0.3329 -0.1015
10340W        W25809  15.901   8.424  14.655  0.1630 -0.0338  0.1609
10341W        W25810   9.708  17.568  11.426 -0.1473  0.0558  0.1575
10342W        W25811   4.818   5.035   4.471 -0.1630  0.2427  0.1433
10343W        W25812  18.438  11.889   4.549 -0.1894 -0.3711  0.2879
10344W        W25813  16.941  16.382  14.613  0.1188 -0.1078 -0.5185
10345W        W25814  11.460   1.289  14.736 -0.1446  0.0649 -0.2514
10346W        W25815   6.043  14.122  14.323 -0.0914  0.1550  0.3248
10347W        W25816  13.219   6.245   1.985 -0.0539  0.0446  0.0397
10348W        W25817  12.522  17.882   3.026 -0.4181  0.0414  0.2322
10349W        W25818  10.936   8.192   5.370  0.1845  0.2295  0.2691
10350W        W25819  18.974  11.831   2.741 -0.2945 -0.0679  0.1118
10351W        W25820   7.942  13.631  13.917  0.0661  0.1732 -0.1226
10352W        W25821  12.690  18.004  12.144  0.0783 -0.2438  0.4128
10353W        W25822  15.050   1.899  15.077  0.0430 -0.0239 -0.1462
10354W        W25823  12.068  12.216   1.951  0.2714 -0.0017  0.0936
10355W        W25824  13.328  12.584   4.270 -0.1440 -0.0607 -0.1002
10356W        W25825  17.561  12.498  13.066  0.0354  0.2642  0.0377
10357W        W25826  16.803  14.505   4.257  0.2775 -0.0764  0.2748
10358W        W25827   7.679   1.759   4.917  0.1489  0.5521 -0.1148
10359W        W25828   2.887  10.828   0.674 -0.1354 -0.1264 -0.0224
10360W        W25829  13.057  15.867   1.111  0.4357  0.1865  0.0409
10361W        W25830   4.925   8.461   1.830 -0.4394  0.0330 -0.0232
10362W        W25831   9.983   1.591  13.607 -0.0719  0.1080  0.1989
10363W        W25832   3.200   8.477   2.611 -0.2481 -0.0145  0.3068
10364W        W25833   0.726  10.745   4.237  0.2739 -0.1205 -0.0272
10365W        W25834  10.068  17.983   2.313  0.1399 -0.1001  0.1106
10366W        W25835  15.705   7.207   4.953 -0.2409 -0.2477  0.1083
10367W        W25836   4.316   1.406  12.377 -0.2266 -0.0549 -0.0368
10368W        W25837   1.936  17.534  12.782  0.1370 -0.4836  0.1864
10369W        W25838   7.406  14.090  12.853  0.0455 -0.3214 -0.1701
10370W        W25839   5.422  18.933  12.668 -0.1302 -0.2869 -0.4146
10371W        W25840  15.271  12.670  14.222 -0.0844 -0.0727  0.3025
10372W        W25841  11.648   3.345   3.360  0.1644 -0.2309 -0.3984
10373W        W25842  17.146   0.122   3.580  0.2226  0.1577  0.1906
10374W        W25843  18.322   7.224  14.936  0.1143 -0.0968  0.1000
10375W        W25844  18.887   7.324  12.259  0.0472  0.2422 -0.1205
10376W        W25845  14.352  10.120   4.510 -0.0884  0.2240  0.1643
10377W        W25846  13.083   9.872   1.652  0.0505 -0.0776  0.2233
10378W        W25847   1.234   4.973   1.536 -0.1646 -0.0343  0.3775
10379W        W25848  14.398  10.722   2.179 -0.3460 -0.3916  0.1387
10380W        W25849  13.662  15.465  14.437 -0.1240 -0.1768  0.2013
10381W        W25850  12.304   7.646   0.475 -0.0673 -0.0051 -0.0236
10382W        W25851  18.804   6.594   1.053 -0.4116 -0.2292 -0.1339
10383W        W25852  17.200   7.966  12.574 -0.3095  0.0831 -0.1800
10384W        W25853  14.541   6.391   3.563 -0.0164  0.2516 -0.0038
10385W        W25854   4.434   7.522   1.794  0.1242 -0.1805 -0.0797
10386W        W25855  18.413   6.151   4.137 -0.0290 -0.0908 -0.1050
10387W        W25856   9.630  12.928   1.627 -0.1408 -0.2895  0.0207
10388W        W25857   0.310   0.831  12.093 -0.0960 -0.0520  0.0867
10389W        W25858   7.846  11.184   0.880 -0.1311  0.1244  0.0736
10390W        W25859  11.630   8.453   9.916 -0.2715 -0.5464  0.0553
10391W        W25860  16.133  11.614  14.409  0.4125  0.2082 -0.0246
10392W        W25861   8.216   2.342   4.206 -0.0586 -0.1536 -0.1236
10393W        W25862   8.065  16.356  13.996 -0.0508  0.0303  0.1859
10394W        W25863   7.339   8.289  12.431  0.2512  0.2851  0.1811
10395W        W25864   2.303  13.796   4.591  0.0594  0.0777  0.1560
10396W        W25865  12.191  17.582  10.979 -0.1184  0.0839 -0.1612
10397W        W25866  14.735   1.490  11.048  0.0715  0.1551  0.0035
10398W        W25867  16.648  10.350  12.922  0.0160 -0.0298 -0.1147
10399W        W25868   1.473   8.140   3.563 -0.1767 -0.0664 -0.2188
10400W        W25869   6.138   5.788  11.605 -0.0040  0.0493 -0.3319
10401W        W25870   4.865   2.557   0.557 -0.0485 -0.0029  0.0124
10402W        W25871  18.588  14.130   3.585  0.3102 -0.0069 -0.0989
10403W        W25872   1.860   2.002  10.870 -0.3819  0.1676  0.0714
10404W        W25873  18.931  11.425   1.219  0.0682  0.1624  0.0452
10405W        W25874   1.021  17.063  12.774  0.0622  0.0229  0.0544
10406W        W25875   0.244  13.420  11.383 -0.0716 -0.1915 -0.0838
10407W        W25876  16.217  14.480   6.033 -0.0727 -0.1418 -0.0784
10408W        W25877  15.547  14.126   4.568 -0.1698 -0.2516  0.1704
10409W        W25878  16.529   0.301  13.194  0.2321  0.2132 -0.0235
10410W        W25879  13.160  12.503   5.099 -0.0186 -0.1559 -0.1444
10411W        W25880   4.868  10.717   3.571  0.2306  0.0661 -0.0130
10412W        W25881  11.983   2.694  13.536  0.1469 -0.1569 -0.2281
10413W        W25882   6.531   8.088   2.494  0.2589 -0.1433 -0.1638
10414W        W25883  11.662   8.570  14.803  0.0746  0.1111 -0.1781
10415W        W25884  16.327   2.989  11.393  0.2893 -0.3099 -0.0027
10416W        W25885  15.564   4.727  11.090 -0.3945 -0.0035  0.1105
10417W        W25886   4.556   9.080  10.434  0.1732  0.1820  0.2299
10418W        W25887   8.342  16.127  11.733 -0.1000  0.0978 -0.1500
10419W        W25888   7.862   4.867   3.864  0.0772 -0.1562  0.3869
10420W        W25889   7.895   3.978   4.803  0.1250 -0.2436  0.2053
10421W        W25890   9.988   2.314   5.865 -0.0334 -0.2000 -0.0914
10422W        W25891  17.283   4.007  14.182  0.0696 -0.2540  0.1226
10423W        W25892  14.794   9.737   4.510  0.0183  0.0029  0.1998
10424W        W25893   2.214  16.218   5.284  0.0772 -0.0716  0.1533
10425W        W25894   8.864  11.397  13.279  0.1598  0.4047 -0.2608
10426W        W25895   0.361  17.670   2.659  0.0991 -0.1887 -0.3530
10427W        W25896  12.132  13.709  15.366 -0.1934  0.0347  0.1147
10428W        W25897  13.204  17.291   5.681 -0.3755  0.1400  0.0005
10429W        W25898   9.215   9.970  15.104 -0.2844 -0.1353  0.0328
10430W        W25899  16.627   5.650   2.731 -0.1705  0.0606 -0.0706
10431W        W25900   4.042   6.951   0.856  0.2018  0.0707 -0.2597
10432W        W25901  11.044   1.522   3.094 -0.0913  0.2515  0.1869
10433W        W25902  10.145   7.346  12.100 -0.1063 -0.0044  0.1403
10434W        W25903   6.005  11.155  10.561  0.2074  0.2882 -0.0531
10435W        W25904   5.796   7.727   0.814  0.0775 -0.0612 -0.2514
10436W        W25905   0.294   9.654   0.057 -0.0712 -0.2624  0.1150
10437W        W25906   2.928   7.176   2.513  0.4027  0.2362  0.1709
10438W        W25907  17.304  16.926   3.837 -0.2298 -0.0763 -0.0536
10439W        W25908  16.557   6.787  14.476  0.0538  0.1747 -0.0975
10440W        W25909   7.689  10.110   1.288 -0.1507  0.0445  0.2461
10441W        W25910  17.499   0.317  15.333  0.2035  0.1449  0.0951
10442W        W25911  16.662   7.637   0.311 -0.1618 -0.1200 -0.3227
10443W        W25912  18.313   5.559   0.428 -0.0804  0.0108 -0.0999
10444W        W25913   7.193   9.200  11.117 -0.0407 -0.1149  0.0670
10445W        W25914  16.709   4.031   0.039  0.3198  0.2587 -0.1434
10446W        W25915  11.099  17.749  10.645  0.1756 -0.0616 -0.0448
10447W        W25916   9.636  18.501   4.498 -0.0133 -0.2468  0.2949
10448W        W25917   9.950   1.896   5.043  0.2827 -0.4050  0.3789
10449W        W25918   2.468   7.924   0.720  0.0910  0.3505  0.1326
10450W        W25919   0.473  14.298  14.879  0.0765  0.1631  0.0431
10451W        W25920   3.504  13.038   0.207  0.2631  0.0281 -0.1581
10452W        W25921  14.799   2.353  14.174  0.0744  0.1469 -0.0967
10453W        W25922   8.699  18.269  12.687 -0.1115  0.0712 -0.0130
10454W        W25923   2.910   0.566   5.410  0.0345  0.0997  0.0347
10455W        W25924   0.077  11.263   1.970  0.0028 -0.2368 -0.1331
10456W        W25925   4.007  18.980  13.563  0.0879 -0.4606 -0.1190
10457W        W25926   1.423  14.353  14.442 -0.0461  0.1543  0.0815
10458W        W25927   0.604   7.069  15.058 -0.0678  0.1337  0.4671
10459W        W25928   3.701   5.589  11.908  0.0520  0.3155  0.0050
10460W        W25929   1.816   1.796  11.762  0.0477  0.0218  0.0482
10461W        W25930   2.946  11.034  12.830  0.0243 -0.2944  0.1174
10462W        W25931  11.170  16.450  14.553 -0.0766 -0.0311  0.0226
10463W        W25932   6.910   7.492  11.109  0.1282  0.0705 -0.1103
10464W        W25933  15.142   3.888   1.116 -0.3550 -0.1305  0.0695
10465W        W25934   9.820   5.369   1.543 -0.0097 -0.0411 -0.0273
10466W        W25935   2.855   9.831  13.708  0.0203 -0.2513 -0.1334
10467W        W25936   0.225   2.676   0.286  0.3090  0.2098  0.1589
10468W        W25937   6.763   6.489   2.909 -0.0536  0.2005  0.1117
10469W        W25938  14.775  18.898   9.356 -0.0554 -0.0066  0.2789
10470W        W25939  16.644   4.618   1.694  0.0528 -0.4009 -0.1450
10471W        W25940   8.867   3.631   4.740 -0.1592  0.0096 -0.3426
10472W        W25941   0.651  17.344  11.541  0.1249 -0.3167 -0.2557
10473W        W25942  16.898   7.061  15.214 -0.1737  0.0028 -0.1335
10474W        W25943   3.618  15.067   0.878  0.1971 -0.0096  0.2740
10475W        W25944   2.612   8.556   4.526  0.2893 -0.2570 -0.1180
10476W        W25945   3.911  11.810   4.802  0.1367 -0.0987 -0.0752
10477W        W25946   2.940   3.068  11.569 -0.0074  0.0444  0.0702
10478W        W25947   8.674   7.430  14.104  0.2501 -0.0308 -0.1585
10479W        W25948  12.197  11.967  14.487  0.2297  0.0545  0.2349
10480W        W25949   0.887   9.347   2.153  0.1506  0.1927  0.0379
10481W        W25950  14.345   3.830  10.197  0.1794 -0.1120  0.1551
10482W        W25951   3.424   2.135   0.220 -0.4979 -0.0086  0.0550
10483W        W25952  13.614  14.335  14.499  0.0025  0.2483  0.3668
10484W        W25953  11.600   4.812   2.764 -0.3139 -0.0638 -0.2608
10485W        W25954   0.175  10.699  12.200  0.1153  0.1855 -0.1413
10486W        W25955  16.630   8.703   2.605  0.0035 -0.0751  0.1226
10487W        W25956   2.749   9.981  14.484 -0.3845 -0.0744 -0.1770
10488W        W25957  14.369  14.180   2.096 -0.0319 -0.2692 -0.4284
10489W        W25958  13.622   9.735  11.911 -0.0903 -0.0816  0.1618
10490W        W25959  15.286  14.680  11.090 -0.3614  0.1987  0.0252
10491W        W25960   2.579   6.407   4.756 -0.2156  0.0020  0.0394
10492W        W25961  12.399  11.128  13.622 -0.3810 -0.2023 -0.3575
10493W        W25962  16.385   1.589  15.051  0.0894  0.1785  0.2337
10494W        W25963  10.374   1.952  14.333 -0.0996 -0.0202 -0.3310
10495W        W25964  12.978   3.714  12.602 -0.2502 -0.0404 -0.2795
10496W        W25965  15.692   9.252   3.124 -0.0922  0.0433  0.1847
10497W        W25966   5.061  17.935  11.137 -0.3658  0.1772  0.1158
10498W        W25967  15.382  10.590  12.901 -0.1266  0.2398 -0.2272
10499W        W25968   7.776   4.260   4.135  0.2016 -0.0112  0.3500
10500W        W25969  15.976  18.103  14.778 -0.0078  0.3563 -0.0088
10501W        W25970  10.748   6.729   4.048  0.1216  0.0835 -0.2039
10502W        W25971  13.761   5.805   5.342  0.0232  0.1596  0.0780
10503W        W25972   8.004  11.500   1.846  0.1105 -0.0744 -0.0990
10504W        W25973   9.235   1.809   2.831 -0.0981 -0.4098  0.4208
10505W        W25974   1.627   9.999   1.111 -0.3648  0.1611  0.1214
10506W        W25975   8.743  18.595   4.357 -0.3047  0.0378 -0.3151
10507W        W25976   8.778  13.935  12.007 -0.0312 -0.0870 -0.1432
10508W        W25977   7.604  19.016   5.879  0.0016  0.0051 -0.2459
10509W        W25978  10.058   1.658  13.111 -0.0701  0.0519  0.1191
10510W        W25979   2.872   5.577   2.100  0.1082 -0.0511 -0.0854
10511W        W25980  13.439   1.395  11.714 -0.2122  0.0240  0.0468
10512W        W25981   8.478  17.708   1.280 -0.0576  0.0035 -0.2359
10513W        W25982   1.311   2.694  11.510  0.3866  0.1241 -0.3363
10514W        W25983   0.172   5.777  10.794  0.0247 -0.4306  0.0773
10515W        W25984  15.694   2.130   2.330  0.2126  0.1857 -0.3224
10516W        W25985  17.022  12.326  12.212  0.0903 -0.1368 -0.1954
10517W        W25986  18.723  12.817   0.146  0.1309  0.2023  0.0052
10518W        W25987  12.626   8.535  10.706 -0.0899  0.2439 -0.3215
10519W        W25988  18.803   4.141  11.252 -0.1089 -0.0617 -0.1439
10520W        W25989   4.308   4.016   0.992 -0.0919 -0.1976  0.0586
10521W        W25990  16.101   2.294   5.529 -0.2571  0.2502  0.0331
10522W        W25991   2.160   0.066  13.898 -0.0551 -0.0995  0.1703
10523W        W25992  12.616   4.394   1.010 -0.0993 -0.0993  0.0854
10524W        W25993   9.778  16.635  11.709  0.0364 -0.1708  0.1508
10525W        W25994   1.769  18.460  11.236  0.0837 -0.0461  0.3064
10526W        W25995  10.542   7.327   3.456  0.0602 -0.0317  0.1250
10527W        W25996   2.742   0.154   5.028  0.0146 -0.3201 -0.1957
10528W        W25997  10.925   4.636  10.545  0.2085  0.0613 -0.0480
10529W        W25998  15.990  18.131   2.571 -0.2980  0.0697  0.1582
10530W        W25999   8.643   8.527   2.871 -0.2626  0.0374  0.2970
10531W        W26000  16.091   6.358  13.756  0.0847  0.2365  0.0031
10532W        W26001   7.901  11.116   2.841 -0.0276  0.0714 -0.1386
10533W        W26002  11.323   7.891  13.636  0.2305  0.0363  0.2992
10534W        W26003  14.541  17.479   0.633  0.0668 -0.0707  0.2145
10535W        W26004   3.280   0.253   5.427 -0.1970  0.0125  0.3826
10536W        W26005  15.116   5.145   1.410 -0.1313 -0.2293  0.1222
10537W        W26006   8.206  13.105  10.189 -0.0531 -0.0400 -0.1357
10538W        W26007  18.063  18.105  12.301 -0.0517 -0.0507  0.3716
10539W        W26008   7.941  10.865   5.446  0.0787  0.0277  0.0039
10540W        W26009  15.792  10.745   1.133  0.0803 -0.1168  0.0032
10541W        W26010   0.628  18.494  15.287  0.2375 -0.3245 -0.0690
10542W        W26011   9.243   7.667  13.607  0.1443 -0.0648  0.0240
10543W        W26012  15.277  13.746   4.679 -0.4647  0.0544 -0.3203
10544W        W26013  16.565  15.190   2.299  0.0419  0.0808  0.1365
10545W        W26014  14.163   7.790   0.489  0.2010 -0.0067 -0.2894
10546W        W26015   1.438  11.165  12.547 -0.0814 -0.0787 -0.1743
10547W        W26016   5.810  12.123   1.889  0.1580  0.2606  0.1150
10548W        W26017   9.813   7.999  10.392  0.0709  0.0815 -0.0233
10549W        W26018   0.497   7.009  11.629 -0.1801 -0.4040 -0.1160
10550W        W26019  11.029   2.537   3.418  0.1170 -0.2116  0.0214
10551W        W26020   4.804  15.265  10.674  0.2267  0.1017 -0.2217
10552W        W26021  16.167  11.200   2.759 -0.2087 -0.0489  0.0656
10553W        W26022   4.475  15.083   0.721  0.2405  0.0820 -0.1348
10554W        W26023   0.377  14.871   2.408 -0.1326 -0.0497  0.0037
10555W        W26024   1.033  16.160   1.304 -0.0070 -0.0093  0.2740
10556W        W26025   8.498   4.743   4.630 -0.1759 -0.0409  0.1952
10557W        W26026   8.998   8.393  14.554 -0.0597  0.1799  0.0320
10558W        W26027  11.118  17.180   5.590  0.5544 -0.0216  0.1957
10559W        W26028   9.857   2.940   3.384 -0.0009 -0.0213  0.0946
10560W        W26029   7.360  16.938   3.186  0.2099  0.0692 -0.0549
10561W        W26030   6.097   4.849   0.045  0.0874  0.0197  0.1923
10562W        W26031   0.048  11.665   1.659 -0.0447 -0.0136 -0.1159
10563W        W26032   0.457  18.085  14.960 -0.1278  0.0701 -0.2541
10564W        W26033  12.301  16.574  11.741  0.0466 -0.2278  0.1663
10565W        W26034  13.329  18.053   3.250  0.3860  0.2386 -0.3690
10566W        W26035   5.034  16.703   4.712 -0.2674  0.1256  0.0430
10567W        W26036   1.137   2.975  12.005  0.1366  0.2071 -0.0006
10568W        W26037  12.570   3.706  11.314 -0.1058  0.0843 -0.0370
10569W        W26038  12.373  16.086   4.151 -0.1116 -0.1459  0.0244
10570W        W26039   7.392   1.440  13.663 -0.0013 -0.0016 -0.1830
10571W        W26040  12.269  16.610  14.706  0.0631  0.6162 -0.0572
10572W        W26041   3.653   5.532   0.884  0.0414  0.4191 -0.1586
10573W        W26042  11.998  15.691   2.408  0.2353  0.0188 -0.1081
10574W        W26043   7.795  16.921  14.620  0.1203  0.0489 -0.0481
10575W        W26044  18.530  17.904   1.128 -0.0266  0.1098  0.0338
10576W        W26045  17.185   2.822  10.373 -0.0904  0.0489 -0.1683
10577W        W26046   2.179   3.295  11.092 -0.0853  0.1137 -0.0704
10578W        W26047   5.668   0.286  15.006 -0.0650 -0.1059 -0.0390
10579W        W26048  17.195  18.054  14.396  0.2814  0.1307  0.3316
10580W        W26049   6.263   6.616   4.649  0.0186  0.1389 -0.2498
10581W        W26050   5.983  18.411   4.421 -0.3653  0.3330  0.2754
10582W        W26051  10.244   5.974  11.694  0.1255 -0.2444  0.3010
10583W        W26052   4.206   1.606  14.718  0.0630  0.0811 -0.1273
10584W        W26053  17.450  17.860  10.167  0.0410 -0.3780  0.2596
10585W        W26054   7.293  15.650  12.911  0.0671  0.0476  0.3658
10586W        W26055  11.497   8.326  13.466 -0.1982  0.2681 -0.0228
10587W        W26056  18.983   1.394  15.147  0.1842 -0.2658 -0.3555
10588W        W26057   3.323  11.515   4.349 -0.1398  0.2077 -0.1582
10589W        W26058  16.712  16.411   1.014  0.0819 -0.0274 -0.1430
10590W        W26059   3.899  11.429  12.059 -0.0512  0.1390  0.3138
10591W        W26060  15.592   0.121  10.237  0.0854 -0.0163  0.0853
10592W        W26061   4.340  12.530  12.219 -0.3339 -0.2688 -0.0231
10593W        W26062  10.214  10.870   4.915 -0.4613  0.1068 -0.4834
10594W        W26063   0.850   4.340  15.001  0.4115 -0.3160  0.0344
10595W        W26064   9.660   4.071   3.226 -0.0645 -0.1150  0.1566
10596W        W26065   9.961   2.600   2.504  0.2094  0.2681 -0.0264
10597W        W26066  11.668  11.441   9.591 -0.2656  0.2897 -0.1508
10598W        W26067   1.828  15.573   3.993  0.2137  0.1224  0.2998
10599W        W26068  12.618   5.183  11.356  0.0370 -0.0985  0.1077
10600W        W26069  17.974   9.641  12.792 -0.0792  0.0373 -0.1074
10601W        W26070   5.799   7.476  12.247 -0.0764 -0.3286  0.2927
10602W        W26071   0.020   4.892   5.095  0.0163  0.0564 -0.1645
10603W        W26072  12.738   5.291   3.155 -0.2112 -0.3278  0.4632
10604W        W26073  17.041   4.882   0.320  0.1316 -0.0762  0.1829
10605W        W26074   4.496  18.820  13.369  0.3472 -0.1648  0.1209
10606W        W26075  11.882   8.414   1.825 -0.0533  0.1301 -0.1222
10607W        W26076  12.610   5.725   5.142 -0.0150 -0.1846  0.0594
10608W        W26077  14.308  12.147  11.663  0.0193  0.0862  0.5424
10609W        W26078  16.265  16.269   9.834  0.2156 -0.0372 -0.3127
10610W        W26079  13.253  16.576  14.721 -0.0650 -0.0531  0.2786
10611W        W26080  18.668  13.284   4.297 -0.4229  0.0825  0.0278
10612W        W26081   7.606  11.874  10.505  0.0502  0.0057  0.1251
10613W        W26082  12.034   2.889  12.208 -0.3005 -0.1258  0.0837
10614W        W26083   6.260   5.096   9.781 -0.0123  0.0508 -0.3095
10615W        W26084   5.577  18.933   4.736  0.2363 -0.0028  0.3289
10616W        W26085  12.478   4.164   1.403 -0.1251 -0.0660 -0.0316
10617W        W26086   5.695   8.221   5.117 -0.0749 -0.1306  0.1132
10618W        W26087   6.401  15.749  14.682 -0.1553 -0.0900  0.0532
10619W        W26088   8.455  14.647   2.113 -0.1637  0.1985  0.2832
10620W        W26089  18.848   1.824  12.129  0.0694  0.1009 -0.0795
10621W        W26090  11.144   5.804  12.167  0.1483 -0.3106  0.0915
10622W        W26091   9.381   3.766   4.989  0.1353 -0.0014  0.0672
10623W        W26092  16.735   1.123   4.593 -0.2077 -0.1366  0.2809
10624W        W26093  11.549   9.479  14.632  0.1144  0.1559 -0.1243
10625W        W26094   7.654   4.329   3.059  0.1321  0.1216 -0.0927
10626W        W26095  17.213   0.530  14.543 -0.3262  0.2719 -0.1928
10627W        W26096   9.584  16.937  10.336  0.1153 -0.0192 -0.0369
10628W        W26097   7.304   7.873  13.142  0.3569  0.0761  0.0589
10629W        W26098  14.376   8.112  14.422  0.3048 -0.2689 -0.0307
10630W        W26099  12.226   1.673  13.465  0.3496 -0.0211  0.1262
10631W        W26100   9.535  12.105  10.050 -0.0342  0.2201  0.0341
10632W        W26101   9.308   3.959   5.536  0.2361 -0.1333  0.0150
10633W        W26102   3.852  17.859   0.340  0.0616  0.1126  0.0645
10634W        W26103  11.850   6.755  13.013 -0.1941 -0.1780  0.0786
10635W        W26104  14.583   6.111   2.525 -0.0358  0.0537 -0.1501
10636W        W26105   5.032  15.290  12.554 -0.3087  0.1692 -0.0855
10637W        W26106   0.878  14.184  13.591  0.5742 -0.0150  0.2890
10638W        W26107  15.722  18.547   3.160 -0.2277  0.2218 -0.0633
10639W        W26108  16.825  18.673  11.598  0.0779 -0.2343  0.2428
10640W        W26109  15.171  10.532   3.238  0.1604 -0.0784  0.0648
10641W        W26110  16.358  16.355   3.631  0.0779  0.3825  0.1193
10642W        W26111  16.908  10.174  11.069  0.0542  0.1071 -0.2620
10643W        W26112   0.428   8.630  15.140 -0.2564 -0.4802  0.1894
10644W        W26113   2.296   9.322  11.497  0.2430  0.1727 -0.0466
10645W        W26114  10.036  14.776  15.209 -0.0590 -0.0838 -0.0042
10646W        W26115   1.197  15.053   2.270 -0.4799 -0.3236  0.0251
10647W        W26116   3.551   0.716   3.094  0.0382 -0.0942 -0.2068
10648W        W26117   7.288   7.416   0.475  0.2747  0.1940  0.0549
10649W        W26118  13.600  10.322   5.195  0.1233  0.1248  0.0920
10650W        W26119  11.330   3.724   4.754  0.4569 -0.0386  0.0955
10651W        W26120   8.076   2.210   1.048  0.0797 -0.1584  0.0109
10652W        W26121  10.006   7.758  10.819  0.0540  0.1177 -0.1232
10653W        W26122  13.929   6.833   2.723  0.3274  0.0784 -0.0875
10654W        W26123   7.213   9.658  11.833 -0.0331  0.0041  0.2568
10655W        W26124  15.490   0.960  10.889 -0.1169 -0.3402  0.0423
10656W        W26125   5.588   1.542  11.852  0.1547  0.0303  0.0342
10657W        W26126   6.946   4.648   1.038 -0.1047 -0.0043 -0.2047
10658W        W26127  10.958  11.366  14.197  0.2414  0.0146 -0.0894
10659W        W26128   9.453   3.455   1.105 -0.0107  0.0935 -0.2094
10660W        W26129  13.356  14.737   4.067  0.1915 -0.0803  0.0529
10661W        W26130  16.888   2.631   0.293  0.0749 -0.3873  0.0333
10662W        W26131   1.057  11.499  12.445  0.2068  0.1159  0.1118
10663W        W26132  13.845   7.170   2.322 -0.0785  0.1480  0.1452
10664W        W26133  14.517  11.961   3.190  0.0409 -0.1610 -0.3372
10665W        W26134   9.008   8.362   1.475  0.0112 -0.2581  0.0369
10666W        W26135   7.950  13.635  10.595  0.3719 -0.0179  0.1678
10667W        W26136  14.129   1.246   3.056  0.2869 -0.2892 -0.0835
10668W        W26137   7.530   2.877   2.308  0.1382 -0.1846 -0.0314
10669W        W26138  13.515  10.117  14.624  0.3147  0.3932  0.0262
10670W        W26139  18.255   1.434   1.505  0.1395  0.2505 -0.1728
10671W        W26140   6.174   4.953   0.579 -0.0669  0.0487 -0.2637
10672W        W26141  17.715  13.006   0.290  0.0813  0.1440 -0.0988
10673W        W26142   9.515  15.409   1.128 -0.1666  0.1731  0.3998
10674W        W26143   7.101  15.344   2.671 -0.2492  0.1216  0.3914
10675W        W26144   6.161  18.061   4.047  0.2148 -0.3850 -0.2055
10676W        W26145   0.486  14.220  11.342  0.1648  0.0427  0.0098
10677W        W26146   3.748  12.654  12.407 -0.1576  0.0653  0.0065
10678W        W26147  12.089   9.576   0.237  0.0423  0.1343 -0.0521
10679W        W26148  11.843   7.151   3.613  0.0433 -0.1917 -0.2241
10680W        W26149  10.720  15.828  13.802  0.2465  0.1248 -0.0858
10681W        W26150   0.292  13.153  10.792  0.1970  0.2196  0.0523
10682W        W26151   0.828   1.954  13.108 -0.0933  0.0253 -0.0391
10683W        W26152   9.443  12.422  15.021  0.0506  0.0452 -0.2496
10684W        W26153   2.212   4.124   5.216 -0.0053 -0.3856 -0.3837
10685W        W26154  13.512  16.813  12.631 -0.1860 -0.4053  0.2601
10686W        W26155  13.028  13.725   3.465 -0.2841 -0.1129 -0.0170
10687W        W26156  10.662   5.658  12.391 -0.0021 -0.0037 -0.0757
10688W        W26157  12.486  11.226   2.812 -0.2860 -0.0475 -0.0396
10689W        W26158   0.333   5.325   3.918 -0.1089  0.2202 -0.2096
10690W        W26159  17.353   1.512   2.015 -0.0844  0.0999 -0.0562
10691W        W26160  11.769  10.540   2.549 -0.0632 -0.2156 -0.2211
10692W        W26161  16.354   3.308  10.451  0.2026 -0.1522  0.1255
10693W        W26162   5.179  17.680   1.659  0.1256 -0.0218  0.0253
10694W        W26163   4.695   3.843  13.044 -0.2732  0.0580  0.1919
10695W        W26164   4.454  18.731   5.541 -0.2823  0.1141  0.1678
10696W        W26165   5.602   1.265   1.546 -0.0493  0.0201 -0.0515
10697W        W26166   4.860   2.725  14.546 -0.2457  0.1549  0.0181
10698W        W26167  10.532  10.767   2.019 -0.1374  0.0445  0.1880
10699W        W26168   9.538   7.847   2.993  0.0141 -0.4694  0.1839
10700W        W26169  18.793   8.127   1.310 -0.4957  0.1697 -0.1043
10701W        W26170   4.766  15.817   4.712  0.0833 -0.2425 -0.0179
10702W        W26171   4.652   7.309   4.630 -0.1236  0.1161  0.1793
10703W        W26172   1.312  10.601   1.820 -0.0285 -0.1421  0.1140
10704W        W26173  16.348   6.062   3.757 -0.0177  0.0350 -0.1758
10705W        W26174   5.494  11.320   1.782  0.1940 -0.4479  0.2126
10706W        W26175   8.367  12.387  13.806  0.1886 -0.0442 -0.3564
10707W        W26176   3.873   7.182   3.116  0.0483  0.3383  0.0019
10708W        W26177   3.046   2.869  12.542  0.1051  0.1181 -0.1861
10709W        W26178  11.432   1.666  11.111 -0.0155 -0.0298  0.0803
10710W        W26179   5.047   3.921  12.354  0.1426 -0.2468  0.2238
10711W        W26180  10.314  15.432  10.248  0.2901  0.3571  0.0297
10712W        W26181   3.163  10.531  11.513  0.0075  0.1872  0.0414
10713W        W26182   1.380  15.064  10.829 -0.1003  0.1357  0.2544
10714W        W26183   0.398  13.163   4.110 -0.0781  0.0377 -0.1607
10715W        W26184   6.861   7.323  15.198 -0.1270 -0.0462  0.1782
10716W        W26185  16.178   2.500   5.072 -0.0509 -0.3283 -0.0480
10717W        W26186   4.459  14.815   1.332  0.2113 -0.3003 -0.0267
10718W        W26187   5.915   9.412  15.289 -0.3480 -0.0293 -0.0951
10719W        W26188   1.738   0.031  10.590  0.1154 -0.1208  0.1786
10720W        W26189   8.385  15.116  10.742 -0.0773  0.1881 -0.2302
10721W        W26190   2.929  11.221   4.288 -0.2788 -0.1905  0.0908
10722W        W26191   9.590   7.088  15.082 -0.2693 -0.1422  0.0386
10723W        W26192   2.109   0.553   0.285 -0.2078 -0.1770 -0.2727
10724W        W26193   6.622  10.941  12.102 -0.0333  0.2004  0.1100
10725W        W26194   4.402   0.353   4.854  0.3767 -0.1404  0.0187
10726W        W26195   1.538   2.861   1.553  0.1837 -0.0373 -0.2391
10727W        W26196   9.743   0.476  13.189 -0.0047 -0.1229 -0.1214
10728W        W26197  18.937   6.124   0.457  0.3466  0.0982 -0.2206
10729W        W26198  12.368  14.860   9.780  0.2548  0.1055 -0.2875
10730W        W26199  14.902   5.117   2.920 -0.2917 -0.3546  0.0885
10731W        W26200   6.239   5.416   2.368 -0.2048 -0.1083  0.0254
10732W        W26201   9.252   4.466  10.003  0.1155  0.1281  0.2871
10733W        W26202  11.666  18.861   1.742 -0.1309  0.1021  0.0746
10734W        W26203  12.362  16.793   2.263  0.0405 -0.2514  0.0211
10735W        W26204   9.200   6.595   0.494  0.2334 -0.1586 -0.1400
10736W        W26205   9.330  13.211  15.185 -0.1766  0.1192 -0.0417
10737W        W26206   6.988   8.891  14.240  0.0586 -0.1217  0.0693
10738W        W26207  16.324  14.992   4.788  0.1601 -0.1847  0.0158
10739W        W26208  13.174  12.656   0.531 -0.0437 -0.2306 -0.0674
10740W        W26209  13.157   2.747   1.644 -0.0581  0.0509  0.1097
10741W        W26210  15.284  16.485   2.864  0.1012  0.0060  0.2325
10742W        W26211   7.707   0.545  12.619 -0.0876  0.1081 -0.4176
10743W        W26212  18.746  10.297   4.620 -0.0797 -0.2716 -0.0038
10744W        W26213  12.689  10.813   3.693  0.1519 -0.2663 -0.0136
10745W        W26214   0.662   3.949   0.488  0.2300 -0.2912 -0.1208
10746W        W26215   1.149  14.563  14.024  0.1250 -0.1392 -0.0771
10747W        W26216   6.213   3.408  12.548 -0.0654 -0.2103  0.0150
10748W        W26217   3.788   3.404  12.539  0.1313  0.2357  0.2128
10749W        W26218  12.837   0.596   2.780  0.0105 -0.1919  0.2604
10750W        W26219   3.494  17.096   1.929 -0.0546 -0.1581 -0.3154
10751W        W26220  19.025   3.798   0.084  0.1668 -0.0123 -0.0375
10752W        W26221  13.620  17.967   2.737  0.1456  0.3939  0.2072
10753W        W26222   3.367  18.020   5.138 -0.3212 -0.0887 -0.0026
10754W        W26223   2.777  17.754   4.470  0.2369 -0.1306 -0.0152
10755W        W26224   2.285  14.367   0.210  0.2472  0.0356  0.0342
10756W        W26225   2.684   1.168   0.124  0.0990  0.0322 -0.1393
10757W        W26226  11.902  14.062   1.277 -0.1133 -0.0326 -0.0112
10758W        W26227  13.923  13.227   1.759 -0.0724  0.2063 -0.1187
10759W        W26228  13.550  14.623   5.085  0.6603 -0.1766  0.4711
10760W        W26229   8.863   7.320   4.185 -0.1154 -0.0795  0.1456
10761W        W26230   6.173   2.196   2.852 -0.3389 -0.2423 -0.0588
10762W        W26231  11.673  16.935  13.786 -0.2078  0.1321  0.3038
10763W        W26232   7.872   6.496  10.977  0.3470  0.0727  0.0175
10764W        W26233  16.109  15.855   2.137 -0.3320 -0.2298 -0.0277
10765W        W26234   1.960  15.299   3.161 -0.4207 -0.1038 -0.3352
10766W        W26235  16.194  14.145   1.528 -0.2688  0.2589 -0.2752
10767W        W26236   4.820   4.361   3.251 -0.0886  0.2194  0.0182
10768W        W26237   4.899  10.490  10.326 -0.1266 -0.1627 -0.1408
10769W        W26238  14.312   3.652  14.229  0.1148 -0.1220  0.3637
10770W        W26239  18.002  10.443  12.394 -0.3234 -0.1128 -0.1610
10771W        W26240  11.056   8.067   0.758 -0.2725 -0.3770 -0.3176
10772W        W26241   0.026   7.574  10.240 -0.0328  0.1638  0.0227
10773W        W26242  15.548   6.044   2.728  0.0083  0.0413 -0.1584
10774W        W26243  16.944  15.330  10.786  0.1434 -0.0109 -0.0347
10775W        W26244  16.844   6.885   1.561 -0.2272  0.2962  0.2074
10776W        W26245  15.410  13.381  12.358 -0.0218 -0.1204  0.1873
10777W        W26246  11.193   3.122   0.829 -0.0577 -0.0414  0.0777
10778W        W26247  13.937  15.250  14.043 -0.3156  0.5163  0.3853
10779W        W26248   6.904  11.513   5.135  0.0859  0.2022  0.2901
10780W        W26249   0.118  17.303  12.403  0.0576 -0.1878  0.3087
10781W        W26250   4.248   5.463   9.800  0.0706  0.0132 -0.0051
10782W        W26251   2.297   3.615  15.041 -0.4615  0.1593 -0.1987
10783W        W26252   2.215  17.359  14.729 -0.1135 -0.0275 -0.2711
10784W        W26253   0.246   9.786   1.409  0.1559 -0.2094 -0.3968
10785W        W26254   4.227  17.109   2.636  0.1474  0.3034 -0.0163
10786W        W26255  14.639  11.944   2.204  0.3314 -0.0238  0.1251
10787W        W26256   7.868   7.503  11.918  0.2065  0.1549  0.1697
10788W        W26257  12.213   8.419   2.965  0.3022  0.1525  0.1601
10789W        W26258  17.833  11.021   2.691  0.1652  0.1032 -0.0521
10790W        W26259   4.109   6.590   5.078  0.3082 -0.0884 -0.0792
10791W        W26260   6.713  18.293   2.026 -0.2511  0.0948  0.2263
10792W        W26261  19.037  16.471  12.139  0.2538 -0.5238  0.0688
10793W        W26262  16.803  11.540  11.193  0.1915  0.0663 -0.4017
10794W        W26263   3.155  15.364  12.470  0.1039  0.0999  0.0751
10795W        W26264   4.586   2.341   0.912  0.1823 -0.0376  0.0356
10796W        W26265  13.769   0.962  14.909 -0.0383  0.2746  0.1660
10797W        W26266   2.823  12.834  14.647 -0.1796  0.2558 -0.2718
10798W        W26267  16.090   5.669   4.061 -0.1426  0.3684 -0.0527
10799W        W26268  13.765  15.023   5.449  0.0185 -0.0073 -0.3361
10800W        W26269  10.591   8.425   0.598  0.0672 -0.3279  0.3823
10801W        W26270  15.370   0.209   4.303 -0.0181 -0.1070  0.0678
10802W        W26271  15.011   9.458  11.447 -0.1894  0.2609  0.2417
10803W        W26272   0.824   3.345  13.282  0.0625 -0.0642  0.2131
10804W        W26273   3.944   0.615   3.492 -0.1152  0.3321  0.3137
10805W        W26274   7.043   2.900  13.749  0.1736 -0.2000  0.1472
10806W        W26275   2.407   8.116  11.243 -0.0660  0.3684  0.0993
10807W        W26276  18.718   2.903  11.836  0.0284 -0.2323 -0.1181
10808W        W26277   8.368  18.630  13.541 -0.0666 -0.0048  0.0546
10809W        W26278   9.147   7.673   9.665 -0.2127 -0.1763 -0.2357
10810W        W26279   7.026   0.199   0.267  0.0851  0.3783 -0.1391
10811W        W26280   2.410  16.014  13.539 -0.2191 -0.0735  0.1118
10812W        W26281   0.295   9.368   5.113  0.2643  0.1710 -0.1624
10813W        W26282   7.140  12.090  12.603  0.0298 -0.0285 -0.0366
10814W        W26283  18.644   6.468  12.823 -0.2744  0.2316 -0.5484
10815W        W26284   2.317   3.243  12.275  0.0343  0.2479  0.1760
10816W        W26285   9.591   8.957  12.844 -0.2748 -0.0708 -0.1399
10817W        W26286   7.055   3.566   4.917 -0.1228  0.4456  0.1123
10818W        W26287   0.672   2.930  14.510  0.4742 -0.1436  0.5335
10819W        W26288   7.024   5.726  14.210  0.0592 -0.0312  0.4309
10820W        W26289  16.099   8.909   1.707 -0.2847 -0.4324 -0.1394
10821W        W26290  15.224   7.285  11.380  0.0072  0.0502  0.1538
10822W        W26291   1.013  13.016  14.339  0.0780  0.1294  0.0937
10823W        W26292  16.951  16.642   2.891  0.2278  0.0002  0.1829
10824W        W26293  17.481  12.324  14.416 -0.0194  0.0754 -0.1073
10825W        W26294  15.308  16.497   1.703 -0.0544  0.1752  0.0099
10826W        W26295   2.962   7.881   3.617 -0.0554 -0.0734  0.1507
10827W        W26296  17.805   4.111  14.391  0.0824  0.0165  0.1147
10828W        W26297  10.141   9.089  15.108  0.0005  0.0933  0.0634
10829W        W26298  12.350   6.460  11.805  0.4414  0.0009  0.1280
10830W        W26299   4.475  14.910   3.341 -0.0063  0.1100 -0.2497
10831W        W26300   8.545  13.141  14.062 -0.1847  0.5049  0.1632
10832W        W26301  14.746   7.494   9.437  0.0547  0.2231  0.2000
10833W        W26302  18.514  10.252  13.949  0.0236 -0.0714 -0.1076
10834W        W26303  14.731  16.126  11.641 -0.1209  0.1304 -0.0181
10835W        W26304  12.869  18.563  10.584  0.1384  0.3218 -0.0383
10836W        W26305  12.880   9.942   2.176 -0.0126 -0.0359  0.1702
10837W        W26306  13.428   8.197  12.961 -0.0209 -0.2959 -0.3703
10838W        W26307   8.875   9.897   3.509  0.2364  0.1488 -0.2164
10839W        W26308   0.163   7.724  15.141 -0.0217  0.2329 -0.0122
10840W        W26309  14.137  17.390   2.842 -0.1734  0.0025 -0.0583
10841W        W26310   2.147  10.498  13.502 -0.2462  0.1814  0.1190
10842W        W26311   7.017   9.752  13.397  0.1136 -0.0615  0.0063
10843W        W26312  15.472   2.008  10.543 -0.1054  0.4307  0.2895
10844W        W26313  17.226  16.379   0.853 -0.0971  0.2677  0.3774
10845W        W26314  16.997  10.697  12.981 -0.0953 -0.1167  0.2827
10846W        W26315   8.806  16.615   5.507 -0.1417 -0.1234 -0.1018
10847W        W26316   2.392   4.121  10.406 -0.2822 -0.0857  0.0228
10848W        W26317   6.314  15.621   3.365  0.0042 -0.2888 -0.2196
10849W        W26318   5.509   9.744   3.146  0.0776  0.1039 -0.0614
10850W        W26319   8.651   9.806   0.888  0.0426 -0.0216 -0.0227
10851W        W26320   5.826   5.434   1.994 -0.0968  0.0411 -0.0639
10852W        W26321   7.555  10.522   3.556 -0.0445 -0.1397 -0.2562
10853W        W26322  12.401   3.280  11.028  0.0835  0.0327  0.2500
10854W        W26323   5.803   4.333   5.549 -0.1977  0.2685 -0.2179
10855W        W26324   1.157  13.814  11.397 -0.0161 -0.3473 -0.2744
10856W        W26325  16.694  10.646  13.347 -0.0566  0.2408 -0.2542
10857W        W26326   5.709  13.906   4.163 -0.0719 -0.0181  0.2187
10858W        W26327   1.588   9.873  13.117 -0.1096  0.0926  0.2657
10859W        W26328   4.063  16.091  11.853  0.1126 -0.0844  0.1076
10860W        W26329   9.365  11.211  14.667 -0.1558  0.3410 -0.0355
10861W        W26330  14.306  15.366  13.073  0.1626  0.2480 -0.2706
10862W        W26331  13.659   4.484  14.989  0.1274 -0.1706  0.0878
10863W        W26332  11.179  14.863   4.022 -0.0800  0.0942  0.0756
10864W        W26333   1.675   8.843  15.241 -0.1943  0.1019  0.1365
10865W        W26334  13.991  10.111   4.882 -0.0542 -0.4754  0.2123
10866W        W26335   7.915   3.896   1.704 -0.2246 -0.1388 -0.0898
10867W        W26336  13.007  13.789  13.281 -0.0626 -0.1151  0.2072
10868W        W26337   6.591  15.450   1.625 -0.0874 -0.0507 -0.1241
10869W        W26338   1.749   1.338   2.363  0.1485  0.2143 -0.0456
10870W        W26339   8.507   8.935  12.558 -0.1319  0.1559 -0.3319
10871W        W26340  18.156   7.851   4.154 -0.1234  0.0133 -0.0709
10872W        W26341   1.753   3.719  11.557  0.0765  0.1835 -0.3359
10873W        W26342   7.684  11.440  14.839 -0.0097  0.2574 -0.0917
10874W        W26343   2.846   2.439   1.031  0.1242  0.0247  0.0014
10875W        W26344   2.666   7.794  10.847 -0.3384 -0.0889  0.0749
10876W        W26345   0.120  18.470  12.988  0.0745  0.3241  0.0247
10877W        W26346   3.357   7.656  14.627  0.0152 -0.4448  0.3138
10878W        W26347   9.883   9.271  11.748 -0.4454 -0.0764 -0.0748
10879W        W26348  16.218  17.015   4.270  0.3020 -0.2860  0.3041
10880W        W26349  13.675  16.996  13.061  0.0556  0.1590 -0.1779
10881W        W26350  13.426  18.673  14.824 -0.0954  0.0127  0.0195
10882W        W26351  11.568  15.012  10.316  0.4786 -0.2087  0.3124
10883W        W26352   6.640   6.174  14.757 -0.0613 -0.0750 -0.2014
10884W        W26353  18.063  11.980   4.186 -0.0548 -0.5102 -0.3426
10885W        W26354   2.691   2.336   0.580 -0.0557 -0.3339  0.4749
10886W        W26355   2.429   8.452   0.478 -0.0106  0.0070  0.0958
10887W        W26356  12.089   8.625  12.911 -0.0551  0.1284 -0.1127
10888W        W26357  17.590  12.167   0.495 -0.3025  0.4030  0.2044
10889W        W26358  13.507   3.307   1.059  0.1665  0.1529 -0.2612
10890W        W26359  15.750   5.110   2.752  0.4334  0.0579 -0.0278
10891W        W26360   7.924   5.347   2.546  0.0106  0.2510 -0.1695
10892W        W26361  13.346  11.228  13.080  0.0934 -0.2878  0.0431
10893W        W26362   5.366  13.779  11.002  0.0052  0.0173  0.1758
10894W        W26363   0.724  13.487   0.057 -0.1490  0.3674  0.0021
10895W        W26364  15.371  11.843  11.388  0.2209 -0.3026  0.1382
10896W        W26365  17.062   2.621  15.106  0.1105 -0.2106 -0.0533
10897W        W26366  15.491   2.863   3.445 -0.3306  0.0077  0.0343
10898W        W26367   7.603   6.589   9.771 -0.1630  0.0552  0.0812
10899W        W26368   6.095  15.668  15.043  0.1084 -0.0900  0.1365
10900W        W26369   1.231   8.272  14.236 -0.0510  0.3354 -0.0317
10901W        W26370   1.043   2.545   3.628  0.2654  0.2694  0.3872
10902W        W26371   4.987  14.969  11.587 -0.1482 -0.0477 -0.2329
10903W        W26372   9.608   9.828   0.072  0.3521  0.3047 -0.0556
10904W        W26373  10.589   3.393  10.637  0.0825 -0.2496 -0.0594
10905W        W26374   1.285   9.996  14.920 -0.1993  0.0715  0.3536
10906W        W26375  14.906   6.110   0.660 -0.1961  0.0259  0.2318
10907W        W26376   7.307   1.867  11.415 -0.1593  0.0795  0.2672
10908W        W26377  11.769  12.890  14.926 -0.1438  0.2943  0.0336
10909W        W26378  15.708   0.359  13.961 -0.0609  0.1861  0.0804
10910W        W26379   1.096   3.952  15.246  0.1041 -0.0147 -0.0902
10911W        W26380  16.886   3.551   4.469 -0.1075 -0.3124 -0.1529
10912W        W26381   5.390  12.751   9.700 -0.0017 -0.3957 -0.2924
10913W        W26382   7.661  17.006  11.858  0.1021 -0.1174 -0.4607
10914W        W26383   5.771  14.293   0.330  0.1159 -0.0045  0.5410
10915W        W26384   3.419   4.171   3.326  0.1185 -0.1500 -0.1912
10916W        W26385   8.566  16.894   1.296  0.0589 -0.1014 -0.1312
10917W        W26386  11.644  15.968  11.231  0.2499  0.0413 -0.0347
10918W        W26387  14.041  11.220   3.362 -0.0916 -0.0170  0.1124
10919W        W26388   0.779   6.340  12.144  0.0966 -0.1490 -0.1753
10920W        W26389   6.109  16.242   4.173 -0.0669  0.0220  0.1249
10921W        W26390   6.744  15.851   1.357 -0.0846 -0.0111  0.1753
10922W        W26391   2.766  11.761   3.164 -0.2161 -0.0331 -0.1400
10923W        W26392   5.006  10.413  10.790  0.2460  0.5792  0.0833
10924W        W26393  18.618  12.476   9.463 -0.0789  0.2718  0.0958
10925W        W26394  12.265  10.394  10.616  0.1910 -0.0014 -0.1009
10926W        W26395  17.904   3.015  12.375  0.1632  0.2061 -0.3640
10927W        W26396   4.185  13.295   2.178  0.2224  0.0956 -0.0089
10928W        W26397  15.345  10.645  10.439 -0.2493  0.4350 -0.0026
10929W        W26398   4.943  12.508  12.308 -0.0017  0.1998 -0.0126
10930W        W26399  16.924   3.138   3.563  0.1968 -0.2660  0.0152
10931W        W26400  12.201   9.562   3.976 -0.2825 -0.0924 -0.2571
10932W        W26401  12.553  13.325  11.383 -0.1295 -0.1739  0.0210
10933W        W26402  13.851  11.301  15.335  0.0320  0.2464  0.1387
10934W        W26403   9.284  10.190   1.477  0.1326  0.0872 -0.2141
10935W        W26404  11.783  14.277   4.101  0.1372  0.0480 -0.0574
10936W        W26405  14.686  12.591   4.289  0.0006  0.0374 -0.2653
10937W        W26406   1.783  12.549  11.272  0.0675  0.2593 -0.0751
10938W        W26407   6.010   6.011  12.366  0.1589 -0.1725  0.2189
10939W        W26408   9.861   4.720  11.030  0.1796 -0.1468  0.1668
10940W        W26409  17.547  16.959   3.324 -0.4243 -0.3174  0.0324
10941W        W26410  14.236  15.657   0.191  0.2474  0.0203 -0.0945
10942W        W26411  11.493   8.061   0.577 -0.0126 -0.0569  0.1104
10943W        W26412   8.734  10.030  13.958 -0.1527 -0.0110  0.1150
10944W        W26413   5.559   7.614   1.549  0.0963 -0.3545  0.3059
10945W        W26414  13.103  13.207   3.378  0.0140  0.1277 -0.1487
10946W        W26415  18.903   3.813  12.536  0.3383  0.0375  0.2659
10947W        W26416  18.390   7.121  11.401  0.2683  0.1406 -0.0505
10948W        W26417   6.938  18.854   4.352  0.1624 -0.1895 -0.3067
10949W        W26418   5.052   1.273  12.930  0.0329  0.0785 -0.1194
10950W        W26419   1.677   7.358  12.877  0.2303  0.1824  0.1750
10951W        W26420  12.425  17.972   3.873  0.3967 -0.0885  0.1179
10952W        W26421   4.950   2.867  13.117 -0.4434  0.1741 -0.2537
10953W        W26422  15.507  15.252   3.208  0.0234  0.0344  0.0299
10954W        W26423  11.374  14.883  12.751 -0.1895  0.2133  0.0774
10955W        W26424   4.463  11.175  14.415 -0.0163 -0.0849 -0.0820
10956W        W26425  16.772  18.079   0.238  0.0215 -0.0443  0.2604
10957W        W26426   7.635   3.819   9.902 -0.5349 -0.0292  0.0079
10958W        W26427   5.760   7.379   2.001 -0.1478  0.2377 -0.1522
10959W        W26428   2.523   9.947   3.127  0.1277  0.2989  0.1273
10960W        W26429   5.095   4.418  11.074  0.3555  0.2129 -0.1927
10961W        W26430  18.113   1.344   3.005  0.0125 -0.0427  0.3292
10962W        W26431   9.227  10.876  11.138 -0.4680  0.5213  0.1850
10963W        W26432   8.049   3.656   5.169  0.2109  0.1454  0.1943
10964W        W26433  11.838  13.904   9.772 -0.0187 -0.1010  0.1757
10965W        W26434   0.742  17.938   2.493 -0.2108  0.2063 -0.0493
10966W        W26435  13.057  13.500   1.606 -0.2105 -0.3066 -0.0029
10967W        W26436  16.143  12.518   1.306 -0.1654  0.0493 -0.2721
10968W        W26437  11.503  17.034  10.968 -0.0631  0.2007  0.4076
10969W        W26438   4.831  13.605   3.134  0.2495 -0.2714 -0.0524
10970W        W26439   3.023   7.638   5.453  0.0092  0.0983 -0.1693
10971W        W26440   8.921  15.398   4.672  0.0099  0.1643  0.1470
10972W        W26441   1.586   8.640   5.336 -0.2669 -0.5314 -0.1478
10973W        W26442  16.073   3.534  13.250 -0.2002 -0.0698  0.0686
10974W        W26443  11.100   1.132   5.201  0.0799  0.3521 -0.1653
10975W        W26444  18.136   7.717   0.596 -0.1944  0.3049 -0.0119
10976W        W26445   8.321  12.085  14.729 -0.2731  0.1399  0.2069
10977W        W26446  18.047  15.759   3.867 -0.0030 -0.0177  0.1533
10978W        W26447   3.802   7.264   2.564 -0.2039  0.2007  0.1149
10979W        W26448   0.462   0.213   2.495 -0.0357  0.0646  0.1618
10980W        W26449  13.164   7.274   0.866 -0.1767  0.0785 -0.1980
10981W        W26450  12.099   6.784  10.756  0.0359  0.0806  0.1458
10982W        W26451  16.794  14.464  11.105 -0.1802 -0.0410 -0.0141
10983W        W26452  13.673   2.323   2.117  0.2313 -0.1219  0.0910
10984W        W26453  13.867   5.331   4.441  0.0453 -0.1197 -0.1763
10985W        W26454   0.091   1.665  13.291  0.3139 -0.0829 -0.0261
10986W        W26455  15.537   8.654  11.230  0.1228 -0.1536 -0.1818
10987W        W26456   8.948  15.921  14.205  0.4013  0.1337 -0.0721
10988W        W26457  14.913  12.961   2.633 -0.0888  0.1911 -0.1922
10989W        W26458   8.173  13.877  11.553  0.2028 -0.1209 -0.0023
10990W        W26459   3.712  18.697  15.100 -0.2271 -0.2723 -0.2061
10991W        W26460   2.564  12.518   0.988  0.6185  0.0669  0.4118
10992W        W26461   1.163  11.280   0.520 -0.0124  0.2417 -0.0632
10993W        W26462   8.422   9.471  12.230  0.1533  0.0605  0.1944
10994W        W26463  12.974   6.485   2.492  0.2422 -0.1081 -0.2753
10995W        W26464   5.103   4.605  14.637  0.0536  0.1000 -0.1434
10996W        W26465   3.334  11.499   0.000 -0.4803  0.2712  0.0860
10997W        W26466   1.353   1.501  11.549  0.0161  0.0258 -0.0464
10998W        W26467   4.944  13.829   2.394 -0.0677  0.1046  0.1234
10999W        W26468   5.649   4.376   1.281 -0.1415 -0.2451 -0.0255
11000W        W26469  14.978   2.435   2.783  0.3179 -0.0729  0.0082
11001W        W26470   3.017   6.789  11.470 -0.0367  0.1509 -0.2004
11002W        W26471   5.651  16.687   3.938 -0.0050 -0.3062 -0.0152
11003W        W26472  16.496   9.532   2.699  0.0303  0.2336  0.1059
11004W        W26473  17.002   6.247  13.892  0.2443 -0.1644  0.2455
11005W        W26474  15.444   6.653  14.626  0.1727 -0.2940 -0.1931
11006W        W26475   9.428   7.430  12.938 -0.3412  0.0703  0.0799
11007W        W26476   3.029  10.530  15.160 -0.2965 -0.1157  0.0039
11008W        W26477  11.855  13.422   0.620  0.0010 -0.0784  0.1720
11009W        W26478   4.919   1.082  13.699  0.2256  0.1384 -0.1246
11010W        W26479   9.317  15.166  13.430  0.1862 -0.1191  0.0541
11011W        W26480  17.960   7.625   4.546  0.1142 -0.0748  0.2158
11012W        W26481  13.604   6.677   0.700 -0.1024  0.0698  0.0622
11013W        W26482  17.103  16.764   3.341  0.0555  0.0266  0.2644
11014W        W26483   7.346  12.402   0.835 -0.0210 -0.0795 -0.1765
11015W        W26484   1.364   8.465   3.925 -0.0238  0.4848 -0.0290
11016W        W26485  17.506  14.798  12.873 -0.2987 -0.0879  0.0431
11017W        W26486   9.506   7.758  11.625 -0.0623 -0.2189 -0.3187
11018W        W26487  16.751  11.351  11.759 -0.3246 -0.1454 -0.0716
11019W        W26488  10.835   7.508  12.687  0.1827  0.2507 -0.4295
11020W        W26489   0.549  14.307   1.905 -0.0143  0.1984  0.1627
11021W        W26490  14.977  11.268   0.621 -0.3563  0.1179  0.0255
11022W        W26491   9.812   9.570   4.363 -0.1363 -0.0824  0.0012
11023W        W26492   5.466  16.259   2.184 -0.3624 -0.1393 -0.0382
11024W        W26493   1.671   1.451  12.453  0.6125  0.1529  0.0646
11025W        W26494   7.841  15.970   5.047  0.2152 -0.0453  0.1629
11026W        W26495   8.508   8.118  12.358 -0.2757 -0.2532  0.2614
11027W        W26496  12.869  16.237   2.088  0.2162  0.2486 -0.2056
11028W        W26497   2.554  16.717  14.179  0.0955 -0.1203 -0.0063
11029W        W26498   8.339  10.811   2.621 -0.0728 -0.0685  0.1784
11030W        W26499   7.091  18.660   0.007  0.0251  0.1797 -0.2970
11031W        W26500   4.308   8.542  14.801  0.2136 -0.0747  0.1133
11032W        W26501   4.657   0.266  13.160  0.2250  0.0140 -0.0821
11033W        W26502   5.945   5.566  12.053 -0.3608  0.0289 -0.2150
11034W        W26503   6.419  16.714  12.354 -0.4119  0.2589  0.1809
11035W        W26504  15.355   5.320  13.882 -0.0067 -0.0485  0.4443
11036W        W26505   8.834   9.463  10.730  0.0449  0.4618 -0.1131
11037W        W26506  10.403   6.116  13.716  0.2517  0.0086 -0.1789
11038W        W26507  11.742   0.735  12.157 -0.2750  0.2563  0.2635
11039W        W26508   0.011  11.455  11.578 -0.0345 -0.2196  0.1892
11040W        W26509  15.424  12.522  13.709  0.0403  0.1024  0.0906
11041W        W26510   6.611   4.831   1.376 -0.3115  0.0804  0.1916
11042W        W26511  11.996   5.060  14.630 -0.3864  0.2299 -0.0765
11043W        W26512  15.177  16.174  11.317  0.1500  0.0313  0.0510
11044W        W26513   1.852   7.645   3.806  0.1228 -0.2538 -0.1336
11045W        W26514  14.581   9.504  13.049  0.0732  0.0266  0.0050
11046W        W26515  16.678   9.591  12.356  0.2268 -0.1180  0.2120
11047W        W26516   5.143  14.923   4.398 -0.2974 -0.0449 -0.0864
11048W        W26517  14.267  15.177  11.787  0.2734  0.4309  0.0104
11049W        W26518   7.887  14.011   3.195 -0.0529 -0.1667  0.0331
11050W        W26519  17.715   4.088   3.293 -0.2398  0.0777  0.1178
11051W        W26520   8.407  14.688   1.006 -0.0207 -0.0872  0.3393
11052W        W26521  10.080   6.901  13.430  0.0152 -0.2635  0.0037
11053W        W26522   9.386  15.270   0.535  0.0193 -0.2119 -0.2587
11054W        W26523   1.884  15.622   1.332  0.0233  0.1909 -0.1587
11055W        W26524  11.130  14.813   5.003 -0.0661  0.1468  0.3650
11056W        W26525  14.872  11.229  12.635 -0.0427  0.1296  0.2111
11057W        W26526  11.839  15.123  13.329 -0.1164  0.0210 -0.1126
11058W        W26527   6.045   2.343  12.886 -0.1196 -0.1782  0.1123
11059W        W26528   5.769  10.948   3.819  0.1274  0.1543 -0.0969
11060W        W26529   8.314  10.903  13.752  0.2993 -0.1701  0.1813
11061W        W26530   9.361   9.278  11.755 -0.0428  0.0599  0.4655
11062W        W26531   4.799   1.594  12.610  0.0640  0.4583  0.0099
11063W        W26532   4.709  16.855  10.659 -0.2070 -0.4522 -0.0989
11064W        W26533   4.577  18.814  12.842  0.3235  0.3751 -0.0170
11065W        W26534  11.416  11.739   0.145 -0.2222  0.1643  0.3004
11066W        W26535  13.644   2.385   4.311 -0.1735 -0.1322 -0.1992
11067W        W26536  14.189   8.218  14.900  0.1859 -0.1551  0.1260
11068W        W26537  12.995   8.558   0.652 -0.2388  0.6204  0.2944
11069W        W26538  13.153  10.186  10.490 -0.0036  0.0231 -0.0610
11070W        W26539   1.012  11.248   2.369  0.0807 -0.1048 -0.0659
11071W        W26540  13.582  14.570  11.184  0.1225  0.0208  0.1338
11072W        W26541  12.963  10.342   4.013  0.0264  0.0267 -0.1767
11073W        W26542  10.761  16.348   3.873  0.2469  0.0688 -0.3376
11074W        W26543   1.154   0.807  12.897  0.2444  0.1500  0.0738
11075W        W26544  11.246   0.103  13.819 -0.1354  0.1447  0.0004
11076W        W26545  18.508  10.345   4.150 -0.1740  0.0817  0.2364
11077W        W26546  14.695  11.209  11.638  0.0963  0.0320  0.0309
11078W        W26547  13.466   5.346   5.172 -0.0274 -0.1747  0.1205
11079W        W26548   7.986  13.116  13.809 -0.0686 -0.3312 -0.1639
11080W        W26549   4.716   0.628   0.727  0.0043 -0.0025  0.1492
11081W        W26550   8.389   6.529   5.193 -0.0650 -0.3570 -0.1952
11082W        W26551  15.896  14.998  13.688 -0.0089 -0.1304 -0.2935
11083W        W26552  12.841   6.933   2.345  0.1784 -0.1359  0.1307
11084W        W26553   1.721   5.290   4.563 -0.0357  0.2646 -0.0362
11085W        W26554   7.958   4.962   0.827 -0.3943 -0.3523  0.1441
11086W        W26555   3.540   7.701  15.167  0.0113 -0.4030  0.2750
11087W        W26556  13.614   0.043   3.008  0.0929  0.0887  0.1540
11088W        W26557  16.364  11.700  11.516  0.0675 -0.0477 -0.2520
11089W        W26558   6.549   9.054   3.669  0.0795 -0.0157 -0.2671
11090W        W26559   6.026   4.902  13.073 -0.2513 -0.3005 -0.0208
11091W        W26560  14.645  11.584   0.433 -0.0202  0.0171  0.0003
11092W        W26561   4.583   3.941   5.634 -0.3642  0.0800 -0.0272
11093W        W26562  14.696   7.073  15.196 -0.1914  0.1099 -0.1452
11094W        W26563   3.488   0.750   5.346  0.0720  0.1798 -0.1898
11095W        W26564   0.987  11.421   9.882  0.3551  0.3551 -0.1326
11096W        W26565   1.859   0.981   3.985 -0.1921  0.1330 -0.0669
11097W        W26566  15.267   6.843  13.388  0.0164  0.1703  0.0907
11098W        W26567   5.401  14.076   1.611 -0.0566  0.1136 -0.0287
11099W        W26568  15.337  18.806  14.999  0.3317 -0.2281 -0.2195
11100W        W26569  15.583  19.029  11.628  0.0702 -0.1732 -0.2496
11101W        W26570   1.571  17.987  11.789  0.3045 -0.2637 -0.0323
11102W        W26571  14.099   1.353   5.116  0.0588 -0.0431 -0.3491
11103W        W26572   5.158   9.985  12.337 -0.0703 -0.3497 -0.0591
11104W        W26573   5.811  11.842  12.284 -0.1688  0.2258  0.1215
11105W        W26574  12.771   0.169   4.041  0.3151 -0.0467  0.0373
11106W        W26575  12.319   0.018  11.843 -0.3053  0.1699  0.3122
11107W        W26576   1.237  11.444  11.596  0.0701 -0.0609  0.1740
11108W        W26577   1.759   5.011  12.050  0.0288  0.0690 -0.0331
11109W        W26578  15.937   7.690  13.927 -0.2144  0.1111  0.2787
11110W        W26579   5.492   6.792  14.352 -0.0313  0.1874  0.0812
11111W        W26580  12.298  17.031  14.952 -0.0709  0.1710  0.0783
11112W        W26581   8.528   6.118  13.407  0.1110 -0.1776  0.0092
11113W        W26582   4.410   3.051  14.359 -0.0385 -0.0414 -0.1529
11114W        W26583  17.435  15.125  12.329 -0.0062  0.0407  0.1178
11115W        W26584  11.232  16.356  14.998 -0.3984  0.2014  0.0952
11116W        W26585   6.452   0.225   1.711 -0.2902  0.0515 -0.2377
11117W        W26586  10.184  13.207  14.896  0.2162  0.1495 -0.0797
11118W        W26587   3.570  10.199   4.980 -0.2759 -0.0492 -0.1124
11119W        W26588   5.218   0.202   2.028 -0.2378 -0.1554  0.0135
11120W        W26589  14.712   7.108   2.467  0.2005  0.0301 -0.0121
11121W        W26590  10.387   4.842  13.213 -0.4334 -0.2160  0.4497
11122W        W26591  17.041   7.220   4.322  0.0495 -0.2394  0.2273
11123W        W26592   8.621   2.326   5.567  0.0583 -0.2210  0.0856
11124W        W26593  18.504   9.290  11.544  0.2981  0.0071 -0.0783
11125W        W26594  11.161  13.307   4.643 -0.0028  0.0840 -0.2937
11126W        W26595  18.812  14.893   0.258  0.1926 -0.1096 -0.0073
11127W        W26596   9.933  10.188   0.817  0.2533  0.1652  0.0448
11128W        W26597   5.836   2.260   1.568  0.3789 -0.0509 -0.1012
11129W        W26598  15.715   9.782   4.036  0.1166  0.0639  0.0075
11130W        W26599  13.562   5.477   3.529  0.0323 -0.0827 -0.0243
11131W        W26600   4.938   9.416   0.183  0.0413  0.1173  0.2651
11132W        W26601   1.578   9.377   3.733  0.0477  0.0835 -0.0666
11133W        W26602  16.945   7.741  11.004  0.1288  0.0929  0.2850
11134W        W26603  14.551  10.710   4.496  0.1525  0.1086 -0.0167
11135W        W26604   7.200   8.259   0.070  0.3963 -0.1223 -0.0102
11136W        W26605  13.449   4.820  13.619 -0.1580  0.0651 -0.1397
11137W        W26606   0.244   8.067   1.128 -0.2339 -0.2032 -0.3555
11138W        W26607  15.221   2.025   5.193  0.4593  0.0965  0.4794
11139W        W26608   9.631   2.436  11.292 -0.0605  0.0701  0.2022
11140W        W26609   4.443  16.984   1.544  0.1805  0.4889  0.0261
11141W        W26610   0.084  13.719   2.583  0.0067 -0.1743 -0.0044
11142W        W26611  15.086  17.132   9.885  0.0351  0.3007 -0.1136
11143W        W26612  10.457   4.418  12.492 -0.3831 -0.1754 -0.0342
11144W        W26613   7.582  15.174   4.421 -0.0156 -0.3530  0.0490
11145W        W26614   1.651  14.363  12.023  0.2139  0.0826 -0.0609
11146W        W26615   0.560   3.471  15.188 -0.1984 -0.2428  0.0141
11147W        W26616   1.437   2.619  14.929 -0.0343 -0.3479 -0.0157
11148W        W26617   6.184  11.458  11.873  0.0660 -0.3083  0.1017
11149W        W26618  11.817  17.511  12.235  0.2734 -0.2899  0.1832
11150W        W26619  16.144  12.813   5.047 -0.3879 -0.0782  0.0837
11151W        W26620   4.465   8.612  13.294 -0.0528  0.0407  0.1532
11152W        W26621   5.264  10.917  14.612 -0.1053 -0.1696  0.3475
11153W        W26622   7.319  15.684   4.570  0.0103  0.2422 -0.2460
11154W        W26623  16.358  17.678  13.662 -0.3996  0.3591 -0.0642
11155W        W26624   5.819  16.197   2.562 -0.1275 -0.0523 -0.2000
11156W        W26625   2.779  11.429   1.735 -0.2587  0.2269 -0.3186
11157W        W26626   6.851   8.216   3.555 -0.0641  0.0071  0.1968
11158W        W26627   5.919   6.780  12.835 -0.1178 -0.0567 -0.2016
11159W        W26628   5.454   3.473  14.264  0.5056 -0.1391 -0.3166
11160W        W26629   8.863   9.963   1.756 -0.0492  0.5209 -0.0522
11161W        W26630  14.825   4.208  14.915  0.0052  0.1579  0.1493
11162W        W26631  10.499  11.983  11.602  0.2651 -0.0241 -0.3667
11163W        W26632  15.046  14.615   3.776  0.0711 -0.3051 -0.0609
11164W        W26633   4.426  13.499   1.355 -0.0602  0.2183 -0.0396
11165W        W26634   3.343  17.832   0.050  0.2033 -0.0572 -0.0541
11166W        W26635  15.310  15.237  14.926 -0.0292 -0.2290 -0.2210
11167W        W26636  16.879  14.884  14.734 -0.3245  0.0925 -0.0811
11168W        W26637   7.178  18.031   1.916  0.0288 -0.2204  0.1736
11169W        W26638  16.093   1.244  14.753  0.2726  0.1140  0.2237
11170W        W26639   1.527   4.597  11.963  0.0170  0.0539  0.4393
11171W        W26640   0.628  10.781  14.821  0.2790 -0.3019 -0.0572
11172W        W26641   6.028  15.409   2.971  0.0689  0.0165 -0.1083
11173W        W26642   9.139   8.771   4.180  0.0376 -0.2617 -0.1806
11174W        W26643   7.767   1.837  11.183  0.0266 -0.2850 -0.2907
11175W        W26644   2.689  16.046   3.596 -0.0784  0.3118  0.1096
11176W        W26645   4.039   0.696   2.240  0.3610 -0.2260  0.0958
11177W        W26646   5.874  16.918   1.585  0.1248 -0.1079  0.2005
11178W        W26647   0.525   4.765  12.661 -0.2964  0.1209  0.3067
11179W        W26648   3.397   2.985   1.012  0.1383  0.0107 -0.3025
11180W        W26649   2.028   5.266   0.435 -0.0784  0.1972  0.1440
11181W        W26650  12.779  10.490  11.030 -0.0637 -0.0662  0.4437
11182W        W26651  11.480   7.751   3.084  0.1482  0.2756  0.0169
11183W        W26652   4.640   9.956  13.303  0.0131 -0.1225 -0.0065
11184W        W26653  11.393   8.145   1.643  0.0810 -0.0492  0.2586
11185W        W26654  15.545  14.727   1.918  0.2216 -0.3229  0.2707
11186W        W26655   3.152  16.678   1.897 -0.1715 -0.0017 -0.1397
11187W        W26656   7.037  14.474  12.952  0.1853 -0.0996 -0.4859
11188W        W26657   3.516  13.391   4.627 -0.0042 -0.3436 -0.1627
11189W        W26658   2.414  17.380   3.653  0.1299 -0.3405  0.4429
11190W        W26659  14.673   5.831   9.446 -0.0372  0.3403 -0.1030
11191W        W26660   5.518   6.182  14.049  0.0381  0.1008 -0.0820
11192W        W26661  14.905  18.784  12.365 -0.1387 -0.0263  0.0207
11193W        W26662  16.503  17.258  10.723 -0.4486 -0.3415  0.1769
11194W        W26663   8.730   7.681   3.265  0.0471  0.1002  0.2111
11195W        W26664   5.018   1.536  10.534  0.0458  0.0560  0.2514
11196W        W26665   8.800   3.865  14.905  0.0431 -0.1374 -0.3923
11197W        W26666  14.402   3.201  12.260  0.0919 -0.1065 -0.0737
11198W        W26667   5.840  15.951  13.859  0.1894 -0.2591 -0.0126
11199W        W26668  11.411  17.798   2.895 -0.2667 -0.0733 -0.1677
11200W        W26669   6.742  11.113   4.688 -0.2715 -0.0326  0.0478
11201W        W26670  15.456  15.740   9.746 -0.3123 -0.0534  0.2287
11202W        W26671   2.364   2.948   4.150 -0.1159 -0.1667  0.4532
11203W        W26672   6.274  13.332  12.398  0.1543  0.2183  0.0273
11204W        W26673  17.383  12.795   1.722  0.1080  0.2814 -0.0148
11205W        W26674   3.957  17.807   4.497 -0.1891  0.2303 -0.0427
11206W        W26675  14.263   9.096   0.413  0.1141 -0.4659 -0.1261
11207W        W26676  17.865   6.696   1.328 -0.1279  0.4763  0.0157
11208W        W26677   0.520   9.612   2.407  0.0795  0.3071 -0.2501
11209W        W26678   6.804  13.808   5.527 -0.1390  0.1977 -0.1776
11210W        W26679  15.186  18.474   1.305  0.1155 -0.1981  0.0087
11211W        W26680   3.349  18.211   2.474  0.1968  0.1361 -0.0113
11212W        W26681  16.010  16.599   2.724 -0.0755 -0.1136 -0.0285
11213W        W26682   3.113   7.831  10.649  0.1273  0.0504  0.1616
11214W        W26683  17.721   2.551  12.088  0.2006 -0.1233 -0.0394
11215W        W26684   3.533   5.301  13.060  0.1686  0.5222  0.3955
11216W        W26685  13.128  13.339   3.835 -0.0060  0.0130 -0.1200
11217W        W26686   5.448  13.806  13.148  0.1813 -0.0866 -0.1758
11218W        W26687   4.617  16.415   4.802  0.2463 -0.1793  0.0333
11219W        W26688  14.653   9.093   1.259 -0.1887  0.0432 -0.1689
11220W        W26689  11.437   3.059  11.116  0.1890  0.1738 -0.0879
11221W        W26690   9.469  13.141   2.803  0.1673 -0.1094 -0.1423
11222W        W26691  12.774  16.623   3.601  0.3369  0.1296  0.0883
11223W        W26692  18.898  16.803  10.109 -0.1498  0.1922 -0.1264
11224W        W26693  10.235   7.387   2.620 -0.1236  0.2322  0.2218
11225W        W26694   9.651   9.619  10.183 -0.2206  0.1577  0.1055
11226W        W26695  16.361  16.408  12.778  0.1834 -0.0637  0.1683
11227W        W26696   6.481   6.767   4.199  0.1205  0.1380  0.0517
11228W        W26697   9.499  16.076  13.440  0.3539  0.1869  0.1014
11229W        W26698  14.912   3.564  12.605  0.2384 -0.2201 -0.0695
11230W        W26699   9.982  13.569   5.445 -0.1163 -0.3819  0.0188
11231W        W26700   7.351  17.862  15.179  0.0645 -0.1434  0.1019
11232W        W26701   0.170  18.136   2.493 -0.2151 -0.0399  0.1925
11233W        W26702   3.706  11.267  10.343  0.0300 -0.0951 -0.0504
11234W        W26703   7.183  15.253   5.689  0.2321  0.0811 -0.1208
11235W        W26704  15.673  10.751  13.379  0.1193  0.2526  0.3533
11236W        W26705  15.305   1.493  12.551  0.1330 -0.0732  0.0119
11237W        W26706   3.060  10.278   4.510  0.1198  0.0633 -0.0030
11238W        W26707   2.465   5.712  13.659 -0.4943  0.0425  0.1258
11239W        W26708  15.127  18.062  10.662 -0.1156 -0.0783 -0.0997
11240W        W26709   3.014   4.741   5.077  0.2089  0.2426 -0.0321
11241W        W26710  12.900   6.905  13.931 -0.0773  0.0672 -0.1691
11242W        W26711   1.468  11.498   2.158  0.1840  0.1965  0.6112
11243W        W26712   8.331  16.084   5.072  0.2343 -0.0554  0.4348
11244W        W26713  16.230  15.535  14.528  0.1512  0.0325 -0.0020
11245W        W26714  12.897   9.106  13.957 -0.0601  0.0300  0.2977
11246W        W26715   7.208  10.422   0.725  0.2465  0.3059  0.3609
11247W        W26716   8.611  11.733   0.955  0.0475  0.0363 -0.0011
11248W        W26717   6.563   0.215  15.129 -0.3297  0.0610 -0.2735
11249W        W26718  13.261   3.630   4.962 -0.0985 -0.0958  0.0913
11250W        W26719  18.910   0.976  13.395 -0.2737  0.1728 -0.2731
11251W        W26720  14.505   0.255   2.252 -0.1411 -0.1298 -0.0261
11252W        W26721  11.741  11.646  14.666  0.2217 -0.1692  0.0460
11253W        W26722   0.635  14.826  12.683 -0.3372  0.1110  0.2672
11254W        W26723  14.695   6.927   3.337  0.0095  0.1554  0.0801
11255W        W26724  10.022  10.705  10.773 -0.0089  0.3734  0.0874
11256W        W26725   4.998   9.641   9.874  0.0319  0.0727 -0.0079
11257W        W26726  11.171   2.178   3.926 -0.2014  0.0511 -0.0719
11258W        W26727  13.801   7.150   4.943  0.1042 -0.1395 -0.3368
11259W        W26728  10.731   2.203   3.678 -0.0344  0.0781 -0.2526
11260W        W26729  16.473   7.094   2.830 -0.0786  0.0034 -0.1070
11261W        W26730   1.171  12.665   2.169 -0.3116  0.0307 -0.1465
11262W        W26731   8.482  13.446   3.498  0.3096  0.0248 -0.0288
11263W        W26732   1.122  10.681   5.714  0.3602  0.1604  0.0852
11264W        W26733  18.354   8.341  14.979 -0.3168  0.0802 -0.4227
11265W        W26734   9.365   6.832  13.271  0.0248 -0.2107  0.2338
11266W        W26735   0.014  18.447  13.884  0.0200  0.0888  0.1140
11267W        W26736   8.616   9.588   1.405 -0.1822 -0.2251 -0.2949
11268W        W26737   4.784   1.418   1.970 -0.2467 -0.0627 -0.1821
11269W        W26738  10.584  10.595   4.815 -0.1464  0.1334 -0.0240
11270W        W26739   1.271   9.553   1.025 -0.1898 -0.1278 -0.0984
11271W        W26740  12.334  16.145  10.960  0.0109 -0.2340  0.2227
11272W        W26741  11.485  10.521   2.937  0.0470 -0.1598 -0.2166
11273W        W26742   8.181   3.534   1.818 -0.1862  0.1219 -0.1292
11274W        W26743  11.840   5.307   1.151 -0.1526 -0.2241  0.2465
11275W        W26744  15.266  10.837   1.869 -0.1918 -0.1848 -0.0294
11276W        W26745  18.161   9.776   5.170 -0.1149  0.1332  0.0337
11277W        W26746   0.284   0.396  14.184 -0.0016 -0.0882  0.0013
11278W        W26747  13.431   4.149   0.469  0.2453 -0.1206  0.4765
11279W        W26748  11.231   6.148  12.886 -0.0141  0.0810  0.4180
11280W        W26749   6.291   1.334   9.950 -0.5923  0.0174 -0.0500
11281W        W26750  16.537  15.984   1.305 -0.0495  0.4425 -0.0615
11282W        W26751  10.449   5.504   3.183  0.0757 -0.2003 -0.2617
11283W        W26752  10.257   8.321   1.742  0.2317 -0.4393  0.0075
11284W        W26753  14.325  11.697   2.694  0.2946  0.0338 -0.1955
11285W        W26754   8.721  12.565   9.560  0.3596  0.2144 -0.5492
11286W        W26755  12.847  16.543   5.745 -0.0682  0.2030 -0.1336
11287W        W26756  10.555  16.748   2.686 -0.0817  0.0158 -0.1955
11288W        W26757   5.028   0.159  12.182 -0.0240  0.1531  0.2510
11289W        W26758  17.525   4.367   1.229  0.1678  0.1148 -0.0267
11290W        W26759  11.520  11.026   3.004  0.0781 -0.1264  0.1499
11291W        W26760   1.346  18.927  10.887  0.4816 -0.2576  0.0909
11292W        W26761   1.400   3.910  12.652  0.2635 -0.1923 -0.0484
11293W        W26762   3.352  14.240   3.987  0.1682  0.0634 -0.3462
11294W        W26763   7.400   0.572   4.270 -0.1616  0.0476 -0.2086
11295W        W26764  12.371  16.213   1.307 -0.1462 -0.0749 -0.0796
11296W        W26765   0.401   9.062  11.592 -0.0956 -0.0073  0.3952
11297W        W26766  12.491  14.991  14.287  0.1944  0.0129  0.1570
11298W        W26767   5.137  18.233   3.869 -0.0551 -0.0325 -0.2571
11299W        W26768  10.378  18.377   5.718 -0.2474  0.0586 -0.3192
11300W        W26769  14.203   5.591   2.934  0.0646 -0.0900 -0.0554
11301W        W26770   8.799   3.864   2.296  0.1148 -0.3621  0.0707
11302W        W26771   3.852   8.864  12.953 -0.0032 -0.0355  0.2111
11303W        W26772  10.462  13.489  14.429 -0.3026  0.5961 -0.3090
11304W        W26773  12.355  17.838  10.182  0.2154 -0.0823 -0.2281
11305W        W26774  12.957   1.742   4.962 -0.2695  0.1868  0.4449
11306W        W26775   3.965   8.524   1.903 -0.2676 -0.1711 -0.3463
11307W        W26776  11.472   1.252  10.853 -0.2827  0.0752 -0.0311
11308W        W26777  15.487   9.021  14.164 -0.0331 -0.0759  0.0695
11309W        W26778   4.142  12.721   2.033 -0.0627 -0.1361 -0.1496
11310W        W26779   2.336   6.550  13.036 -0.2570  0.2121 -0.0778
11311W        W26780  16.905  14.903  12.596  0.1427 -0.1401 -0.0417
11312W        W26781   8.652   9.466  13.167  0.1486 -0.1292 -0.3139
11313W        W26782   0.065   3.334   3.112  0.2484  0.1105 -0.1333
11314W        W26783   4.886  15.031  13.030 -0.0234  0.3163 -0.3055
11315W        W26784  16.744  11.956  12.429 -0.0734  0.0360 -0.1867
11316W        W26785  18.255   1.324   2.052 -0.2000  0.1444  0.0478
11317W        W26786  16.793  11.327   2.447  0.1546  0.2143  0.0429
11318W        W26787  16.416   5.831   0.149  0.1079 -0.0724  0.0302
11319W        W26788   5.748  16.077  11.266  0.1881  0.0946  0.4570
11320W        W26789   0.209   9.344   0.465 -0.1981 -0.0297 -0.1892
11321W        W26790   3.490  10.170  11.592 -0.1325  0.4359 -0.1593
11322W        W26791  11.003  14.026  12.859 -0.1175  0.0861 -0.0147
11323W        W26792  10.751   0.188  13.836 -0.0057 -0.1217  0.1139
11324W        W26793   4.691  11.047   4.682 -0.1585 -0.1539 -0.4837
11325W        W26794   5.475  13.201   2.648  0.2857  0.3505 -0.2388
11326W        W26795  13.135  17.283  13.796  0.1092  0.0175  0.1647
11327W        W26796   7.803   9.544   0.279  0.3494 -0.1177 -0.2564
11328W        W26797   8.858  15.604  15.309 -0.1651  0.1709  0.0206
11329W        W26798  16.502   2.660   3.645 -0.4529 -0.0494 -0.1409
11330W        W26799   8.945  12.614  14.915 -0.1845 -0.3920  0.0784
11331W        W26800   3.782  10.055   4.469 -0.0521 -0.1069 -0.1198
11332W        W26801   1.476   4.425  12.886  0.1750 -0.2123  0.2930
11333W        W26802   3.721  14.114   0.018 -0.1714  0.1693  0.2754
11334W        W26803   9.483   4.229   4.130  0.1190 -0.0496 -0.1594
11335W        W26804   2.703   4.444  10.649 -0.1168  0.3409 -0.0036
11336W        W26805  10.913  10.937  12.722 -0.0572  0.1074 -0.2880
11337W        W26806   9.310  14.525   1.214  0.3751 -0.1132  0.1150
11338W        W26807  15.266   7.730  12.156  0.1306 -0.1536  0.0881
11339W        W26808   0.581   2.395  13.808 -0.0807  0.0556  0.0352
11340W        W26809  18.805   9.004  13.122  0.2212 -0.1070  0.2513
11341W        W26810   7.722   6.384  11.454 -0.0170 -0.1669 -0.0136
11342W        W26811  10.812  14.522   4.184 -0.0241 -0.0231  0.1466
11343W        W26812   3.110   6.062  12.664  0.2177  0.1927 -0.2165
11344W        W26813   6.487   2.704  14.908 -0.0383  0.0086 -0.0876
11345W        W26814  10.867  13.219  10.951  0.1811 -0.1210 -0.1664
11346W        W26815   3.067   2.019   2.567  0.0400 -0.1993 -0.2274
11347W        W26816   6.613   4.704  11.794 -0.0015  0.2159 -0.1876
11348W        W26817   7.181   3.438  14.557 -0.0567  0.1164  0.0385
11349W        W26818   7.082   9.125  15.226 -0.4293 -0.0311  0.0056
11350W        W26819   0.001  12.316  12.680 -0.1093  0.0296  0.3519
11351W        W26820   9.717  18.826   4.979 -0.2724  0.1580  0.0483
11352W        W26821   0.365  15.155   1.717 -0.2368 -0.0739  0.0302
11353W        W26822   1.332   9.363   0.179  0.1232  0.0333  0.0474
11354W        W26823  10.883   7.444  10.976  0.4008 -0.1163  0.1334
11355W        W26824  12.566  16.421   5.330 -0.2144 -0.1091  0.2417
11356W        W26825   1.565  13.004  11.431 -0.0079 -0.0242 -0.0189
11357W        W26826   4.949   1.003   0.445  0.1126  0.0511 -0.0359
11358W        W26827  14.944   0.989   3.772  0.0457 -0.2192  0.1557
11359W        W26828  16.155  11.264   5.204 -0.2410 -0.0723  0.4930
11360W        W26829  14.545  12.651  12.915  0.1523  0.6378  0.0514
11361W        W26830  12.580  17.673   2.230 -0.1765 -0.3205 -0.0718
11362W        W26831   4.246   1.348  13.333 -0.2984 -0.0594 -0.0393
11363W        W26832   3.968   1.430   9.910  0.0334  0.0291  0.0109
11364W        W26833   6.242  13.245   2.401 -0.0114 -0.2230 -0.0151
11365W        W26834   9.135   0.796   5.016 -0.1968  0.2328 -0.0948
11366W        W26835   0.561   4.172   3.105 -0.1393 -0.1981 -0.1531
11367W        W26836   1.727  13.734  14.575 -0.0719 -0.1912 -0.1620
11368W        W26837  13.035  11.729  13.143  0.0504  0.1376  0.1295
11369W        W26838  16.466   7.600  13.836  0.1807 -0.6874 -0.2329
11370W        W26839  15.454  17.776  14.814 -0.1253 -0.0764  0.3456
11371W        W26840  14.494   6.369  10.258  0.0622  0.2594  0.0915
11372W        W26841   4.199   2.191   1.897 -0.2033 -0.1578  0.1860
11373W        W26842   9.140   9.878  10.322 -0.0715  0.0475  0.0545
11374W        W26843   2.274   9.900  11.369 -0.0769 -0.0220 -0.0865
11375W        W26844  17.934   3.488   3.717  0.2687  0.1342 -0.2149
11376W        W26845  11.303  14.360   5.368  0.3519  0.0277  0.0988
11377W        W26846   8.745  15.757  13.358  0.0215  0.0050  0.4292
11378W        W26847  12.302   5.859   2.350 -0.0935  0.2300 -0.1803
11379W        W26848   5.016   9.889   4.077 -0.1575  0.1476  0.2554
11380W        W26849  18.776  16.373  13.238 -0.0277 -0.2275 -0.1353
11381W        W26850  14.392  11.017  13.614  0.1127 -0.0100  0.2656
11382W        W26851   5.604   4.554  14.482 -0.0737 -0.0348 -0.1260
11383W        W26852   3.129  12.652   4.037 -0.1544  0.2851 -0.2510
11384W        W26853   9.580  13.019  11.439 -0.0344 -0.2300 -0.0944
11385W        W26854  16.352   8.502   0.351  0.0932  0.0739  0.2066
11386W        W26855   5.125   1.239   3.092 -0.1145  0.0085  0.2148
11387W        W26856  17.590   0.847   0.035 -0.2641  0.1659 -0.0312
11388W        W26857   9.509   1.459  11.204 -0.1283 -0.1986  0.1037
11389W        W26858  17.016   8.851   4.837  0.3951 -0.0890 -0.1468
11390W        W26859  11.816  15.794  14.081  0.0952  0.0677 -0.0587
11391W        W26860  16.286   9.837   4.115 -0.3007 -0.1380 -0.0159
11392W        W26861  16.424   8.024  11.986  0.0337  0.0008 -0.1303
11393W        W26862  10.013   6.027  10.730  0.1232 -0.2320 -0.0217
11394W        W26863  12.347  10.907  12.163  0.1829  0.5007 -0.2668
11395W        W26864  14.629   9.429  11.827 -0.0728 -0.0213  0.1097
11396W        W26865  12.002  10.352   4.277 -0.1276  0.1681  0.0233
11397W        W26866   2.632   0.941   5.616  0.1648  0.0787  0.1193
11398W        W26867  15.938   8.610   0.756  0.2151  0.0615 -0.3408
11399W        W26868   0.682  15.776   1.515 -0.0725  0.0094 -0.0628
11400W        W26869  15.692  16.903  13.780  0.0816 -0.3935  0.0563
11401W        W26870   8.334   7.349  12.296  0.2392  0.0857  0.1320
11402W        W26871   3.537   8.211   4.247  0.1587 -0.1568 -0.0180
11403W        W26872  15.416  18.961   1.899  0.0586 -0.3996 -0.2975
11404W        W26873   5.745  17.222   5.108 -0.0469  0.1209  0.2395
11405W        W26874  15.574  14.624   1.028  0.1785 -0.0107 -0.1641
11406W        W26875  11.822  11.715   4.270 -0.1782  0.1433 -0.2023
11407W        W26876  12.387   6.741   0.880 -0.0504 -0.0060 -0.1334
11408W        W26877  13.959   0.657  13.406 -0.3138 -0.0779  0.0357
11409W        W26878   7.692   2.125   3.659 -0.0552 -0.0141  0.0544
11410W        W26879  17.004   8.781   4.330  0.0184  0.3521 -0.0496
11411W        W26880  10.532  15.029   3.193  0.1387 -0.0738  0.1252
11412W        W26881  18.651  18.409   4.540  0.0450  0.0619  0.3090
11413W        W26882   2.293  12.089   3.251 -0.3801 -0.2062 -0.1687
11414W        W26883   1.951  18.818   5.624 -0.2760  0.0879 -0.2697
11415W        W26884   4.472  16.150   4.006 -0.0066 -0.1531  0.4200
11416W        W26885   5.636  13.160  14.796  0.2235  0.0128  0.0470
11417W        W26886   5.817   2.026  15.351  0.2187  0.0727  0.3151
11418W        W26887  17.012  15.712   1.162  0.1127 -0.1909  0.1432
11419W        W26888  16.643   0.289   2.719 -0.0787  0.1506  0.2078
11420W        W26889  14.504   0.765  10.190 -0.0650 -0.1380 -0.0827
11421W        W26890  10.006  14.406   3.922 -0.0793  0.1256  0.1126
11422W        W26891  16.466   7.723   5.614  0.1611 -0.0336  0.1223
11423W        W26892  13.842   4.478  14.419 -0.1578 -0.0119 -0.0020
11424W        W26893   8.458  18.424   5.144  0.1004 -0.1762  0.1668
11425W        W26894   1.792   8.029  11.180  0.3338 -0.2522  0.2508
11426W        W26895   1.859   5.144   0.940 -0.0702 -0.0631  0.1530
11427W        W26896  14.673  11.946  14.411  0.1258  0.0693  0.1470
11428W        W26897  10.069  14.146  10.408 -0.0137  0.1789 -0.0298
11429W        W26898   0.404   9.175  14.344 -0.3442 -0.2034  0.1232
11430W        W26899   7.408   8.765   4.804 -0.0744 -0.1799 -0.0415
11431W        W26900   6.539   7.066  11.260 -0.1283  0.2233  0.2860
11432W        W26901  15.106  15.880   2.187 -0.4886  0.0137  0.0215
11433W        W26902  10.515  15.106   9.863  0.2200 -0.2721  0.0856
11434W        W26903  11.340  18.372  10.971 -0.2221 -0.0280 -0.2360
11435W        W26904  17.784  13.211  12.568  0.1183 -0.0276  0.1514
11436W        W26905   3.287  18.729   1.685 -0.0519  0.0770 -0.1235
11437W        W26906  17.160   4.186  13.769  0.0502  0.2401  0.5542
11438W        W26907   6.768   5.042   3.677  0.1502 -0.0852 -0.3433
11439W        W26908   8.068  11.133   5.030 -0.2510 -0.1457 -0.0136
11440W        W26909   0.884   4.881  13.523 -0.0466  0.0525  0.0600
11441W        W26910   4.928  12.137   0.989 -0.0393 -0.1144  0.2037
11442W        W26911   7.466   5.223   2.680  0.0871  0.1181 -0.3096
11443W        W26912   4.687  14.035   5.136 -0.1211  0.0457  0.1615
11444W        W26913   4.405  11.164  13.938 -0.1188 -0.4406  0.0491
11445W        W26914   4.346   1.254  11.879 -0.3247  0.4685  0.1923
11446W        W26915  12.658  14.099   4.409  0.0583 -0.4838  0.0990
11447W        W26916   8.495   5.711   0.655 -0.0935  0.1258 -0.1492
11448W        W26917   3.862  18.320   0.610 -0.4172 -0.0170  0.0376
11449W        W26918   8.636  17.708   2.217 -0.1358 -0.1703  0.3472
11450W        W26919  18.561  13.914  10.653 -0.1891  0.0800 -0.0762
11451W        W26920   1.042   4.425   0.954 -0.2979  0.2201  0.0802
11452W        W26921  14.014   9.893  11.538  0.3943  0.0492  0.0200
11453W        W26922  18.730   8.923   3.424 -0.0770  0.1878  0.2554
11454W        W26923  14.275   8.965   2.933 -0.2702  0.1020  0.0622
11455W        W26924   9.823  15.828  13.091  0.2586 -0.2277 -0.0849
11456W        W26925  16.439   0.847   3.707 -0.1354  0.2985  0.3521
11457W        W26926   1.159  13.575   3.586 -0.0399 -0.1865  0.0848
11458W        W26927  16.884  10.173   9.781  0.0239 -0.1788  0.1084
11459W        W26928   3.553   0.997  10.709  0.0333  0.0136  0.1599
11460W        W26929  18.740   1.475   0.290 -0.4569  0.0218 -0.1513
11461W        W26930  10.758  16.275   2.913  0.1199  0.1946  0.0933
11462W        W26931   6.493   3.658  12.904 -0.1716  0.2039  0.0857
11463W        W26932   4.398   8.616  10.230 -0.2326  0.1938 -0.1683
11464W        W26933  16.999   3.672  14.495  0.0205 -0.2818  0.0649
11465W        W26934   0.758   9.371   0.223  0.1433  0.3035  0.2077
11466W        W26935  10.885   1.525   4.286  0.0836 -0.2078 -0.3624
11467W        W26936   9.664  15.076   5.173 -0.2583 -0.1102 -0.1654
11468W        W26937  18.227  15.280  10.878 -0.3304  0.0833 -0.0720
11469W        W26938  11.823   2.934   4.995  0.5214 -0.1394 -0.0963
11470W        W26939   3.698   4.263  14.914  0.2110 -0.2050  0.2987
11471W        W26940   5.368  10.890   0.968 -0.0620  0.0189  0.3565
11472W        W26941  17.995  19.031   1.890 -0.0298 -0.2231  0.1673
11473W        W26942  17.516   0.516   2.014  0.0459  0.0120 -0.0309
11474W        W26943  11.717  18.754   3.699  0.0527  0.2152 -0.0206
11475W        W26944   4.829  18.068   2.429  0.1157  0.3819 -0.1170
11476W        W26945   9.521   5.686  10.947  0.0170  0.1402 -0.1175
11477W        W26946   6.786  12.480   2.168  0.0454 -0.1501  0.2739
11478W        W26947   5.491  12.694   3.039 -0.3864  0.0333 -0.0452
11479W        W26948   8.600  14.046  13.165 -0.0164 -0.1758 -0.2624
11480W        W26949   1.491   4.926   4.115 -0.1605 -0.0220 -0.1601
11481W        W26950  15.471   7.551   0.972 -0.2054  0.2723  0.0679
11482W        W26951   4.807  18.721  11.665 -0.2984  0.1300  0.1167
11483W        W26952  13.327   3.396  15.309  0.2617  0.2817  0.0840
11484W        W26953  16.130   1.339  14.241 -0.2677 -0.0318 -0.1098
11485W        W26954  13.942   4.162  11.283  0.1700 -0.0057 -0.0404
11486W        W26955   2.497  11.142   3.323  0.1351  0.2667 -0.0289
11487W        W26956   4.589  11.474  15.330 -0.1235  0.0422 -0.2310
11488W        W26957  17.358   2.168   1.178 -0.1285  0.1955 -0.1205
11489W        W26958   2.723   0.434   1.759 -0.2250  0.3022  0.0321
11490W        W26959  13.114  12.596  15.264  0.3824 -0.1803 -0.3329
11491W        W26960   7.693  13.064  12.491  0.3860  0.0553  0.1605
11492W        W26961  16.824  13.585  10.734 -0.2387  0.0949  0.0944
11493W        W26962   4.101   4.778  11.619  0.1852 -0.1320 -0.0842
11494W        W26963  16.156  11.950   1.142  0.4109  0.5498 -0.2100
11495W        W26964   8.261   7.053   4.061  0.0603  0.1237 -0.0177
11496W        W26965   1.102  11.708   1.851  0.1087 -0.0815  0.0681
11497W        W26966   6.172  14.629  13.185  0.2294  0.1000  0.1804
11498W        W26967  16.716  16.830  10.005 -0.0299 -0.0952 -0.2583
11499W        W26968   7.170   2.596  11.757  0.1080  0.0675 -0.0335
11500W        W26969  15.507  11.942   1.210 -0.0951  0.1114  0.1498
11501W        W26970  10.682   7.131  11.964  0.0664 -0.1744 -0.1924
11502W        W26971  10.270  14.829  10.744 -0.0820  0.2432 -0.1318
11503W        W26972  16.467   4.564   0.097 -0.2397 -0.0799  0.1918
11504W        W26973   7.031   9.276   1.985  0.1042  0.2078 -0.0250
11505W        W26974  10.024   9.991   1.489  0.0267 -0.0233  0.3353
11506W        W26975   2.946   0.145   1.420 -0.2283  0.5016 -0.1539
11507W        W26976   2.699  14.238   0.027  0.2109 -0.0932 -0.1587
11508W        W26977  12.719   0.320  14.463 -0.1506 -0.3156 -0.4411
11509W        W26978  10.662   6.231   3.851  0.1478 -0.2160  0.0043
11510W        W26979  16.689   8.153  12.685 -0.2561  0.0946 -0.0577
11511W        W26980   7.940  18.175  10.661  0.1274  0.0675  0.2049
11512W        W26981  11.390   0.778  13.589  0.0368 -0.1458  0.0523
11513W        W26982  18.873  13.852   1.895  0.0598 -0.2655  0.1394
11514W        W26983   2.355  18.200  12.983 -0.1264  0.0818 -0.0332
11515W        W26984  17.048  16.648  15.328 -0.3090  0.3381 -0.3444
11516W        W26985  10.431  11.705   1.812 -0.1512 -0.0813 -0.2192
11517W        W26986   7.491  10.604  14.806 -0.2731 -0.0313  0.4273
11518W        W26987   0.463   0.834  11.522  0.1744 -0.2813 -0.2775
11519W        W26988  18.445  15.942  13.080 -0.1316  0.1590  0.2609
11520W        W26989   6.691   4.075  12.769  0.0035  0.0080  0.0498
11521W        W26990  12.627   7.829  12.310 -0.0412  0.1608 -0.0563
11522W        W26991   1.121  11.328   2.920  0.0587  0.1115  0.1630
11523W        W26992   6.460   8.587  13.366 -0.0426  0.3913 -0.0820
11524W        W26993  16.437   4.490   4.895  0.4357  0.4461  0.1439
11525W        W26994   3.947   7.519  13.678 -0.0089 -0.2308  0.0979
11526W        W26995   4.573   1.642   3.296 -0.1189  0.3089 -0.0835
11527W        W26996   9.010  18.026  14.438 -0.1331  0.0163 -0.3165
11528W        W26997  17.907  15.273  12.206  0.2854 -0.1059  0.1917
11529W        W26998  13.833  12.044   0.798  0.2477  0.1606  0.0784
11530W        W26999  10.952  13.517   2.473  0.2428  0.0988  0.3998
11531W        W27000   8.724   0.628   2.105 -0.5208  0.0459  0.1267
11532W        W27001   3.224   7.260   0.586  0.1241 -0.3763  0.1479
11533W        W27002  15.884   8.286   2.295  0.4458  0.1739 -0.0765
11534W        W27003  15.594   7.286  11.865 -0.0212  0.0282 -0.0380
11535W        W27004   8.356  16.867   9.879  0.2270  0.3822  0.5023
11536W        W27005   4.285   8.952   0.113  0.0316 -0.0781 -0.0293
11537W        W27006  18.032  10.364   3.265  0.0399  0.1269  0.0264
11538W        W27007  18.251   4.829  11.718  0.1491 -0.1591  0.2266
11539W        W27008   2.252  14.950   3.399 -0.1285 -0.1097  0.2990
11540W        W27009  14.160  15.429  12.255 -0.0463 -0.0774 -0.0172
11541W        W27010  15.444   1.484   0.367 -0.0190  0.2255 -0.1685
11542W        W27011   4.650  15.973   3.549 -0.0941 -0.3515  0.0538
11543W        W27012   0.286   5.050   4.743  0.0362  0.0178  0.2216
11544W        W27013  12.700   4.579   4.283 -0.3117  0.2058 -0.1183
11545W        W27014  11.125   9.210   5.170  0.1597 -0.0790  0.2563
11546W        W27015  18.195  14.510  12.867 -0.1776  0.2369  0.0772
11547W        W27016   3.951   7.950   4.741 -0.0859 -0.0340 -0.2010
11548W        W27017   1.861  10.317   0.745  0.1378 -0.1611 -0.2058
11549W        W27018  10.186  13.992  11.513 -0.1420 -0.0773 -0.1581
11550W        W27019   9.820  10.883   3.577  0.4517 -0.3147  0.3654
11551W        W27020   1.937  17.029  12.520  0.1552 -0.0665 -0.1121
11552W        W27021   8.745   6.120  14.263 -0.2822  0.1346  0.1932
11553W        W27022   8.211   4.447   3.080  0.2491 -0.0312 -0.0851
11554W        W27023  17.154   3.732  11.959  0.0761 -0.1746  0.2748
11555W        W27024  11.965  17.495   6.153  0.0895  0.2083  0.1739
11556W        W27025   2.203   8.834  12.207  0.3528 -0.0085  0.3501
11557W        W27026   9.066  17.346  14.912 -0.2313 -0.0793 -0.1134
11558W        W27027  12.745   0.601   3.750 -0.2644  0.1416  0.0485
11559W        W27028  11.832  16.885   5.319 -0.2070  0.0370  0.0041
11560W        W27029  15.304  16.534   4.341  0.0938  0.0504  0.1437
11561W        W27030  15.348   1.518  15.223 -0.3892 -0.0024  0.1072
11562W        W27031   0.498  12.652   0.663 -0.2660  0.1070 -0.1841
11563W        W27032   5.582  18.023  11.485 -0.0230 -0.3338  0.0103
11564W        W27033   0.620  12.857  12.769 -0.3354  0.0959  0.0596
11565W        W27034  11.763  14.643  12.995 -0.1056  0.2660 -0.2660
11566W        W27035   4.505  11.889   3.098  0.3028 -0.0134  0.2550
11567W        W27036   4.449  10.408  10.977  0.0334  0.2012  0.3402
11568W        W27037   8.369   6.132  13.885 -0.2680  0.1711  0.2224
11569W        W27038  18.981   4.155  14.134 -0.0942 -0.0457  0.0563
11570W        W27039  10.294  16.208  11.409  0.1725 -0.1083 -0.1570
11571W        W27040   5.199  14.967  15.250 -0.0481 -0.1831  0.0921
11572W        W27041   5.309  16.069  12.202  0.0696 -0.1734  0.0282
11573W        W27042  15.708  12.844  12.433  0.4597 -0.0135 -0.1838
11574W        W27043   0.693   9.014   4.432  0.1870  0.1679  0.0674
11575W        W27044  18.355  12.362   4.384  0.1134 -0.0550  0.1827
11576W        W27045  11.380  12.621  14.565  0.0917 -0.0387  0.0455
11577W        W27046  17.890  13.639   3.170  0.0082  0.3632 -0.2615
11578W        W27047   4.356  10.266  13.777  0.2603  0.0185  0.0782
11579W        W27048   4.517   0.747  11.731  0.3467  0.3457 -0.2716
11580W        W27049  12.072   1.091   2.129 -0.1727  0.2427 -0.0925
11581W        W27050  16.352  18.191  13.456 -0.3487  0.2715 -0.0936
11582W        W27051  15.445  14.337   4.148  0.1120 -0.3266 -0.1520
11583W        W27052   0.210   1.065   4.620 -0.1174 -0.0997  0.4221
11584W        W27053   0.043  10.084  13.338 -0.1720  0.1916 -0.0718
11585W        W27054  15.482   3.516  12.409 -0.2936 -0.1023 -0.1662
11586W        W27055   6.973   7.344  13.593  0.0214  0.0691  0.2101
11587W        W27056   4.712  10.514   2.473  0.0591 -0.3748  0.1404
11588W        W27057   1.584   8.375   4.420  0.1693 -0.0413  0.0375
11589W        W27058  11.781  15.618  12.694 -0.1228  0.2498 -0.2201
11590W        W27059  15.164   3.875  13.106 -0.1828  0.1761  0.2394
11591W        W27060  14.094   7.943  14.019  0.2645 -0.1310  0.4778
11592W        W27061  13.407   2.089   5.235  0.1131  0.2345  0.1870
11593W        W27062   6.369   5.831   4.943  0.1487 -0.0158  0.2099
11594W        W27063   5.985   5.276  13.446 -0.4468  0.0841  0.2164
11595W        W27064  18.014  13.635   5.062 -0.2445 -0.0765  0.0343
11596W        W27065  17.400   4.889  15.315  0.2684 -0.0728  0.0098
11597W        W27066  14.704   1.012  14.206 -0.1792  0.0543  0.1803
11598W        W27067   1.902  11.364  13.692 -0.0235  0.2343  0.0441
11599W        W27068   8.349  10.745   4.012  0.0548 -0.3657  0.1223
11600W        W27069   7.417  16.854   3.678 -0.1878  0.3579  0.0213
11601W        W27070   4.299  14.699  11.985  0.0795 -0.1550  0.0742
11602W        W27071  15.877  16.306  13.103  0.0473 -0.0043  0.0215
11603W        W27072   5.670   7.201  12.665 -0.0647 -0.0135  0.1232
11604W        W27073  11.871   7.215   0.947  0.2215  0.0543 -0.0835
11605W        W27074   1.219   6.600  11.112 -0.1138  0.0096  0.1719
11606W        W27075   0.216   3.704   3.489 -0.0947 -0.0182 -0.4658
11607W        W27076  15.608   8.215   4.917  0.0223  0.5228  0.1413
11608W        W27077  10.141  14.551  13.740  0.0593  0.1064  0.0740
11609W        W27078  18.920   3.160  11.362  0.1351  0.1217 -0.1661
11610W        W27079  13.645  14.606   4.533  0.1235  0.2781  0.0346
11611W        W27080   8.367  11.562   4.195 -0.0522  0.0947 -0.4534
11612W        W27081   1.646   3.407   4.725  0.1504 -0.2400 -0.1291
11613W        W27082  16.969  17.098  14.462 -0.1576  0.0307  0.0682
11614W        W27083   2.564  12.632  11.655  0.1598  0.0644 -0.2190
11615W        W27084  13.344  10.761   5.328  0.0146  0.3654 -0.1246
11616W        W27085   5.988  11.591   2.591  0.0777  0.0296 -0.0113
11617W        W27086   0.321  14.121   2.790 -0.1223  0.0331  0.2966
11618W        W27087   3.238  17.659  12.636  0.1257 -0.3656 -0.2794
11619W        W27088   3.092   6.253   0.649 -0.1135  0.0866 -0.0721
11620W        W27089  13.662   9.119   3.741 -0.0132 -0.0477 -0.0607
11621W        W27090   3.953  13.448   4.406  0.1080  0.0505 -0.1296
11622W        W27091   1.227  13.997   4.025 -0.0264 -0.2044  0.0959
11623W        W27092   5.931  16.569  12.702 -0.1931 -0.2924  0.3495
11624W        W27093   1.261   1.113   1.718 -0.1131 -0.2141 -0.1624
11625W        W27094   2.266   2.250   3.371 -0.2515 -0.2960  0.4108
11626W        W27095   1.846  16.864  13.461  0.2279  0.1924  0.1167
11627W        W27096  16.581  12.370  12.731 -0.0417  0.1645 -0.3650
11628W        W27097   6.683  17.568   5.473 -0.1915 -0.4585  0.0141
11629W        W27098  15.708   9.946  10.803  0.0335  0.0093  0.1979
11630W        W27099   4.941  18.930  14.872  0.1925  0.0162 -0.0725
11631W        W27100  13.862  15.460  11.838  0.1019 -0.2005  0.1068
11632W        W27101  13.326  16.084   5.050  0.1675 -0.2513 -0.3086
11633W        W27102   9.906   0.358   1.197 -0.0379  0.0770 -0.0943
11634W        W27103  13.783   8.904   1.090  0.1812  0.0952  0.1396
11635W        W27104  18.992   8.335  14.209 -0.2012  0.1339  0.0244
11636W        W27105  14.483  10.192   2.138  0.0235 -0.0655  0.2436
11637W        W27106   3.670   5.090  11.686  0.2579 -0.1448  0.2515
11638W        W27107  18.342  13.718   4.134  0.4078  0.0372 -0.0303
11639W        W27108   3.335   0.376   4.873 -0.1293  0.0544  0.1267
11640W        W27109   5.803  12.038  10.618  0.3864  0.0230  0.2609
11641W        W27110   5.123   9.838  14.705  0.0646  0.1162  0.4378
11642W        W27111   5.367  12.760  10.192  0.0199 -0.2404 -0.0367
11643W        W27112   7.125   5.899   1.576  0.4121  0.0437  0.0384
11644W        W27113  17.053  12.089   3.982  0.0962 -0.4079 -0.0335
11645W        W27114   3.317  10.623  12.678 -0.0658 -0.2172 -0.0796
11646W        W27115  12.034   9.458  10.999  0.3637  0.1222 -0.0116
11647W        W27116  14.583   6.629   4.514 -0.1212 -0.1571  0.0392
11648W        W27117   7.314  13.103   0.243  0.0252 -0.3379  0.5844
11649W        W27118   2.617   9.605  11.776  0.1719  0.2769 -0.0617
11650W        W27119  12.264  10.272  14.399  0.2882 -0.2055 -0.1639
11651W        W27120  16.194   2.872  15.332 -0.3773 -0.2126  0.0403
11652W        W27121   6.250  17.535   4.162  0.3000  0.0861  0.0904
11653W        W27122   2.387   0.688   2.001 -0.2050  0.0249  0.5622
11654W        W27123  12.180   0.678   3.796 -0.0902 -0.0133  0.3348
11655W        W27124  17.796   7.863   2.458 -0.1044 -0.1109  0.2758
11656W        W27125   6.801   9.837  10.522 -0.2230  0.1775 -0.2932
11657W        W27126  15.341   3.036  13.752  0.2799 -0.1301  0.0639
11658W        W27127  17.043   4.230  11.978 -0.2475 -0.2909 -0.0337
11659W        W27128  10.734   1.770   2.794 -0.3757  0.1755  0.0366
11660W        W27129   2.855   2.393  14.329  0.0318  0.0210  0.4187
11661W        W27130  15.559  12.897   0.213 -0.2213  0.3453  0.0746
11662W        W27131   8.821  17.730   1.699  0.1338  0.1749 -0.3151
11663W        W27132   1.566   5.345   1.311 -0.0724  0.2188 -0.0167
11664W        W27133  13.702  13.645  13.029 -0.3141  0.2908 -0.1303
11665W        W27134   8.944   7.117  11.745 -0.1706  0.0145  0.1759
11666W        W27135   7.746   8.539   3.182 -0.3370  0.2473 -0.0507
11667W        W27136  18.116  17.367  12.792  0.3069  0.1484  0.0967
11668W        W27137   6.198  12.288  10.873  0.0641  0.1828  0.0789
11669W        W27138   5.451  12.559  12.588 -0.1934 -0.2679  0.0763
11670W        W27139   1.850   7.227   0.630 -0.1171  0.0147 -0.2410
11671W        W27140  10.557  13.819   0.323  0.0591 -0.1205  0.0464
11672W        W27141   8.300   7.752   0.443  0.1090 -0.0584  0.0701
11673W        W27142  10.812   9.282  14.860  0.2926 -0.0078  0.3014
11674W        W27143  10.211   0.973   3.356 -0.1167  0.1429  0.1066
11675W        W27144   9.541  10.914   1.182 -0.3121  0.0814  0.0154
11676W        W27145   1.970  10.420  12.616  0.1330  0.1030 -0.1638
11677W        W27146  17.450   8.025   5.652  0.2378  0.1856  0.2410
11678W        W27147   6.732   5.635   2.361  0.1321  0.1504 -0.5024
11679W        W27148  15.859  12.524  14.690 -0.2097 -0.1403  0.2420
11680W        W27149  11.041   7.611  14.110  0.0479 -0.1227  0.3873
11681W        W27150  12.957  11.031   2.737 -0.1373 -0.0652 -0.1426
11682W        W27151  11.509  15.810   1.736  0.0594 -0.3508 -0.2915
11683W        W27152   9.829   3.286   3.776 -0.1636 -0.1244  0.2487
11684W        W27153   5.506   6.345  13.054  0.3564  0.0557  0.3791
11685W        W27154  15.030   8.766  10.519  0.2324 -0.1485 -0.0513
11686W        W27155   8.964   1.585   0.908 -0.0943  0.0450 -0.1132
11687W        W27156   8.883  11.685  13.801 -0.2318  0.1830 -0.2403
11688W        W27157   5.870  18.327   3.096 -0.3892  0.2015 -0.1007
11689W        W27158   1.292  14.711  11.820  0.2456  0.2146  0.0480
11690W        W27159  13.343   9.220   3.070  0.4829  0.1165  0.1498
11691W        W27160  19.004  11.271   0.556 -0.0342  0.2042  0.1639
11692W        W27161   9.780  18.395  11.794  0.0303 -0.0675 -0.0360
11693W        W27162   1.212  12.518   0.570  0.0432 -0.1998 -0.2029
11694W        W27163   1.843  17.284  12.096 -0.1954 -0.0512 -0.1516
11695W        W27164  16.559  13.457   4.783  0.3685 -0.1074 -0.2769
11696W        W27165   5.067   4.999   0.472 -0.2240 -0.0571  0.1651
11697W        W27166  14.341  14.873   4.521 -0.2590 -0.0458  0.0688
11698W        W27167   6.804  11.820   1.307 -0.1673  0.0385  0.3875
11699W        W27168  16.662  14.763  13.081  0.0596 -0.2791 -0.1732
11700W        W27169  17.282  17.262  11.540  0.2184  0.1579  0.1373
11701W        W27170  17.172  14.439  12.995  0.2540 -0.1871  0.2250
11702W        W27171  18.963   9.200   0.073 -0.2068  0.1874  0.0484
11703W        W27172   1.843  15.108   2.530  0.0361 -0.2048  0.1006
11704W        W27173  15.258  14.702  12.763  0.1296  0.2122  0.2059
11705W        W27174   5.918   6.587  14.028 -0.2499  0.0150  0.1537
11706W        W27175   2.614   6.339   2.512 -0.0271 -0.0261  0.1886
11707W        W27176   8.138   5.173   2.075 -0.1001  0.1560 -0.0796
11708W        W27177   5.544  14.829   2.458 -0.3989  0.1361  0.0689
11709W        W27178   4.767  13.890   4.330 -0.2097  0.0601 -0.1380
11710W        W27179  10.555  13.404   3.742 -0.2217  0.0378 -0.2549
11711W        W27180   6.143  13.740   3.387 -0.1679 -0.0729 -0.1681
11712W        W27181   5.988   6.932   4.373  0.4427 -0.1402  0.3452
11713W        W27182   7.738  12.631   4.541  0.1223  0.1647  0.4274
11714W        W27183   4.829   7.531   5.042  0.0197  0.0953  0.0399
11715W        W27184   0.768  12.322  13.669 -0.0670  0.1089  0.2436
11716W        W27185  15.323   1.779   2.124  0.0040 -0.2260 -0.2733
11717W        W27186   6.804  15.113  13.698  0.3063 -0.1771 -0.0251
11718W        W27187  12.671   0.223   0.483  0.0763  0.1564  0.0228
11719W        W27188  17.567  17.428  12.008 -0.0525 -0.0045  0.0884
11720W        W27189  15.264   0.368   5.121 -0.0647  0.1027 -0.4152
11721W        W27190   8.871   3.676  13.962 -0.1533 -0.1008  0.0991
11722W        W27191  10.698   4.066  11.293  0.0327  0.2068 -0.2218
11723W        W27192  11.050  17.021  13.807  0.2863  0.1262  0.2686
11724W        W27193  14.680   4.015   3.663  0.1110  0.2690  0.2347
11725W        W27194   2.093   2.085  15.160 -0.1978  0.1993 -0.2295
11726W        W27195   5.646   2.855  14.763  0.3164  0.1569 -0.0502
11727W        W27196   6.277   6.547   3.121 -0.2414 -0.1407 -0.2055
11728W        W27197   4.810  17.451  13.299 -0.0615  0.2908  0.0944
11729W        W27198   2.003   4.212   3.159 -0.2922  0.3159  0.2800
11730W        W27199  10.685  16.420  11.796  0.0306  0.0793 -0.1017
11731W        W27200   1.628   2.377   0.312 -0.1484 -0.0766  0.3642
11732W        W27201   1.658  16.806   2.032 -0.2490  0.0795  0.1627
11733W        W27202   1.703  15.887   1.716 -0.4000 -0.0658  0.1529
11734W        W27203   1.385   0.378  10.704  0.1917 -0.0727 -0.1269
11735W        W27204   2.292   4.349  14.398 -0.0009  0.0098 -0.1879
11736W        W27205   8.532   2.578   3.391 -0.1524 -0.0240 -0.3479
11737W        W27206  17.777  10.432   0.259 -0.4652 -0.0464  0.2868
11738W        W27207   7.670   5.631  12.828 -0.0825  0.1802 -0.0900
11739W        W27208   0.893   8.439  13.896  0.2614 -0.1766  0.0123
11740W        W27209   6.549  13.736   3.661  0.1858  0.1284 -0.0355
11741W        W27210   6.929   3.818   0.644  0.0850  0.1995  0.1891
11742W        W27211   8.928  10.597  11.619 -0.2666 -0.0685  0.2320
11743W        W27212   3.191  18.768  10.540 -0.2393 -0.0711 -0.0307
11744W        W27213   9.194  11.439  11.865 -0.5913 -0.2925  0.2076
11745W        W27214   3.099   2.967   4.238  0.0907 -0.0099 -0.0564
11746W        W27215  13.261   1.484   4.005  0.2957 -0.0466  0.0462
11747W        W27216  16.889  18.382  13.474  0.2307  0.0612  0.0834
11748W        W27217  14.672   7.874  11.143 -0.1201 -0.0007  0.4605
11749W        W27218  10.539  18.848   3.008  0.2208  0.0695 -0.0824
11750W        W27219   8.150   6.733   0.409 -0.0629  0.2521 -0.0321
11751W        W27220   8.990   6.768   3.044  0.0333 -0.0531 -0.1029
11752W        W27221  10.274   5.745   4.503  0.3212 -0.1507  0.3914
11753W        W27222   4.318   3.095  11.297 -0.0212  0.0295 -0.2565
11754W        W27223   6.357   5.450  14.830  0.0685 -0.2371  0.1930
11755W        W27224   9.008   8.409  11.367  0.0515  0.0057  0.0906
11756W        W27225  13.474  13.799  15.236  0.2458 -0.2363  0.2577
11757W        W27226  13.481   7.402   4.411  0.3172  0.0644 -0.3056
11758W        W27227   0.904  14.287   2.671  0.0691  0.0091 -0.3244
11759W        W27228  11.225  18.488   1.853 -0.2638 -0.1033 -0.1128
11760W        W27229  14.656   7.344   1.881  0.1896 -0.1622 -0.0698
11761W        W27230  17.218   1.084  10.311 -0.3669  0.0984 -0.0739
11762W        W27231  15.647   0.946   0.985 -0.0644  0.0157 -0.0004
11763W        W27232  11.115  10.001   4.450 -0.1133 -0.0489  0.2639
11764W        W27233   0.518   2.575  10.681  0.2314  0.0373 -0.0619
11765W        W27234   2.043  10.315  11.616  0.0628 -0.0300  0.0093
11766W        W27235  17.693   0.916  10.612 -0.0973 -0.0870  0.3074
11767W        W27236   8.386   7.967   1.990  0.1023  0.1296 -0.0253
11768W        W27237  15.994   9.019   3.509  0.0736 -0.1868 -0.1917
11769W        W27238   8.679   6.994  12.187  0.1746  0.0059  0.2365
11770W        W27239  13.691   5.575  10.877 -0.2004  0.3420  0.2001
11771W        W27240   8.494  17.979   5.979 -0.1725  0.1522  0.0604
11772W        W27241   4.046   5.874   2.298  0.3675  0.3030  0.2539
11773W        W27242   7.680   3.438   1.662 -0.0086 -0.0469 -0.0122
11774W        W27243   9.532  17.619   5.223  0.1655 -0.1712  0.3547
11775W        W27244   1.171   8.144   4.490  0.3233  0.3137  0.1567
11776W        W27245  18.209   1.111  11.667 -0.1283 -0.0115 -0.1958
11777W        W27246  16.585   1.327  11.991 -0.1841  0.3219  0.0478
11778W        W27247  16.952   7.079   0.847 -0.2144 -0.0204  0.2229
11779W        W27248  18.830  16.069   1.126  0.1864 -0.0924 -0.1788
11780W        W27249  17.388  10.153   0.076 -0.1675 -0.1059 -0.3536
11781W        W27250  17.406   1.886  12.513 -0.1154  0.1487  0.1939
11782W        W27251  14.391  17.076  11.437 -0.1556  0.1762  0.0942
11783W        W27252   0.860  12.891   0.901 -0.1963  0.0547  0.1203
11784W        W27253   7.375   4.766  12.584  0.0254  0.1990  0.0991
11785W        W27254   7.243  11.437   1.408 -0.2863  0.1463 -0.0343
11786W        W27255   3.380  16.996   0.062 -0.3063  0.2632 -0.1650
11787W        W27256  18.321  14.031   5.031  0.1540  0.2519 -0.0313
11788W        W27257  10.344   3.546  14.069  0.0756 -0.1012  0.0883
11789W        W27258  13.561  18.817  11.011  0.0735  0.2420 -0.1087
11790W        W27259  14.470  10.092   9.501  0.1372  0.0217 -0.0630
11791W        W27260   8.174   9.163  13.510 -0.1401  0.0413  0.0173
11792W        W27261  12.358   4.626   2.418 -0.1381  0.0101  0.0427
11793W        W27262  18.261   5.537   3.332  0.0117  0.1640 -0.1582
11794W        W27263   3.168  13.563  12.039  0.2643  0.2283  0.0419
11795W        W27264   5.601  13.892  12.693  0.1795 -0.0999 -0.1394
11796W        W27265  11.831   4.700  13.914  0.3561  0.2047 -0.3332
11797W        W27266   7.119   7.755  12.443  0.0542 -0.2284 -0.0646
11798W        W27267   3.318   5.684   0.056 -0.0418  0.1137  0.3340
11799W        W27268   4.509  13.893   0.593 -0.0517  0.0247 -0.0410
11800W        W27269  15.921  10.720  13.832  0.0436 -0.1114 -0.0158
11801W        W27270  10.735   1.793   5.501  0.6681  0.0201 -0.0926
11802W        W27271  13.119   0.187   2.541  0.0702 -0.1044 -0.2107
11803W        W27272   0.291   6.569   4.309 -0.0079 -0.3554 -0.0387
11804W        W27273   9.661   7.495   1.898  0.0975 -0.0658  0.2448
11805W        W27274   3.105   7.333  13.824  0.0172  0.1243  0.0228
11806W        W27275  12.237   0.187   4.239  0.1608  0.0824 -0.2426
11807W        W27276  14.501   6.869  14.744  0.3831 -0.0646  0.2098
11808W        W27277   2.399  14.999  13.208 -0.1313  0.0172  0.1364
11809W        W27278   9.026  10.384  14.029  0.1492  0.0831 -0.0307
11810W        W27279  18.150  17.180   0.911 -0.6916  0.2175 -0.2120
11811W        W27280  10.111   0.301  10.795 -0.2428  0.0307 -0.3139
11812W        W27281   0.763  16.451   1.001  0.1017  0.1390  0.2032
11813W        W27282  10.319  18.229   5.293 -0.0967 -0.1110  0.1328
11814W        W27283   0.259  14.884   4.351  0.3052 -0.1374  0.2148
11815W        W27284  12.235   6.270   1.297 -0.0376  0.4844  0.1350
11816W        W27285   3.615   9.279  11.208  0.1008 -0.0637  0.0738
11817W        W27286   2.644   7.411   3.371 -0.0845 -0.0512 -0.1810
11818W        W27287  14.866   7.397   4.558  0.3334 -0.3028 -0.1192
11819W        W27288   9.035   2.300  14.308 -0.1493  0.0320 -0.2133
11820W        W27289  18.448   7.088  12.323 -0.0219 -0.3168 -0.0134
11821W        W27290   1.722   5.596   5.438 -0.0704  0.0043  0.0744
11822W        W27291  14.241  17.782   1.941  0.1786 -0.0731 -0.0680
11823W        W27292  10.039   8.033   3.567 -0.2259 -0.0155  0.0605
11824W        W27293   8.828  15.802  10.656  0.0405 -0.2055  0.1228
11825W        W27294  15.876   8.403   4.211 -0.2252 -0.3841  0.0162
11826W        W27295   5.437  18.130  11.949 -0.0682 -0.1589  0.1124
11827W        W27296   4.693   6.753  12.540 -0.0602 -0.2075  0.0038
11828W        W27297   7.691   5.414   0.863  0.0215 -0.0466  0.4400
11829W        W27298   0.143   5.841   0.073  0.2319 -0.3035 -0.1561
11830W        W27299   5.843  11.775  11.759 -0.3391  0.0199 -0.3852
11831W        W27300   4.130   6.954   0.284 -0.1476  0.3094 -0.0029
11832W        W27301  18.483  13.188   3.795 -0.0156  0.4244 -0.0697
11833W        W27302  16.356   7.704   1.473 -0.0050  0.1100 -0.3810
11834W        W27303   1.211   8.637   3.314 -0.2005 -0.0146 -0.0674
11835W        W27304  12.300  18.840  12.832 -0.2583  0.1286 -0.0223
11836W        W27305   4.496  14.799  10.600  0.0244  0.2490 -0.4980
11837W        W27306  16.140  15.444  15.243 -0.0399  0.0381 -0.0871
11838W        W27307   9.519   2.862   3.742 -0.1372 -0.0419 -0.0503
11839W        W27308  15.668   8.311   1.594 -0.0465  0.0286  0.0132
11840W        W27309  12.817   1.162   5.163 -0.1771 -0.2280 -0.1606
11841W        W27310  18.334  13.004  14.715 -0.2622  0.1947  0.0760
11842W        W27311   6.927  13.019   4.973 -0.0749 -0.4144 -0.2892
11843W        W27312  10.572  18.773  13.929  0.2689  0.0756 -0.1416
11844W        W27313   7.684   8.208   2.814 -0.3390 -0.4294 -0.0896
11845W        W27314   7.161   4.093   1.220 -0.0341 -0.1932 -0.0609
11846W        W27315   7.216  16.378  11.269  0.0184  0.0499 -0.2154
11847W        W27316  17.859   7.994  12.091  0.0180  0.1220  0.2157
11848W        W27317   5.802  12.997   1.439  0.0486  0.0385 -0.2609
11849W        W27318  15.301  17.575  10.630  0.2365  0.3184 -0.2483
11850W        W27319   7.729  18.201  12.103 -0.1001 -0.2105 -0.1025
11851W        W27320   7.569   2.510   1.860 -0.2583  0.3198  0.0166
11852W        W27321  12.671   8.552   2.675 -0.0601  0.0924 -0.0749
11853W        W27322  16.704  10.604  11.070 -0.2738 -0.1679 -0.1839
11854W        W27323  16.101  14.477  11.844 -0.1058 -0.4222 -0.0794
11855W        W27324   6.614  15.091  14.518 -0.1559 -0.1006 -0.0815
11856W        W27325  12.500   2.220  10.931  0.1358  0.1210  0.2150
11857W        W27326   6.130   5.267   2.854 -0.0960  0.0415  0.1926
11858W        W27327   8.782  13.632  12.914  0.0704  0.0087 -0.0184
11859W        W27328   6.673   6.896  15.189  0.2426  0.0677 -0.0763
11860W        W27329  14.087   5.161   1.159  0.2337  0.2017  0.4936
11861W        W27330   8.335   9.485   0.019 -0.1418  0.1524 -0.0913
11862W        W27331  11.237  13.729   1.260  0.0608  0.2666  0.2065
11863W        W27332   9.922  12.688  14.514 -0.0457  0.2104 -0.2952
11864W        W27333  17.129  17.730   2.359 -0.1500 -0.1406 -0.2162
11865W        W27334  18.567  18.942   0.098  0.2099 -0.0125 -0.1055
11866W        W27335  10.649  15.484   9.554  0.2471  0.0262 -0.0924
11867W        W27336  16.907  13.019   0.999  0.3182 -0.0263 -0.3299
11868W        W27337   4.285  10.603  12.372 -0.3534 -0.0790  0.3158
11869W        W27338   3.029   3.433  14.276 -0.2070 -0.0300 -0.0590
11870W        W27339  14.592  14.115   9.729 -0.4034 -0.1253 -0.1880
11871W        W27340  16.141   2.566  11.176  0.0548  0.3765  0.1823
11872W        W27341   3.249  11.748   0.583 -0.1385  0.1965  0.0303
11873W        W27342   4.033   3.000  11.749 -0.0079  0.0878 -0.0604
11874W        W27343   8.170  15.043  11.455  0.1946  0.0842  0.0572
11875W        W27344   9.191   8.288  11.795  0.0005  0.0153 -0.0628
11876W        W27345  17.103   5.849  12.816 -0.1102  0.3039  0.1863
11877W        W27346   6.128  13.158  11.978 -0.0962 -0.1673  0.1670
11878W        W27347   3.920   0.582   1.220  0.0252  0.4142  0.1763
11879W        W27348   4.392   2.352   9.625  0.3339 -0.2290  0.0313
11880W        W27349  12.128   4.508   1.276 -0.2263  0.2724 -0.1112
11881W        W27350  12.821   1.975   2.933  0.0456  0.0703 -0.0641
11882W        W27351  17.841   7.315   0.316  0.0817 -0.1153  0.2085
11883W        W27352   6.569  16.597   5.688  0.0955  0.0776  0.0859
11884W        W27353   3.080   0.277   3.457 -0.0183  0.1251 -0.2343
11885W        W27354   4.525  17.391  13.773  0.2871 -0.0940 -0.4433
11886W        W27355  11.599   3.475  13.631  0.0711  0.1142 -0.2320
11887W        W27356   7.258  14.337   1.652  0.0280  0.0361  0.2152
11888W        W27357  16.851  13.755   3.763 -0.1209 -0.1387  0.1213
11889W        W27358  10.019   1.956   0.829  0.4856 -0.0723 -0.0549
11890W        W27359   3.746   0.208  12.619  0.0506  0.3512 -0.0376
11891W        W27360  17.544  16.247  13.173 -0.0813  0.2387 -0.1337
11892W        W27361   7.357   8.765  11.347  0.0130  0.1001  0.1525
11893W        W27362  14.775   9.025  13.206 -0.1780 -0.5118 -0.1694
11894W        W27363  12.890  10.711  14.591  0.0786 -0.0923  0.0661
11895W        W27364   3.333  15.381   0.212 -0.2243 -0.0884 -0.2710
11896W        W27365   0.549  15.846  10.954 -0.0501  0.0687  0.2735
11897W        W27366   5.160  11.424   4.756 -0.2521  0.2434  0.0884
11898W        W27367  12.243  11.900  15.049 -0.0741 -0.0506  0.1824
11899W        W27368  16.138   1.154  13.385  0.1969 -0.1440 -0.0561
11900W        W27369   7.208   1.557   1.543  0.1422  0.2672 -0.2348
11901W        W27370  12.577   9.364  13.097  0.1986 -0.2204  0.0202
11902W        W27371  15.307  14.567   0.516  0.1833  0.5234  0.1682
11903W        W27372  10.508   9.263  10.236  0.3365 -0.0266  0.1286
11904W        W27373  13.070   7.754   1.851  0.1674 -0.1542 -0.0132
11905W        W27374  16.648   8.424  13.930 -0.0020 -0.3178 -0.1999
11906W        W27375   6.916  13.985   4.919 -0.1456  0.0850 -0.2040
11907W        W27376   9.037   5.856  10.746  0.0754 -0.1008  0.1933
11908W        W27377   4.508   6.028   3.861 -0.1790 -0.1919 -0.2721
11909W        W27378   3.828   2.607  11.498 -0.1284 -0.0990  0.1305
11910W        W27379   9.583  10.876   2.206 -0.0419 -0.0910  0.0685
11911W        W27380   6.156   4.572  14.807 -0.0075  0.1267  0.0657
11912W        W27381   2.157   2.116   4.775 -0.1544  0.0553  0.2140
11913W        W27382  17.629  10.511  15.092 -0.0902 -0.2045  0.3725
11914W        W27383   8.637  16.428  12.481 -0.0956 -0.1682 -0.1390
11915W        W27384   8.949   0.267  11.538 -0.0915  0.1488  0.0105
11916W        W27385  15.573   0.284  12.252  0.0476 -0.2040  0.0861
11917W        W27386   8.874   3.996   1.468 -0.0872 -0.0995 -0.4042
11918W        W27387  13.673  18.383  15.115 -0.2446  0.2583  0.2539
11919W        W27388  11.193   7.056   0.326  0.1363 -0.1344  0.1026
11920W        W27389  12.098   7.339   4.040 -0.0828 -0.1770 -0.0262
11921W        W27390  12.481   9.814  14.446  0.1525 -0.0667 -0.0624
11922W        W27391  17.406  15.712  10.362  0.1975  0.0878 -0.1114
11923W        W27392   2.864   5.571  13.423 -0.3892 -0.1264  0.1048
11924W        W27393   1.182  15.883   1.787  0.2309  0.1022  0.1253
11925W        W27394   6.328   6.798   3.729 -0.3532 -0.1379  0.1766
11926W        W27395   6.196   8.668  13.878  0.0643  0.1335 -0.3616
11927W        W27396   5.933  15.023  12.855  0.0983  0.2600  0.2805
11928W        W27397   0.437   0.509   0.842 -0.0331  0.0861 -0.3389
11929W        W27398   0.634   3.083   2.436 -0.1520 -0.2787  0.0029
11930W        W27399   0.686   6.232   4.177  0.1426 -0.2371 -0.0031
11931W        W27400   0.254   1.239  11.316 -0.1716  0.0873 -0.0382
11932W        W27401   0.898   2.239  10.888 -0.4668  0.0448  0.0388
11933W        W27402   1.828  12.147  15.148  0.0275  0.0495 -0.0114
11934W        W27403   1.809  17.565  10.042 -0.1660  0.2754  0.0834
11935W        W27404   3.059  13.287   2.038  0.4782 -0.0673  0.2023
11936W        W27405   3.737   5.076   4.669 -0.0958  0.0798  0.0631
11937W        W27406  12.697   2.915   3.573 -0.1043 -0.1733  0.0671
11938W        W27407  13.843   1.822   5.184  0.2670  0.3403  0.3130
11939W        W27408  17.029  11.876  15.085 -0.1284 -0.1373  0.2088
11940W        W27409   7.915   7.562  12.543  0.2232  0.3016  0.1472
11941W        W27410  18.584  13.610   0.407 -0.2215  0.1078  0.0848
11942W        W27411   2.317  16.356   3.825  0.0986  0.0322  0.1757
11943W        W27412   0.972   5.678  15.075  0.3484  0.1597  0.0121
11944W        W27413  16.238  15.188   0.892 -0.0404  0.0434  0.6651
11945W        W27414  12.418  10.506   3.928 -0.3203 -0.1640 -0.2015
11946W        W27415   6.326   1.559  12.107  0.1939  0.0124  0.3837
11947W        W27416   1.963   1.874   0.263  0.1450 -0.4654 -0.0961
11948W        W27417  18.470   0.312   2.300 -0.2012 -0.1388 -0.0674
11949W        W27418  16.846  16.011   3.880 -0.1779 -0.2388  0.4807
11950W        W27419  17.767   5.704  13.775 -0.0896  0.2419 -0.1099
11951W        W27420  16.704   5.928  14.898 -0.0551  0.2792 -0.1665
11952W        W27421   7.542  13.318   1.624  0.0774 -0.1989  0.2636
11953W        W27422   5.225   1.058  12.285 -0.2410 -0.0892  0.2565
11954W        W27423   6.205  16.732  11.876  0.2033  0.1545 -0.2098
11955W        W27424   5.991  15.486  12.526  0.2479 -0.3718 -0.2068
11956W        W27425   1.773  11.183  15.134 -0.0126  0.0422  0.0583
11957W        W27426   2.792  16.513   2.816  0.2190  0.2301 -0.0126
11958W        W27427  18.111  11.298  12.645 -0.2286  0.3770 -0.0523
11959W        W27428   9.368  13.730  15.062  0.3809 -0.2240 -0.2223
11960W        W27429  12.609   3.449   5.540  0.0621  0.1956  0.1709
11961W        W27430  14.868   0.394   3.022  0.0507  0.0880 -0.1918
11962W        W27431  11.470  15.694   2.605  0.0171 -0.2797 -0.3064
11963W        W27432   7.368   3.351   2.105  0.4306 -0.2686 -0.0303
11964W        W27433   7.128  18.888   6.098 -0.0903 -0.1285  0.0687
11965W        W27434  14.954  16.320   2.064  0.2241 -0.1645  0.0304
11966W        W27435   8.864   2.785   2.457  0.0941  0.3183  0.0793
11967W        W27436   8.282   5.459   1.067  0.2253 -0.1881  0.0019
11968W        W27437   1.063  17.460  12.358  0.3892 -0.0393  0.0009
11969W        W27438  14.003   2.595  11.387 -0.1366  0.1144  0.0299
11970W        W27439   9.719  14.454  14.337  0.0724 -0.0813 -0.1792
11971W        W27440   1.896  13.318   4.605 -0.1362 -0.2573  0.0478
11972W        W27441   8.409  16.125  13.461 -0.2039  0.2471  0.0378
11973W        W27442   9.084   6.762  15.167 -0.1679 -0.1541 -0.0315
11974W        W27443  11.147  16.072  13.672  0.0428 -0.0045 -0.2406
11975W        W27444  17.310   8.050   0.740 -0.1943 -0.0997  0.1362
11976W        W27445   3.702  10.626  11.675  0.1158  0.1308 -0.2142
11977W        W27446  14.972   5.727  15.018  0.3430  0.1653  0.2160
11978W        W27447  17.629   9.654   0.282 -0.2830 -0.2025  0.0401
11979W        W27448  15.495   6.482   3.690 -0.2387 -0.0816  0.1450
11980W        W27449   6.174   1.156  14.277 -0.4481 -0.1168  0.3178
11981W        W27450   0.764  13.043   2.463 -0.0982  0.1094  0.2554
11982W        W27451  18.236   9.235  11.964  0.1503 -0.0731  0.0420
11983W        W27452  18.653  16.683   3.865 -0.1325 -0.1496 -0.0210
11984W        W27453  11.602   3.026   0.535 -0.0365 -0.0268  0.0136
11985W        W27454   7.966   4.181   3.416 -0.3013  0.2651  0.2598
11986W        W27455   3.302  15.697   3.856  0.0169 -0.0742  0.0281
11987W        W27456  10.881  16.924  14.378  0.2379  0.3778 -0.0572
11988W        W27457  16.658  16.947   0.768 -0.1033  0.1360  0.0507
11989W        W27458  13.344   1.989   3.807 -0.0456  0.3566 -0.0136
11990W        W27459   1.417   7.774  13.135 -0.4498  0.2448 -0.0606
11991W        W27460  11.452  18.181   0.018 -0.0615 -0.4126  0.1188
11992W        W27461   7.377   8.757   0.034  0.1388  0.0153  0.2500
11993W        W27462   4.146   1.726   5.028 -0.2195  0.0122  0.1289
11994W        W27463   6.041  18.588  14.878 -0.0195  0.1412  0.3394
11995W        W27464  18.396   3.353  13.967  0.1913 -0.2815 -0.2164
11996W        W27465   9.872   5.177  15.160 -0.3133  0.0031  0.2360
11997W        W27466   5.251  12.026  12.270  0.1282 -0.0663  0.0777
11998W        W27467   2.447  12.787  15.048  0.1002  0.0263 -0.2251
11999W        W27468  16.307   7.745   2.027  0.3222 -0.2980 -0.1404
12000W        W27469  14.363  13.592  14.866  0.2863 -0.0126 -0.1119
12001W        W27470   2.074  18.017   2.780  0.0477 -0.0886 -0.1679
12002W        W27471   9.080  18.012  13.921  0.1295  0.0360  0.3253
12003W        W27472  13.982   4.555  15.341  0.0102  0.0876 -0.2164
12004W        W27473  15.193   6.910   2.350 -0.1416  0.2981 -0.1995
12005W        W27474  13.307  14.574   1.575  0.0273 -0.1026 -0.2327
12006W        W27475  12.605   1.316   2.201  0.1503  0.0980  0.1230
12007W        W27476  18.155  16.602   3.770  0.0178 -0.2018 -0.0916
12008W        W27477   2.174   9.695  14.075  0.0987  0.0288 -0.3253
12009W        W27478  17.231   6.022  14.323 -0.0961 -0.1393 -0.1325
12010W        W27479  11.776  15.726  12.149 -0.0694 -0.2379 -0.1246
12011W        W27480   9.806  15.973  14.798 -0.1407 -0.0010 -0.0462
12012W        W27481  18.791   5.241   5.360  0.0536  0.2338  0.0269
12013W        W27482   9.557   3.448  14.327 -0.2630  0.0509  0.3467
12014W        W27483  13.675   7.968   0.335 -0.1606 -0.2126 -0.3439
12015W        W27484  11.122   4.193  11.684  0.0140 -0.2465 -0.4927
12016W        W27485  18.490   4.388   2.479 -0.0659  0.2460  0.2822
12017W        W27486  17.833   1.733   0.724 -0.0106  0.0075 -0.1348
12018W        W27487   2.876   7.522  12.208  0.2618  0.0723 -0.3263
12019W        W27488  18.501  16.233   0.207  0.3002 -0.0144 -0.0464
12020W        W27489  13.007   7.086   0.422  0.1417  0.4279  0.2261
12021W        W27490   0.977   2.214  13.529  0.0076 -0.1342 -0.1034
12022W        W27491   8.961   4.206  14.284 -0.2055 -0.2081  0.0015
12023W        W27492  11.725   5.168   3.783  0.2534  0.1122  0.0684
12024W        W27493   8.005  12.796   2.656 -0.1159  0.0069  0.2056
12025W        W27494  16.780  14.544   1.874 -0.1787  0.2052 -0.0071
12026W        W27495   8.474   8.725  13.408  0.0858 -0.2013 -0.3633
12027W        W27496  10.337  12.978   3.758  0.0828 -0.0951 -0.1431
12028W        W27497  17.716  12.530   3.371  0.0919  0.0384  0.2860
12029W        W27498   9.989   1.677   3.792  0.1564 -0.1261  0.0298
12030W        W27499   5.495  13.320  10.880 -0.1000 -0.1639 -0.1430
12031W        W27500  13.221  11.876   2.790 -0.0664 -0.0139 -0.0572
12032W        W27501  18.464   9.007   0.859  0.0833 -0.1358  0.0405
12033W        W27502  12.624   7.965  14.078 -0.0059 -0.2931 -0.0359
12034W        W27503   5.504   9.505  13.968 -0.1421  0.1702 -0.1642
12035W        W27504  15.230  18.179  11.693 -0.0493  0.1944 -0.1641
12036W        W27505  18.873  15.136   1.097 -0.2830 -0.2423  0.1325
12037W        W27506  13.949   4.048  15.057  0.0260 -0.1200  0.0969
12038W        W27507   9.882  18.446  11.066 -0.1225  0.0968 -0.0562
12039W        W27508  18.969   4.097  13.635 -0.1340  0.1530  0.0766
12040W        W27509   1.148  19.024  14.908 -0.0178 -0.0363 -0.2705
12041W        W27510   1.134   5.112   2.098 -0.1078  0.0569 -0.1480
12042W        W27511  11.392   9.180  11.159 -0.2066 -0.3945  0.1148
12043W        W27512   5.519   4.629  11.399 -0.3250  0.0799  0.2836
12044W        W27513  12.988   3.083  10.924 -0.3380  0.1875  0.0289
12045W        W27514   1.167  16.633   2.759 -0.1073 -0.1422 -0.2064
12046W        W27515  18.895   5.129  14.748  0.0326  0.1089  0.2317
12047W        W27516  13.849   2.314  10.885 -0.2665 -0.1780 -0.3266
12048W        W27517  12.052   0.961  15.131 -0.0179  0.0253  0.1279
12049W        W27518   2.752   2.526  11.656  0.0235 -0.0661 -0.1067
12050W        W27519  17.643   0.419  10.493 -0.0038 -0.2197  0.0463
12051W        W27520  17.209   4.029   2.498 -0.1105  0.0140 -0.1735
12052W        W27521  16.491  10.743   1.369 -0.4049 -0.0873 -0.1727
12053W        W27522   9.131  15.774   5.278 -0.0850 -0.1714  0.0101
12054W        W27523  11.001   5.931   2.043  0.0782 -0.3554 -0.0430
12055W        W27524  17.357   6.529  12.521 -0.0874 -0.2545 -0.2288
12056W        W27525   9.222  14.031  11.205 -0.2029  0.0141 -0.2337
12057W        W27526  10.281   6.601   2.960  0.1151 -0.0687 -0.0070
12058W        W27527   9.637   4.497   5.068 -0.1748 -0.1684  0.1029
12059W        W27528   3.940   7.176  10.820 -0.0017  0.1081  0.0551
12060W        W27529   6.851   7.107   4.281 -0.0254  0.1660  0.1937
12061W        W27530  11.027   3.592   5.232 -0.0654 -0.0054 -0.0374
12062W        W27531  14.148  16.276   4.712  0.0046  0.0797 -0.2829
12063W        W27532   2.122   9.294  15.053 -0.3484 -0.2279 -0.2542
12064W        W27533   8.001  11.989   1.659 -0.0098  0.0091  0.1572
12065W        W27534   0.980  10.340  13.995 -0.3619 -0.0502  0.0424
12066W        W27535   1.806  12.437  14.594  0.4499  0.3030  0.0530
12067W        W27536  15.047  18.085   2.578 -0.0276  0.1062  0.0794
12068W        W27537  12.179   9.221   2.344 -0.1462 -0.2785  0.0893
12069W        W27538   1.914  12.863  14.317  0.2920 -0.2379 -0.0154
12070W        W27539  13.492   6.769   2.510  0.2877 -0.1400 -0.1486
12071W        W27540   2.476  13.443  13.089  0.1001 -0.2441  0.2737
12072W        W27541  17.944   7.569  11.703 -0.1140  0.2064  0.3028
12073W        W27542   3.827   9.548   4.290 -0.1165  0.1061 -0.1900
12074W        W27543  14.669  14.640  12.821  0.0543 -0.0475  0.1600
12075W        W27544  12.994   2.007   5.445 -0.2300 -0.2223  0.2565
12076W        W27545   3.313  18.489  13.080 -0.2295 -0.0416  0.2038
12077W        W27546   2.272  13.949   3.018 -0.0102 -0.0313 -0.0449
12078W        W27547  13.617  12.530   5.133 -0.3633  0.0688  0.0804
12079W        W27548   2.443  13.624  15.341  0.0992 -0.1879  0.3288
12080W        W27549   4.264  18.430  13.769 -0.0949  0.4566  0.2686
12081W        W27550  10.798   3.041   0.457  0.0468 -0.0425 -0.1014
12082W        W27551   5.518   4.800  14.895  0.0718 -0.1155  0.2237
12083W        W27552  16.070   7.202  15.061 -0.0950  0.1869  0.3440
12084W        W27553   7.646   2.812  12.853 -0.5028 -0.1965 -0.0714
12085W        W27554  10.354   8.429  12.722 -0.2613 -0.0131  0.1750
12086W        W27555   7.718   0.851  15.228 -0.1904 -0.0475 -0.2473
12087W        W27556   9.498  13.263  13.316  0.1580  0.1712  0.1431
12088W        W27557  11.358   1.929   2.971  0.3326  0.0319 -0.3599
12089W        W27558  15.728   7.406  10.057 -0.0354  0.2332  0.1403
12090W        W27559   7.966   5.912   3.790  0.2173 -0.1595 -0.2027
12091W        W27560  10.172  12.177   2.011  0.0060  0.1442  0.0645
12092W        W27561   8.348   3.192  13.938  0.0373  0.2056  0.1334
12093W        W27562   4.475   5.215  11.295 -0.2517  0.3129 -0.0574
12094W        W27563   2.647  10.314   1.441 -0.0873  0.2172 -0.1744
12095W        W27564   6.196   9.756   4.365  0.0150  0.1439  0.0885
12096W        W27565  18.686  10.395  10.561  0.2454 -0.1843 -0.0915
12097W        W27566   9.327  11.007   0.741 -0.1964  0.4142  0.0694
12098W        W27567  11.352  13.255  12.382  0.0099  0.1061 -0.1607
12099W        W27568  11.100   0.012  13.325  0.3224 -0.0598 -0.0175
12100W        W27569  18.400  15.097   2.562 -0.2953 -0.3482 -0.1337
12101W        W27570  11.524  11.143   9.213 -0.1011  0.0358  0.0018
12102W        W27571  18.241   0.333  12.834 -0.1050  0.4511 -0.2502
12103W        W27572  17.000   6.930   5.102 -0.4067 -0.3147  0.2674
12104W        W27573  10.039  16.371  14.382 -0.0209  0.0551 -0.2123
12105W        W27574   1.757  14.563  13.461  0.1152 -0.2456  0.1187
12106W        W27575  11.881  13.377  11.938  0.3646  0.2102 -0.2054
12107W        W27576  18.079   8.810   0.498 -0.6043 -0.0564  0.0457
12108W        W27577   1.022  13.987  15.197  0.3209 -0.3744  0.1291
12109W        W27578  10.981  15.559  10.863 -0.0900 -0.0913 -0.1826
12110W        W27579   9.705  15.198   0.009 -0.2009 -0.1964 -0.1428
12111W        W27580  10.289  15.967   9.500 -0.3128 -0.0248 -0.0703
12112W        W27581   1.837   4.710  11.509 -0.2364 -0.1638  0.0497
12113W        W27582   0.315  16.979  10.274  0.0950  0.0878  0.3138
12114W        W27583   2.735   8.378   2.309  0.1228  0.1733 -0.1667
12115W        W27584  16.129   4.158   9.791  0.0303 -0.0076  0.1141
12116W        W27585   8.409   1.713   4.042 -0.2375  0.1483 -0.0423
12117W        W27586   0.231  14.171   5.749  0.3284  0.1489  0.0225
12118W        W27587  18.499   2.659   0.665 -0.1464  0.1891  0.1829
12119W        W27588  11.677   8.149  10.764  0.1212 -0.0149 -0.2222
12120W        W27589   6.388  11.593   1.509 -0.3044  0.1769  0.0377
12121W        W27590   3.259   9.127   3.427 -0.0218  0.0531 -0.3585
12122W        W27591   7.994   2.276  14.995 -0.1038 -0.0287  0.0505
12123W        W27592  12.531  10.151   3.106  0.3713 -0.4466 -0.2932
12124W        W27593  12.993  10.336  12.293 -0.3541  0.0689  0.1310
12125W        W27594  15.064   3.828  12.118  0.0342 -0.2482  0.2611
12126W        W27595   7.221   1.659  15.300 -0.1318 -0.0434  0.1202
12127W        W27596   9.972   3.231  14.237 -0.2584 -0.1648 -0.3334
12128W        W27597  12.687   9.583   3.004  0.1995 -0.2852 -0.0404
12129W        W27598  10.147   8.838  11.090  0.2000  0.1099  0.1368
12130W        W27599   0.644   6.001   1.848 -0.1214  0.2455 -0.1221
12131W        W27600   9.868  13.652  13.223  0.1181 -0.4570  0.0271
12132W        W27601   9.113   3.186  14.370  0.0610 -0.1341 -0.1702
12133W        W27602   1.191  13.492   4.266 -0.1455  0.2917 -0.0563
12134W        W27603   9.952  10.594  13.623 -0.1308 -0.1268  0.3820
12135W        W27604   7.614   7.462  12.934 -0.0868  0.1301  0.0898
12136W        W27605   4.997  14.228   5.488  0.1211 -0.6055  0.1066
12137W        W27606   9.084   4.135   0.866 -0.0146  0.0188 -0.1410
12138W        W27607  15.046  10.912   4.136  0.2903 -0.0286 -0.0012
12139W        W27608   1.436  18.976  11.415  0.0016 -0.0110 -0.0409
12140W        W27609  17.418   5.123  12.784  0.0794 -0.0073  0.1429
12141W        W27610   2.969  13.307   2.639  0.0737 -0.0099  0.0897
12142W        W27611  10.891  16.095  15.255  0.1039  0.1930  0.1030
12143W        W27612  12.121   3.912  10.262  0.0381 -0.0900  0.2083
12144W        W27613  16.307  18.580  10.169  0.1904 -0.0446 -0.0922
12145W        W27614   4.470   3.600   0.715 -0.2333 -0.2047  0.0243
12146W        W27615   5.776   5.885   4.312  0.0071 -0.0662 -0.1645
12147W        W27616  13.337   2.793   2.937  0.3409  0.0341  0.0638
12148W        W27617   7.861  10.858  14.051  0.0218 -0.1080  0.0067
12149W        W27618   9.170   0.729   1.053 -0.1637 -0.2416 -0.0102
12150W        W27619   8.219  14.223   0.222  0.1574 -0.3067  0.1126
12151W        W27620   5.686  15.442   1.188 -0.4272 -0.2559  0.1520
12152W        W27621   7.691   1.782  13.374 -0.0349 -0.0420  0.1238
12153W        W27622  17.141   7.866   9.635  0.0904 -0.0578  0.1213
12154W        W27623  17.787  17.747  13.645 -0.0645 -0.1397 -0.3396
12155W        W27624   7.230   1.717   0.996  0.5479 -0.0104  0.0896
12156W        W27625   1.771   1.434   0.023 -0.0033 -0.2565  0.0785
12157W        W27626   2.705  15.450  11.979  0.0219  0.2107  0.0170
12158W        W27627  14.659   9.875  10.886 -0.1049 -0.0164 -0.1190
12159W        W27628  15.641   8.231   5.882 -0.4289  0.1138  0.1524
12160W        W27629  15.746   3.134  14.927  0.3925  0.0987  0.4215
12161W        W27630  16.998   4.933   4.332  0.0534  0.0712  0.0909
12162W        W27631   5.104   4.420  13.302  0.0637 -0.0289 -0.0844
12163W        W27632  16.268   2.682  13.637  0.1736 -0.2211  0.2136
12164W        W27633   8.699  15.690   3.367 -0.1815 -0.1516 -0.3288
12165W        W27634  18.672  11.312   2.200  0.0671 -0.1328 -0.1716
12166W        W27635  14.683  14.185   5.462 -0.0147  0.2624  0.1298
12167W        W27636   5.319   0.807  12.696 -0.2860 -0.1991 -0.0118
12168W        W27637  18.240   7.993  13.990  0.2259 -0.0911 -0.1914
12169W        W27638  15.737   0.724   3.475  0.1892  0.1373 -0.3455
12170W        W27639  15.136   8.627   5.194 -0.2110 -0.2701  0.3198
12171W        W27640  11.585   8.499  14.312 -0.0456  0.0396  0.0448
12172W        W27641  13.647   5.006   0.715  0.0863  0.1926 -0.1281
12173W        W27642   8.223   0.550   2.035  0.5940  0.1943 -0.0609
12174W        W27643  17.632   2.802   3.285  0.1628  0.0255  0.0529
12175W        W27644   9.647   1.307   4.628 -0.0702 -0.4752  0.1252
12176W        W27645   7.193   7.367   2.485 -0.1247 -0.0391 -0.1627
12177W        W27646   5.597  12.928  11.192 -0.0715  0.1440 -0.0565
12178W        W27647   1.687  15.364  10.449 -0.0631 -0.0178  0.1246
12179W        W27648   6.806  14.644  11.714  0.1857  0.0474  0.3318
12180W        W27649   8.001   4.637   2.168 -0.0181 -0.0634 -0.0376
12181W        W27650   0.566   6.398   0.749 -0.0134 -0.1531  0.1737
12182W        W27651   6.975   4.897   9.732  0.0957 -0.3012  0.1232
12183W        W27652   9.358  17.422   1.616 -0.1170 -0.0673 -0.0694
12184W        W27653  14.587  10.804  12.496 -0.0051  0.2526  0.3120
12185W        W27654   2.527  14.006  14.943 -0.0197 -0.2743  0.0188
12186W        W27655  13.424   9.824   1.244  0.0493  0.2629  0.0305
12187W        W27656  10.157   7.560   3.721 -0.0319  0.2279 -0.2737
12188W        W27657   9.868  12.495   3.481  0.1048 -0.1480  0.4018
12189W        W27658   0.184  18.862   5.164  0.0619  0.4140 -0.1150
12190W        W27659   4.780   9.472  13.390  0.1809 -0.0625 -0.2278
12191W        W27660   2.053   3.087  12.663 -0.2048  0.3290 -0.3598
12192W        W27661   2.197   0.841  14.789  0.1415 -0.1174  0.0445
12193W        W27662   2.067   3.271  13.101  0.2286 -0.0207  0.0469
12194W        W27663   6.927   9.092   4.128  0.1368 -0.0019 -0.2582
12195W        W27664  13.303  16.380  10.778  0.2971  0.1015 -0.2602
12196W        W27665  18.587   9.038   3.923  0.4069 -0.1152  0.0983
12197W        W27666  14.356  16.463   3.391 -0.0948  0.0054  0.0670
12198W        W27667   5.838  14.909  11.815 -0.0504 -0.1704  0.0417
12199W        W27668   0.064  12.181  10.514 -0.4059  0.1679  0.2827
12200W        W27669   0.701   5.118  13.908  0.0975  0.0389 -0.0902
12201W        W27670   4.557  10.793  10.641 -0.0111  0.0495 -0.1882
12202W        W27671   9.380   3.506   0.399 -0.1524 -0.1201  0.0279
12203W        W27672  13.231   3.887  14.243 -0.5584  0.2727 -0.3611
12204W        W27673  14.141  14.122  14.882  0.0708 -0.1242  0.0748
12205W        W27674  15.530  13.723   0.922 -0.0058  0.4109  0.1872
12206W        W27675  11.049  12.148  13.312  0.2568 -0.1984 -0.2469
12207W        W27676   8.009  14.474  10.302 -0.0478 -0.4195  0.1008
12208W        W27677   5.147   8.811  11.433  0.0002 -0.4843 -0.2163
12209W        W27678  10.829   2.555  14.814 -0.0112 -0.0727 -0.1271
12210W        W27679  13.799  11.188  11.188  0.0184 -0.2501 -0.1081
12211W        W27680   9.178  17.113   4.518 -0.0689  0.0043 -0.2460
12212W        W27681  16.283  11.914   5.497  0.1358  0.2232 -0.2726
12213W        W27682  14.138  11.434  10.879 -0.1934  0.0280 -0.0026
12214W        W27683   7.385  15.249  11.398 -0.4043  0.2343 -0.1153
12215W        W27684   8.653   7.351  13.251  0.1242 -0.0347  0.0568
12216W        W27685  18.558  17.582  14.999  0.1749  0.1740  0.1582
12217W        W27686   1.248   7.455  11.325 -0.3338 -0.1745  0.2262
12218W        W27687  12.996   0.354  12.347  0.2616 -0.1136  0.1107
12219W        W27688  10.120  15.702   4.126 -0.3063  0.0859 -0.1656
12220W        W27689  18.791   3.772   3.183  0.1247  0.0796 -0.0044
12221W        W27690   1.258  15.796   3.328  0.3713  0.3613  0.1625
12222W        W27691  13.653  15.468  12.277  0.0739 -0.4966 -0.2006
12223W        W27692  10.193   3.435  13.401  0.2411  0.1811  0.0916
12224W        W27693   0.207   8.354  14.784  0.0808 -0.1964  0.0047
12225W        W27694   3.088  13.917   6.047  0.1773 -0.3304  0.0692
12226W        W27695   0.883   4.015   4.002  0.3185 -0.1307 -0.5225
12227W        W27696  11.231  15.851   0.755  0.0197  0.1972 -0.0595
12228W        W27697  16.671  14.087  10.688  0.1119  0.2060 -0.0675
12229W        W27698  18.778   6.646  12.367 -0.0115  0.2070  0.1028
12230W        W27699  11.205  13.472   0.007  0.2531  0.1127 -0.1096
12231W        W27700   6.103  15.928  13.457 -0.0532  0.0313  0.0660
12232W        W27701   0.123  13.922  14.978  0.1023  0.0455 -0.0861
12233W        W27702   6.933   6.282  14.323  0.0665 -0.0573 -0.2780
12234W        W27703  18.582  10.367   3.229  0.3911 -0.0614 -0.0349
12235W        W27704   4.206  11.128  10.684  0.1183  0.2129 -0.0398
12236W        W27705   2.708   8.751   0.742  0.1484 -0.0950  0.0797
12237W        W27706   3.671   8.340   3.797 -0.1181  0.4616 -0.1720
12238W        W27707   6.272  16.201   5.563  0.2289 -0.2379 -0.0263
12239W        W27708   0.960   1.935  14.585  0.0218 -0.2966 -0.4836
12240W        W27709   1.967  18.320   1.088  0.1007  0.1410 -0.1204
12241W        W27710   0.576   9.171   0.745 -0.3386  0.0265 -0.0577
12242W        W27711  12.577  11.739  11.431 -0.0531  0.1649 -0.1603
12243W        W27712  15.020   8.105   0.275 -0.0643 -0.1310 -0.1292
12244W        W27713  16.718   8.697   1.126 -0.0030 -0.0970  0.1685
12245W        W27714   9.819  18.071   5.383  0.0135 -0.0703 -0.0608
12246W        W27715   9.097  10.185  12.114  0.0842  0.2556 -0.0381
12247W        W27716   5.587   9.932   1.375  0.0833  0.0061 -0.0647
12248W        W27717  16.325  10.772  12.840 -0.1142  0.1798 -0.0832
12249W        W27718  15.395   4.899  14.306  0.2048  0.1757  0.1312
12250W        W27719  15.742   8.331  10.377  0.0075 -0.4335 -0.0131
12251W        W27720  12.581  15.735  11.669  0.0390 -0.0279 -0.3358
12252W        W27721   4.972   5.311  11.492  0.1459  0.0617  0.1478
12253W        W27722   7.695   9.389  14.422 -0.2010 -0.2153  0.3692
12254W        W27723  16.654   9.110  10.955 -0.0258 -0.0072  0.0525
12255W        W27724   5.988  11.154   0.101 -0.0850  0.3077  0.0221
12256W        W27725  12.688   3.921   0.960 -0.1532  0.2029 -0.1791
12257W        W27726   9.182  18.948  14.383  0.1520 -0.2679  0.0685
12258W        W27727  13.544   9.528   0.727 -0.3564 -0.0247 -0.0223
12259W        W27728   3.755  15.629  11.766 -0.0012  0.0025  0.2446
12260W        W27729   7.244  17.199   4.965  0.1085 -0.0967  0.2766
12261W        W27730   9.226  18.618   0.726  0.1121 -0.2738  0.0422
12262W        W27731  18.387   0.243  10.075 -0.0611  0.1755  0.1270
12263W        W27732  10.657   4.183   4.213 -0.2039  0.2262 -0.4628
12264W        W27733  16.106  15.643   4.256  0.0282  0.0075 -0.0865
12265W        W27734  11.699  18.518  12.251 -0.3073  0.1959  0.1121
12266W        W27735   3.036   3.886  14.658  0.0253  0.0122  0.3043
12267W        W27736  18.045  13.333  11.964  0.0343 -0.2583 -0.2204
12268W        W27737   5.755   2.886  15.253  0.0442 -0.0237  0.0629
12269W        W27738  12.712   1.487   0.037  0.0491 -0.0124 -0.0593
12270W        W27739  14.363   3.247  13.960  0.0276 -0.1750  0.0755
12271W        W27740   0.909  10.786  14.396  0.0880 -0.0283  0.0708
12272W        W27741   9.759   8.754  11.850  0.0878  0.3082 -0.1205
12273W        W27742  13.546   8.511  14.476 -0.0867  0.3465 -0.0630
12274W        W27743   5.314   7.236  14.350 -0.1582 -0.1015  0.0982
12275W        W27744   4.063   1.106   2.616 -0.2698 -0.1029 -0.0333
12276W        W27745   4.091   2.571   6.196 -0.2742 -0.1672 -0.2839
12277W        W27746   2.520   0.376  15.348  0.0679 -0.4037  0.1030
12278W        W27747  13.688   5.395   3.055 -0.1032  0.1531  0.2774
12279W        W27748  11.311   4.863  13.721 -0.0877  0.1179 -0.0336
12280W        W27749   5.921   7.034   1.024  0.2597  0.0081 -0.3783
12281W        W27750  15.391  13.761   1.499 -0.2649  0.1881  0.2376
12282W        W27751  16.262  16.421  15.025  0.2080  0.0643  0.2227
12283W        W27752   4.049  12.327  13.187 -0.0593  0.1267  0.0829
12284W        W27753   1.580  18.039   0.895 -0.0938 -0.0824  0.3018
12285W        W27754  13.675  18.777  13.460  0.0970  0.1166 -0.0082
12286W        W27755   9.855  17.124   2.967  0.0739 -0.1246  0.1158
12287W        W27756   0.268  12.200  13.607 -0.0501  0.1142  0.0627
12288W        W27757  13.759   6.935  11.240  0.0538  0.0666  0.2796
12289W        W27758   3.174   2.036   1.153  0.0486  0.0598  0.4091
12290W        W27759  11.326  11.726  14.290  0.1496  0.3724  0.0097
12291W        W27760  10.533   2.316   1.819  0.2348  0.1978  0.1032
12292W        W27761  17.091   1.488  13.372 -0.2066 -0.2308  0.1741
12293W        W27762  16.033  18.526  12.157  0.2889  0.0260  0.2362
12294W        W27763  11.106  10.467  12.677 -0.4962 -0.1514 -0.1609
12295W        W27764   2.583  16.346   4.245  0.2625 -0.0456 -0.1722
12296W        W27765  16.866   0.164  11.841  0.1577 -0.0317 -0.0147
12297W        W27766   8.048   5.648  10.217  0.1212  0.0984 -0.1752
12298W        W27767  11.599   2.391   4.237 -0.1215  0.2509  0.2653
12299W        W27768  12.510   0.494  11.631  0.0809 -0.0840 -0.0978
12300W        W27769  18.348   8.629   5.115  0.1408  0.2175  0.0926
12301W        W27770  18.025   1.739   2.702 -0.1074  0.0295 -0.0873
12302W        W27771  18.192  12.775   0.276 -0.0979 -0.0132  0.0141
12303W        W27772   3.958   5.377   2.696  0.1067 -0.1829  0.5306
12304W        W27773   9.890  18.917   1.423 -0.0721 -0.2419 -0.0189
12305W        W27774  16.009   8.386   5.144  0.0803  0.1495  0.0282
12306W        W27775  13.271   2.735  13.529  0.0826 -0.1225 -0.0734
12307W        W27776  16.110  11.101   1.078  0.0701 -0.2849  0.1762
12308W        W27777  13.719   6.814   9.798 -0.0466  0.0120 -0.2120
12309W        W27778  12.049   4.748   2.895  0.2810  0.0287 -0.2113
12310W        W27779  18.227   7.094   0.566  0.0492 -0.0586  0.1283
12311W        W27780  11.558   9.728   1.145 -0.1198 -0.0485  0.0472
12312W        W27781  14.576   9.699  10.429 -0.0748  0.2464  0.2895
12313W        W27782  11.046   2.762  11.043 -0.1318  0.0800 -0.2235
12314W        W27783  13.717   6.541  10.930  0.1169 -0.0884 -0.3532
12315W        W27784   2.640  17.659  12.042  0.2539  0.0471 -0.4543
12316W        W27785   7.261  16.811  14.425 -0.1326  0.1382  0.2212
12317W        W27786   0.513  10.511   2.141 -0.0211  0.0647 -0.3207
12318W        W27787   0.453  15.569  14.049 -0.3188 -0.0992 -0.0905
12319W        W27788   0.269  17.229  14.286  0.0101  0.2446 -0.2447
12320W        W27789  17.612  14.137  14.701  0.0880 -0.0318  0.1295
12321W        W27790  10.524  18.013  14.642 -0.3079  0.3600 -0.0237
12322W        W27791  13.978  18.741   0.073  0.0127  0.0498  0.0795
12323W        W27792   7.160  16.137  12.259  0.1212  0.0952 -0.0688
12324W        W27793   1.068  10.471   4.884 -0.2051  0.3495 -0.1365
12325W        W27794   1.846   3.174   1.910 -0.0263 -0.1321  0.3236
12326W        W27795  17.876   4.873  11.381 -0.1655 -0.2698  0.2936
12327W        W27796  14.197   1.669   2.433  0.1230  0.0035  0.2038
12328W        W27797   9.609  18.089   4.242  0.0960  0.0638 -0.2660
12329W        W27798  13.416   5.430  13.831 -0.5671  0.2098 -0.1914
12330W        W27799   1.924  10.269  11.080  0.2198  0.2178 -0.1349
12331W        W27800  13.840   2.114   4.765  0.1763  0.0501  0.0896
12332W        W27801   5.784   2.259   5.099 -0.3445  0.3275  0.0565
12333W        W27802   5.034  16.562   0.699  0.2337  0.2201  0.0946
12334W        W27803  17.357   9.279  12.390  0.1793  0.1436  0.0033
12335W        W27804  10.748  10.166   3.618  0.0313  0.1228  0.0406
12336W        W27805   2.329   3.128  13.712 -0.0147  0.0495 -0.4168
12337W        W27806   2.696   4.219  12.327  0.1229 -0.2549 -0.0287
12338W        W27807   3.118   8.304   3.866  0.1719  0.0634 -0.2212
12339W        W27808   7.663  15.653  13.280  0.0159  0.1480  0.0772
12340W        W27809   0.834  12.284  13.066  0.0058  0.1930 -0.1153
12341W        W27810   5.536  10.412   0.851  0.1935 -0.2348 -0.1386
12342W        W27811   9.502  17.218  12.275 -0.2174  0.0965  0.0142
12343W        W27812  16.214  17.610   4.731  0.1697 -0.0568  0.0750
12344W        W27813  10.862   0.698   2.093 -0.0415 -0.0170  0.2676
12345W        W27814   7.016   8.343  11.345  0.3220 -0.1216 -0.0698
12346W        W27815   8.146  13.938  10.128 -0.0250  0.0217  0.0460
12347W        W27816  13.865  15.774  12.587 -0.0596 -0.2707 -0.3256
12348W        W27817  14.789   6.999  13.412 -0.1020 -0.0384 -0.0262
12349W        W27818   3.984  14.661  15.358 -0.0274 -0.1961 -0.0567
12350W        W27819  10.140   1.562  11.227  0.0979  0.1635  0.3845
12351W        W27820   9.914   7.639  13.040  0.2304 -0.0600 -0.0162
12352W        W27821  17.814   2.911   0.192 -0.0117  0.1109  0.0095
12353W        W27822   9.432  16.123  12.922  0.0635 -0.1367  0.3437
12354W        W27823   7.765   6.806   0.763 -0.2643  0.1895 -0.2115
12355W        W27824  16.188   7.794  13.449 -0.0740  0.1195 -0.2945
12356W        W27825  17.035  18.875  13.963  0.2187  0.0420 -0.0701
12357W        W27826  12.227   2.545  14.638 -0.0462 -0.2756 -0.1397
12358W        W27827   8.217   6.359  15.001 -0.0606  0.0776 -0.2501
12359W        W27828   4.356  17.322   4.526 -0.1928 -0.1740  0.0621
12360W        W27829  18.557   3.195   4.517 -0.0300  0.0370  0.2402
12361W        W27830  16.763   8.011   1.830  0.1784 -0.1992  0.4358
12362W        W27831   3.026  12.468   2.723 -0.2890  0.0460 -0.1047
12363W        W27832  10.854  18.345   5.677  0.3718 -0.1440 -0.2338
12364W        W27833   1.099   2.107  12.737  0.1775 -0.2718 -0.1962
12365W        W27834  15.903  12.332   3.590 -0.3170 -0.0558  0.2702
12366W        W27835   3.317   6.945   3.912 -0.2661 -0.0792  0.0581
12367W        W27836  18.557  18.059  12.425  0.0514  0.1237 -0.1156
12368W        W27837   2.037  18.706   1.437  0.0414  0.2280  0.0463
12369W        W27838   0.400   6.285   0.273 -0.1689  0.1003  0.0899
12370W        W27839  12.790  13.759  14.720  0.0772  0.1204  0.1205
12371W        W27840   7.733   0.058  12.175 -0.0434 -0.2180 -0.2016
12372W        W27841  11.289   7.991  11.844 -0.1518  0.0568 -0.1166
12373W        W27842  13.021  14.965  12.758 -0.3290 -0.2845  0.0936
12374W        W27843  15.502   6.686   1.395 -0.4323  0.2661 -0.0502
12375W        W27844  17.139   7.658  13.604  0.2171 -0.1170  0.3472
12376W        W27845  15.118   2.537   0.201  0.0887 -0.0472 -0.1501
12377W        W27846  17.652   8.314   2.474 -0.0462  0.1037  0.1024
12378W        W27847  13.972  15.693   0.580  0.2982  0.0096 -0.1694
12379W        W27848  13.935  17.113   5.749 -0.3080 -0.0049 -0.0494
12380W        W27849  14.877   5.616   1.345 -0.5462  0.2162  0.2213
12381W        W27850  12.150  15.910  12.927 -0.1112  0.2322 -0.0839
12382W        W27851   7.657  11.915  15.016  0.2307 -0.2844 -0.1707
12383W        W27852   6.105   6.273  15.308 -0.0665  0.3075  0.4195
12384W        W27853   5.151  11.120  11.236  0.2645  0.0998  0.0516
12385W        W27854  17.455   1.502   3.950  0.0906 -0.0564 -0.2084
12386W        W27855   4.384  13.682  13.386  0.0383 -0.0156 -0.1634
12387W        W27856   2.851  18.986   2.454  0.0433  0.1103  0.2240
12388W        W27857  17.714  14.493  10.300 -0.0325  0.0546 -0.4224
12389W        W27858  13.322  18.762   2.599 -0.0153  0.1163  0.1048
12390W        W27859  10.309   0.146  11.952  0.3307 -0.2257  0.3167
12391W        W27860   1.503  12.401  13.675 -0.2136 -0.4978  0.3725
12392W        W27861  11.818   6.102   4.794 -0.2173  0.0283  0.1126
12393W        W27862  16.260   3.870  10.672 -0.0366  0.2542 -0.0906
12394W        W27863   4.652   2.332  14.639 -0.1097  0.1445 -0.4317
12395W        W27864  15.641  15.728   5.188  0.0262  0.2462 -0.1491
12396W        W27865  14.159   6.419   2.478 -0.0448 -0.1288 -0.1408
12397W        W27866   5.899   5.706   5.432  0.2776  0.2043 -0.3511
12398W        W27867   5.871  16.531   2.085  0.2434 -0.1149 -0.3428
12399W        W27868  11.863   0.373  14.474  0.0306 -0.6439 -0.2222
12400W        W27869  18.993  17.058   2.994  0.1128  0.1265  0.0991
12401W        W27870  17.442   8.186  10.836 -0.1135 -0.1641  0.1507
12402W        W27871  15.376  10.890  11.999 -0.3919 -0.0865  0.1896
12403W        W27872   3.194  13.327  10.557  0.0496 -0.1752 -0.2029
12404W        W27873   9.317   3.213  15.274  0.2377  0.3024  0.1565
12405W        W27874  16.032  15.914  14.806 -0.0383 -0.0980 -0.1837
12406W        W27875   2.862   1.659  14.633  0.1961  0.5267  0.1555
12407W        W27876  10.423  13.816   1.364  0.1129 -0.3513 -0.0611
12408W        W27877  10.698   5.341  10.574  0.0508 -0.1223 -0.2979
12409W        W27878  14.803  17.079  12.321  0.2474 -0.2744 -0.0632
12410W        W27879   7.485   1.997  13.912 -0.0660 -0.0148  0.0150
12411W        W27880   0.221   0.227  14.961 -0.0545 -0.1715  0.0446
12412W        W27881  12.875   9.629  11.635  0.1343 -0.0205 -0.1470
12413W        W27882   5.773  12.117  15.227 -0.2731 -0.1116  0.0517
12414W        W27883   5.423  10.546   4.321  0.3461  0.3237 -0.2096
12415W        W27884   9.789  16.824   3.332  0.5952 -0.2796  0.0772
12416W        W27885   5.853   8.637   3.015 -0.4282  0.0619  0.1437
12417W        W27886   3.210  18.524   3.263  0.1063  0.0714 -0.1027
12418W        W27887   3.781  18.495   1.145  0.1794 -0.1905 -0.0601
12419W        W27888   2.110   6.836   3.376 -0.1538 -0.1629 -0.0838
12420W        W27889  16.742  13.372  11.599 -0.2765 -0.1909 -0.1806
12421W        W27890   5.700  15.443  14.121  0.2827 -0.0225  0.1666
12422W        W27891   5.326  18.818  10.866  0.1991 -0.4551  0.1076
12423W        W27892   2.140   1.749  12.474 -0.3039 -0.1475 -0.1512
12424W        W27893   6.985   4.459  11.315 -0.1650 -0.0231 -0.2512
12425W        W27894  16.543   9.706   5.109 -0.2722 -0.2193  0.0986
12426W        W27895   4.840  16.630   5.636  0.5389 -0.0388 -0.1714
12427W        W27896   3.735  10.934   5.497  0.0055  0.2188 -0.0426
12428W        W27897  14.780  13.334   0.553  0.0350  0.1540  0.1582
12429W        W27898   6.845  13.819  14.986  0.1784 -0.1148  0.2146
12430W        W27899   1.759  16.794  10.868 -0.1649  0.0651  0.1648
12431W        W27900  17.366  14.370   3.077  0.0747  0.0603  0.0170
12432W        W27901  13.119  11.381   2.340  0.0833 -0.3006 -0.3288
12433W        W27902  17.834   7.733   3.393  0.0733  0.3350 -0.0583
12434W        W27903  14.715   8.741   5.429 -0.1526  0.2941 -0.3855
12435W        W27904  11.014   7.579  11.854  0.1446  0.4995 -0.0697
12436W        W27905   3.569  12.563   4.278 -0.0637 -0.1823 -0.3045
12437W        W27906  12.200  13.120   1.984  0.1874 -0.1932 -0.0626
12438W        W27907  16.775  11.172  13.665  0.0557  0.1184  0.2039
12439W        W27908   7.764  10.446  10.187 -0.1186  0.0913  0.1004
12440W        W27909  17.487  10.533  10.962  0.1232 -0.0479 -0.1540
12441W        W27910   8.986  11.583  10.509 -0.3227 -0.2675  0.2021
12442W        W27911   7.530   0.009  11.632  0.1422 -0.0439  0.3105
12443W        W27912  15.465  10.322   9.873  0.3826 -0.1592 -0.1576
12444W        W27913  11.606   6.527  11.768  0.1782  0.0590  0.0625
12445W        W27914  14.980   0.503   4.002 -0.1745 -0.2564 -0.1300
12446W        W27915  18.685   7.967  15.095 -0.1456  0.3281 -0.2526
12447W        W27916  12.223  12.470   3.569  0.1642  0.2548 -0.0148
12448W        W27917  15.074   9.005   4.183  0.2247  0.0312 -0.0502
12449W        W27918   9.210  13.624  13.480 -0.0756  0.1268 -0.0649
12450W        W27919  13.099   6.207  11.153  0.1179  0.0391 -0.1154
12451W        W27920  11.991  17.071  10.969 -0.0668  0.2178  0.3016
12452W        W27921   8.173  13.838  13.489 -0.2030 -0.1645  0.0905
12453W        W27922  18.973   1.967  10.975 -0.4295  0.0789 -0.0700
12454W        W27923   6.779  16.104   0.616  0.1661  0.4643 -0.1711
12455W        W27924   6.071  16.773   0.849  0.0703 -0.1682  0.0514
12456W        W27925   8.588   1.052  13.729  0.1810 -0.0708 -0.0615
12457W        W27926  11.538  11.972   4.585  0.1350  0.0517 -0.1550
12458W        W27927  16.948   7.266  11.751 -0.1510 -0.0577  0.1228
12459W        W27928   5.334   9.722   1.013  0.1387  0.3319 -0.5325
12460W        W27929   2.927   5.921   9.674  0.1105  0.2713  0.2618
12461W        W27930   6.780  16.871  12.704  0.0301  0.0957 -0.2689
12462W        W27931  18.000   3.587   1.309 -0.0805  0.1291  0.1491
12463W        W27932   8.371  12.028  11.530 -0.0007  0.2166  0.0476
12464W        W27933  16.544   2.485   0.642  0.0517 -0.1183 -0.0433
12465W        W27934  11.970  15.055   3.011  0.0297 -0.1824 -0.1179
12466W        W27935  12.815   7.081   3.201 -0.5418  0.0954 -0.0298
12467W        W27936   8.767   3.132  11.103 -0.0563  0.1734 -0.1731
12468W        W27937   0.371   0.400  12.751 -0.0198 -0.0003 -0.2024
12469W        W27938  18.597  17.297   1.718 -0.0752 -0.0205 -0.0442
12470W        W27939  12.349   1.776  12.138  0.1806  0.2381 -0.0663
12471W        W27940  14.568   0.114  13.321 -0.1062  0.3992  0.0295
12472W        W27941   7.006  15.919   0.065 -0.0073  0.0499  0.4801
12473W        W27942   8.185  12.429   0.379  0.0161  0.0345 -0.0108
12474W        W27943   9.484   4.125  14.389 -0.0133  0.0955  0.0330
12475W        W27944  11.386  13.284   2.792  0.1218 -0.4274  0.2169
12476W        W27945  14.641  15.114   0.556 -0.1554 -0.1836  0.2091
12477W        W27946  16.577  16.532   0.027  0.1356  0.0033  0.1563
12478W        W27947   4.004  17.020   6.229 -0.0060  0.1565  0.4872
12479W        W27948  13.937  13.975   1.964  0.0827  0.1527 -0.2219
12480W        W27949   2.253  15.629  12.190  0.2393 -0.2524 -0.1605
12481W        W27950   2.457   7.906  12.687  0.0683 -0.0539 -0.1157
12482W        W27951   4.899  14.415   4.380  0.0452  0.2027  0.0857
12483W        W27952   2.524   0.821   0.442  0.0293 -0.3517  0.0793
12484W        W27953   4.881   0.956  14.183  0.1816 -0.2243 -0.1682
12485W        W27954   0.493   8.737  13.296  0.3488 -0.0780 -0.0534
12486W        W27955   3.231   4.371  11.475 -0.2802 -0.1847  0.1612
12487W        W27956  12.649   5.971   5.623 -0.0171  0.4591  0.1265
12488W        W27957  10.726   9.128   4.417 -0.1954  0.1266  0.3421
12489W        W27958  14.615   8.025   0.579  0.4482  0.1979  0.0272
12490W        W27959   0.023  17.732   0.296  0.4633  0.1776  0.1366
12491W        W27960   3.265   7.777  12.060 -0.0364 -0.3515 -0.0769
12492W        W27961  14.969  13.162   2.034 -0.0768  0.0676  0.0661
12493W        W27962  14.312   1.860  11.694 -0.0906 -0.0777 -0.2337
12494W        W27963   6.333   4.551  12.875 -0.0298  0.3494 -0.0579
12495W        W27964  13.853  10.615  11.950 -0.2148  0.1907 -0.1591
12496W        W27965   6.745  16.024   2.776 -0.0228  0.0330 -0.0417
12497W        W27966   2.974   6.018  15.365  0.2415 -0.0745 -0.0104
12498W        W27967  18.457   1.206  14.294 -0.2299 -0.0755 -0.2996
12499W        W27968   6.719  16.112  14.587 -0.0770  0.2277 -0.3433
12500W        W27969   8.746  17.828  12.491  0.0906 -0.0058  0.1728
12501W        W27970  17.481  18.520   3.197 -0.0658 -0.2128 -0.4249
12502W        W27971  11.045  14.648   0.127 -0.1734 -0.3703  0.3773
12503W        W27972   8.803  13.715  11.059  0.2183 -0.0332 -0.1106
12504W        W27973  17.958  11.182   1.525  0.0357 -0.1347  0.0701
12505W        W27974   2.428   7.329   0.748 -0.0917 -0.4013 -0.1336
12506W        W27975  18.926   5.868   4.746 -0.1510  0.2847  0.2116
12507W        W27976  14.852   7.790  12.426  0.2635  0.1704  0.0292
12508W        W27977   9.458  15.737  12.209 -0.0632  0.2647 -0.1351
12509W        W27978   7.822   0.860   4.348 -0.1292 -0.2697  0.1056
12510W        W27979   1.197   1.680  12.352  0.3106  0.2224  0.2820
12511W        W27980   9.275   1.615   4.317 -0.1028  0.3587 -0.1552
12512W        W27981  12.134   7.987  10.857 -0.1354 -0.0783 -0.0797
12513W        W27982   0.847   9.439  14.723  0.1233 -0.0888  0.1190
12514W        W27983  16.699  15.283   1.185  0.2294 -0.4318 -0.1815
12515W        W27984  11.291   9.358  15.009 -0.1892  0.0817 -0.1213
12516W        W27985   7.235   8.988   1.641  0.3128 -0.0615 -0.0826
12517W        W27986   6.611  17.067   2.812 -0.6013  0.1079  0.1455
12518W        W27987   7.541   3.604  14.188 -0.3911 -0.0149  0.0151
12519W        W27988   9.947  11.193  13.646 -0.0208 -0.2285  0.0530
12520W        W27989  17.262  13.343  10.493  0.0902  0.2310 -0.3357
12521W        W27990  13.369  10.573  13.809 -0.0454 -0.2485  0.0273
12522W        W27991   3.683   2.487   0.917  0.1916 -0.3315 -0.1040
12523W        W27992  11.198  15.153  13.968  0.0740 -0.1976  0.0529
12524W        W27993  14.530   2.604  12.679 -0.1217  0.0843 -0.4165
12525W        W27994  13.785  17.603  14.820 -0.2274  0.1809  0.0365
12526W        W27995  17.347  12.700  11.318 -0.0084  0.1511  0.1112
12527W        W27996   6.886   0.346  12.221 -0.0429  0.0205  0.0462
12528W        W27997   9.867   7.740   0.336 -0.0567 -0.0770 -0.0193
12529W        W27998   8.323  14.687  14.563 -0.0691 -0.0699  0.0749
12530W        W27999  16.483  14.470  14.954 -0.0292  0.3852  0.0545
12531W        W28000   0.862   3.348   2.845  0.1834 -0.0283  0.0178
12532W        W28001  18.410   5.221  11.350 -0.0393 -0.0320 -0.3108
12533W        W28002   5.073   3.483   1.770 -0.2241  0.1759  0.1493
12534W        W28003   1.507  13.665   4.609 -0.1054  0.2283 -0.0091
12535W        W28004  15.647  13.446  14.754 -0.2813  0.0657 -0.0057
12536W        W28005   2.024  12.754  11.781 -0.0261  0.1612 -0.0218
12537W        W28006   9.144  10.152   3.915 -0.2230 -0.2026 -0.0829
12538W        W28007   3.748   2.610  14.296 -0.1053  0.1900  0.2973
12539W        W28008  16.899  15.095   2.999 -0.3570 -0.0110 -0.2555
12540W        W28009   4.135  13.710  10.056  0.0215  0.4677  0.0722
12541W        W28010  14.200  15.107  13.568 -0.0799 -0.1378  0.4835
12542W        W28011   4.286   5.010  13.455 -0.0200 -0.2350 -0.0578
12543W        W28012  13.035   9.888  14.524  0.0697  0.1175  0.0769
12544W        W28013   2.515   1.476   1.589  0.3034 -0.0108 -0.1337
12545W        W28014  11.984  18.719  14.906  0.0492 -0.0971  0.1059
12546W        W28015   9.495   7.454  12.380 -0.2132  0.0308  0.2571
12547W        W28016   6.453  13.278   3.515 -0.3133  0.0425 -0.0720
12548W        W28017   3.085   2.668   4.899 -0.0134 -0.2841  0.1064
12549W        W28018   6.328   1.091  13.676 -0.1695 -0.4818  0.0818
12550W        W28019  11.759  12.395  14.274  0.1603  0.0735  0.0513
12551W        W28020  10.852   1.565  14.290  0.4142 -0.2279 -0.0181
12552W        W28021   9.336  10.175   1.964 -0.1647  0.1036 -0.0045
12553W        W28022  13.918   5.894   3.222  0.0558 -0.0776 -0.2811
12554W        W28023   7.691   4.199  15.024  0.1409 -0.1059 -0.2474
12555W        W28024   2.890   8.960   5.808  0.0245 -0.0082 -0.2609
12556W        W28025   1.448  12.995  13.563  0.5209 -0.0470  0.0390
12557W        W28026  17.701  16.301   0.683 -0.0778  0.1368  0.1325
12558W        W28027   8.108   0.806   0.943  0.3059  0.1771 -0.2581
12559W        W28028  10.172   7.110   4.857  0.1186 -0.1359  0.0531
12560W        W28029  12.219  12.498  13.992  0.3350  0.1190 -0.1612
12561W        W28030  19.039   6.631   0.150  0.2462  0.1197 -0.1449
12562W        W28031   7.426   1.385   0.599 -0.2731  0.0602  0.0367
12563W        W28032   6.769   8.401   4.569 -0.1777 -0.0884 -0.1160
12564W        W28033   0.448   7.643  11.005 -0.0855 -0.3881  0.0409
12565W        W28034  10.954   4.202   0.764  0.4466  0.3546 -0.0136
12566W        W28035  12.027   8.673  12.157 -0.0156 -0.1017 -0.0500
12567W        W28036  14.409  15.211   1.579 -0.0194 -0.0199  0.1840
12568W        W28037  18.543  14.463   0.573 -0.0240  0.3269 -0.4502
12569W        W28038   2.509   6.152  12.138 -0.1969  0.1268  0.2453
12570W        W28039   2.900  13.726   0.308 -0.0393 -0.0280  0.4067
12571W        W28040   7.450   2.016   4.164  0.0388 -0.0251  0.1444
12572W        W28041   8.336   3.977   3.148  0.0698  0.1591 -0.2703
12573W        W28042   6.735  18.475   4.673  0.0281 -0.1525 -0.1911
12574W        W28043   4.924   2.785   4.251 -0.0874  0.1871 -0.2242
12575W        W28044   8.952   3.448  10.586 -0.0721  0.0314 -0.1998
12576W        W28045   5.984  18.075  14.999  0.3627  0.0791  0.0065
12577W        W28046   8.309  11.045  14.380  0.1443 -0.2801  0.1176
12578W        W28047   9.849  16.536   2.174 -0.3072 -0.2635  0.0532
12579W        W28048   4.903  13.258   1.687  0.1906  0.0406  0.3626
12580W        W28049   7.589   9.672  13.318 -0.0251  0.0181 -0.2563
12581W        W28050   1.021   4.670  12.466  0.1028 -0.1660  0.0520
12582W        W28051   0.975  18.298   2.830  0.0749 -0.0357  0.0231
12583W        W28052  10.462   1.420   4.047 -0.2326 -0.1156 -0.0296
12584W        W28053   9.370   2.843  12.968  0.0005 -0.0689 -0.2243
12585W        W28054  16.048   2.418   3.696 -0.1574 -0.3309 -0.2802
12586W        W28055   6.097  10.666   2.016 -0.2571 -0.2283  0.1358
12587W        W28056   3.495   0.458  13.839 -0.1089  0.0404  0.1331
12588W        W28057  18.572  18.749  11.684 -0.2909  0.0638 -0.2252
12589W        W28058   3.316  18.124  11.772  0.1812 -0.1815  0.0495
12590W        W28059  17.626   3.548  12.360 -0.3173 -0.1881  0.0726
12591W        W28060   3.602   9.913  13.998  0.2473  0.0993  0.2220
12592W        W28061  12.246   5.429   1.651 -0.1813 -0.0847  0.0446
12593W        W28062   5.835  10.869  14.392 -0.0019 -0.0431  0.1026
12594W        W28063  17.019   3.710   9.557  0.0792 -0.2182 -0.5448
12595W        W28064  18.152   4.233   2.016  0.1447  0.0165 -0.1302
12596W        W28065  14.639   5.043   9.779  0.0396 -0.3012  0.0249
12597W        W28066   8.501  12.879   2.743  0.3595  0.0674  0.0820
12598W        W28067  12.205   7.789  14.796 -0.0774 -0.1856 -0.1937
12599W        W28068  13.357   0.814  15.055 -0.2817 -0.2057 -0.0934
12600W        W28069  14.162   7.946   4.097  0.0597 -0.3401  0.0462
12601W        W28070   4.748  12.295  14.455 -0.0390 -0.0539 -0.0106
12602W        W28071   5.477   6.634   1.461  0.2205  0.0957  0.0867
12603W        W28072  12.227   7.360   4.538 -0.2850  0.2934  0.1895
12604W        W28073   9.240   0.331   2.963  0.2868  0.0579  0.0529
12605W        W28074  13.783  12.981   1.326 -0.2298  0.0142 -0.1792
12606W        W28075  10.564  15.824  10.831  0.0273 -0.3392 -0.0973
12607W        W28076  18.111   6.256  15.267 -0.0187  0.2731 -0.0065
12608W        W28077  15.743  18.816   5.034  0.0468  0.1630  0.0801
12609W        W28078   4.087  10.807   0.177 -0.1496 -0.2007 -0.0815
12610W        W28079   2.035  14.687  12.211  0.0366  0.0789 -0.1682
12611W        W28080  16.262  12.097   2.637 -0.2186 -0.3681 -0.0468
12612W        W28081   4.129  14.018  14.426  0.1702  0.0007  0.0985
12613W        W28082   8.220   8.187  11.303 -0.0657 -0.2398  0.0340
12614W        W28083   2.838  13.289   1.515  0.0569  0.0656  0.1363
12615W        W28084   5.502   1.476   3.873  0.2079  0.1332 -0.0757
12616W        W28085   0.672  17.396  15.082  0.1712 -0.0477 -0.0508
12617W        W28086   1.021   2.810   4.496  0.0326  0.2260 -0.2633
12618W        W28087  17.889   7.607  13.066 -0.0025  0.1925  0.0210
12619W        W28088   7.101   3.853  12.094 -0.0688  0.0271  0.0032
12620W        W28089   4.832  10.957  13.734  0.3315  0.1436 -0.0034
12621W        W28090   2.297   2.451  13.451 -0.2043 -0.1175  0.1623
12622W        W28091  15.362   6.997   0.475 -0.2743 -0.0161 -0.1013
12623W        W28092  12.443   6.654  10.415 -0.0259  0.1856  0.0664
12624W        W28093  17.007  14.405  10.544  0.0205 -0.0444  0.1376
12625W        W28094   9.310  16.385   5.136 -0.1010 -0.3186  0.3277
12626W        W28095   2.398   6.016  11.067 -0.0658 -0.1782  0.3270
12627W        W28096  15.905  11.788   3.844 -0.1151  0.1108 -0.0948
12628W        W28097  14.869   4.984   3.421 -0.0190 -0.1973 -0.0135
12629W        W28098  10.486  17.687   3.768  0.2084 -0.2453  0.2620
12630W        W28099   3.027  16.142  14.831 -0.2475  0.0751 -0.0174
12631W        W28100   8.778   1.776   2.610  0.2125 -0.1768  0.3219
12632W        W28101  10.116  17.485  10.860  0.2905 -0.2959  0.0366
12633W        W28102   1.447   7.831  12.101 -0.0818  0.1083 -0.3484
12634W        W28103  13.746   0.102   3.957 -0.1656  0.2521 -0.1389
12635W        W28104   2.539  16.554  12.161  0.1536 -0.0514 -0.3190
12636W        W28105  13.473   7.460  11.733  0.2253 -0.0480 -0.2309
12637W        W28106   4.364  16.235  13.632 -0.1066 -0.0729  0.1414
12638W        W28107  11.172   0.515   3.909  0.2092  0.2987  0.2526
12639W        W28108  18.792  12.240   4.109 -0.1981 -0.2386  0.1016
12640W        W28109  13.006  17.050   2.904  0.3412  0.1090 -0.1968
12641W        W28110  14.669   8.781  14.902  0.0665  0.1303  0.3775
12642W        W28111   5.037  14.472   3.804  0.1606  0.0273  0.1628
12643W        W28112   2.874   5.004  13.800 -0.0276  0.1894  0.0702
12644W        W28113   6.633  14.201   3.903 -0.0293 -0.5446 -0.2347
12645W        W28114   6.124  16.474  11.173  0.0516 -0.1637 -0.2777
12646W        W28115   7.991  16.493  15.014  0.1117  0.1179 -0.3228
12647W        W28116   6.154   0.195  14.098  0.0366  0.1902  0.0702
12648W        W28117  12.791  17.613   4.800  0.1629  0.2473 -0.1000
12649W        W28118  16.640   6.846  13.555 -0.2138  0.0527  0.0834
12650W        W28119  16.244   2.778   1.987 -0.1657  0.0751  0.2295
12651W        W28120  12.649  10.350   3.534 -0.0648  0.0997 -0.1615
12652W        W28121  16.067  15.304   5.159 -0.0028  0.0898 -0.1358
12653W        W28122  14.092  11.495   0.831  0.5734  0.2600  0.0817
12654W        W28123   4.416  15.648   4.315 -0.0869  0.1161 -0.2173
12655W        W28124  15.157   5.763   2.321  0.0131 -0.2447 -0.0550
12656W        W28125   2.888  16.227   5.056 -0.1226  0.0479  0.1921
12657W        W28126  12.318  18.482  10.737  0.1223  0.1247 -0.0613
12658W        W28127   5.817  11.553  10.763 -0.2717 -0.0681  0.3359
12659W        W28128   7.569  11.443   2.250 -0.0208 -0.0072 -0.3059
12660W        W28129   0.284  11.150   0.989  0.0794 -0.1186 -0.1453
12661W        W28130  16.076   0.539  12.302 -0.2610 -0.0328 -0.1993
12662W        W28131   5.621  18.875   1.283  0.0511  0.3097  0.3259
12663W        W28132   4.236   8.830   2.416  0.1045  0.2917 -0.5090
12664W        W28133   9.296  17.173  11.397 -0.2741  0.2113 -0.1316
12665W        W28134  15.138   0.611  10.765  0.0497  0.3448  0.1699
12666W        W28135  15.728  16.341  15.054 -0.2168 -0.2133  0.0435
12667W        W28136  18.425   7.723   4.780 -0.3365  0.1360  0.2892
12668W        W28137   9.403  15.921  14.509  0.0225 -0.1204 -0.0771
12669W        W28138   9.532   8.070   3.697 -0.3286 -0.1191  0.0907
12670W        W28139  11.365  18.990   4.682  0.1247  0.0888 -0.1026
12671W        W28140   9.771   3.914   1.247  0.3078  0.2615 -0.0726
12672W        W28141   8.368  10.612   9.532 -0.1411 -0.0820 -0.2107
12673W        W28142  17.310   7.821  10.105  0.1023 -0.1418 -0.0892
12674W        W28143   6.705   1.324   0.572 -0.0431 -0.3953  0.1028
12675W        W28144   8.567  14.164   5.587 -0.0408  0.4374 -0.2659
12676W        W28145   1.440  11.690  13.098  0.0577 -0.2512 -0.2000
12677W        W28146   1.622  17.465   2.031  0.0036 -0.0139  0.0317
12678W        W28147  10.644   0.618   4.571  0.0090 -0.2160 -0.1061
12679W        W28148   7.585   1.582   3.906  0.1622 -0.1577  0.2588
12680W        W28149   4.937   4.733  14.198  0.3757 -0.0457 -0.0803
12681W        W28150  15.168   0.568   4.611  0.1785 -0.6054 -0.2096
12682W        W28151   0.524  18.504  12.602  0.2029 -0.2606  0.0245
12683W        W28152  15.126   9.371   4.495  0.0254  0.1548  0.1318
12684W        W28153  10.527   0.466   3.538  0.0087 -0.0558 -0.0556
12685W        W28154   5.822  18.637   0.818  0.1180  0.2089 -0.1232
12686W        W28155  12.061  17.188  12.598  0.1311  0.0292  0.1255
12687W        W28156   6.474   1.967   9.699 -0.2471 -0.3684  0.1189
12688W        W28157  15.307   4.925  12.451  0.0772 -0.3391  0.1870
12689W        W28158  15.687   2.531   0.900  0.0414 -0.1966  0.5034
12690W        W28159  10.755   4.197  13.956  0.0772 -0.3415 -0.4310
12691W        W28160  18.629   7.805  10.452  0.1779  0.4065  0.2873
12692W        W28161   1.388   3.302  13.335 -0.3401 -0.1474  0.1114
12693W        W28162  11.671  18.569   4.705 -0.0708  0.2500  0.2323
12694W        W28163   9.984   8.033   5.375 -0.0999  0.1305 -0.3225
12695W        W28164   2.398  16.873   3.686  0.0445  0.2403  0.3803
12696W        W28165  14.997  17.395  13.517 -0.0003 -0.1010 -0.3118
12697W        W28166   0.943   2.375   1.694  0.1636  0.2025 -0.0587
12698W        W28167  16.380   9.203  10.468 -0.2625  0.0620  0.0423
12699W        W28168  15.492   7.269   1.826 -0.0270  0.0993  0.2988
12700W        W28169  15.349  17.927  13.537  0.1906 -0.1923 -0.0818
12701W        W28170   6.492   8.990  15.154 -0.2018 -0.1151  0.1163
12702W        W28171   2.939   1.944  10.865  0.0827  0.0935  0.1074
12703W        W28172   8.416  14.651  12.491 -0.2522  0.1999 -0.0233
12704W        W28173  10.302   6.829  12.080 -0.1974  0.3786  0.0522
12705W        W28174  13.046   3.317   4.607 -0.0316  0.3866 -0.0125
12706W        W28175   5.216   9.280   4.948  0.2024  0.2339  0.3424
12707W        W28176   7.467  14.124   2.033 -0.2759  0.1607  0.0689
12708W        W28177  17.210   5.363  11.994  0.0918 -0.2896 -0.1285
12709W        W28178   2.726   8.829  15.077  0.0788 -0.1007  0.0164
12710W        W28179  13.672   3.059   0.028 -0.1821 -0.0234 -0.4982
12711W        W28180   5.917  11.071   3.326 -0.0727 -0.0319  0.0955
12712W        W28181  15.289   0.528  12.691  0.2540 -0.3630  0.0883
12713W        W28182  14.890   4.983  14.621 -0.0741  0.1146 -0.2548
12714W        W28183   8.219  17.214  12.641  0.0160  0.1479  0.0135
12715W        W28184  12.723  13.183   5.667 -0.0230 -0.0443  0.3602
12716W        W28185  18.199  10.243  11.492 -0.0705 -0.3587 -0.0291
12717W        W28186  10.515  18.897  13.441  0.0529  0.2083  0.0051
12718W        W28187  16.786  13.815  15.015 -0.1005 -0.1117  0.1099
12719W        W28188   5.306   8.806  13.376 -0.2253  0.0523  0.1556
12720W        W28189  13.593   8.698  13.964  0.2010 -0.0973  0.2086
12721W        W28190   0.128   9.651  12.122  0.0135  0.0214  0.1647
12722W        W28191  10.624  18.361  13.453  0.1564 -0.2922 -0.3997
12723W        W28192  13.069  10.384   2.409  0.3346 -0.0632  0.1169
12724W        W28193   2.784   3.914   1.985 -0.2516 -0.2193  0.3713
12725W        W28194  13.529   2.500   4.860 -0.2031 -0.1948  0.1225
12726W        W28195  13.266  17.743   0.359 -0.1609 -0.1226 -0.0091
12727W        W28196  12.449  11.209  11.227 -0.0030  0.0498 -0.0984
12728W        W28197  17.356   4.379   4.975  0.1887  0.0769  0.2755
12729W        W28198  12.695   6.271   3.252 -0.2497  0.1238 -0.0160
12730W        W28199   1.114  12.369   4.621  0.0876 -0.1354 -0.0740
12731W        W28200  13.376  16.903   4.621 -0.0789 -0.1146  0.1548
12732W        W28201  14.291   1.234  11.651  0.0082 -0.1076 -0.0876
12733W        W28202  12.797  12.042   0.479  0.1092 -0.1994 -0.1216
12734W        W28203   9.002  13.858   1.867  0.0612 -0.1297 -0.0322
12735W        W28204  16.019  14.093  13.552 -0.0184  0.1282 -0.3910
12736W        W28205   6.355  14.008  13.053 -0.0708 -0.1192  0.2285
12737W        W28206  14.580  15.477  14.760 -0.1014  0.1830  0.1713
12738W        W28207  16.484   7.331  13.404 -0.2734 -0.2744 -0.0872
12739W        W28208   3.675   6.190   2.151 -0.0470 -0.0600  0.1307
12740W        W28209   9.656   4.891  14.452 -0.0761 -0.0933 -0.0358
12741W        W28210   7.725   1.978  12.855 -0.1844 -0.2454 -0.1881
12742W        W28211   8.611   6.499   3.351  0.0002  0.1768 -0.0112
12743W        W28212   4.867   5.669   1.425  0.1873 -0.2827 -0.0567
12744W        W28213   2.920  11.093   2.530  0.0440 -0.1201 -0.0730
12745W        W28214  18.147  17.472   1.944 -0.0967  0.3005 -0.2484
12746W        W28215  14.796   1.069  13.711  0.2296  0.2356  0.2648
12747W        W28216  13.081   0.638   5.141 -0.0670 -0.0206  0.1499
12748W        W28217  11.268   9.377  10.570 -0.2624 -0.0789  0.3023
12749W        W28218   7.370  13.259   3.341 -0.0479 -0.2034  0.0864
12750W        W28219   9.228  13.938   2.908 -0.0177  0.1643 -0.0431
12751W        W28220  17.755   5.414   4.907  0.0991 -0.1945 -0.0814
12752W        W28221   1.102   6.201  15.123  0.1809  0.1554  0.0682
12753W        W28222   7.076  14.906  14.104 -0.2460  0.0598  0.1918
12754W        W28223   1.519  13.946  10.944 -0.0516 -0.2476 -0.0463
12755W        W28224   2.173   0.647  11.897  0.1272  0.1791  0.2098
12756W        W28225  18.475  10.434   1.281 -0.2239  0.0066  0.0718
12757W        W28226  18.330   4.803  11.093 -0.0258  0.0172  0.2479
12758W        W28227   6.001   7.230  13.210 -0.0031 -0.1062  0.0529
12759W        W28228  14.066   0.563   4.660  0.1493 -0.0383  0.0049
12760W        W28229   0.975   6.603   0.234  0.1706  0.2669  0.0048
12761W        W28230  12.597   0.686   4.218 -0.1217 -0.2690  0.1562
12762W        W28231  15.509  10.741   5.003 -0.0046  0.2367 -0.0320
12763W        W28232  18.910   4.648   4.140  0.3299  0.0481  0.0096
12764W        W28233  17.036   5.166  14.754  0.0714  0.2279  0.0202
12765W        W28234   9.790  15.527   0.455 -0.0145 -0.0175  0.0075
12766W        W28235   6.554  13.833   2.163  0.3769 -0.0090 -0.0751
12767W        W28236  15.687   4.572   2.656  0.0262  0.1128 -0.2098
12768W        W28237   8.833  11.774  15.365  0.1514  0.0486 -0.2412
12769W        W28238   6.651   5.961  10.422  0.0410 -0.0901 -0.2239
12770W        W28239   1.662   1.762  13.726  0.3374 -0.1791  0.1894
12771W        W28240   2.970   2.109   5.903  0.1777  0.1937 -0.3199
12772W        W28241   8.215   2.260   4.704  0.1255  0.0906 -0.0013
12773W        W28242  17.517  17.827  10.719 -0.0590  0.1482  0.1059
12774W        W28243   3.610   5.710  14.921 -0.0104  0.0072 -0.1348
12775W        W28244  15.321  17.325  11.417  0.2589 -0.0127 -0.2362
12776W        W28245   4.265   2.922   2.566  0.1134 -0.3770 -0.1628
12777W        W28246  12.134  14.775   0.637  0.3004 -0.2321  0.0018
12778W        W28247  16.193   7.542   3.899 -0.1110 -0.0930  0.3659
12779W        W28248  12.035   4.002   6.064 -0.1785  0.0445 -0.1052
12780W        W28249  15.584  18.929  10.681 -0.1190  0.0789  0.0200
12781W        W28250   1.470   3.929   3.141 -0.2361 -0.1638 -0.2508
12782W        W28251  15.987  16.205  12.442 -0.0637 -0.0950 -0.0486
12783W        W28252   4.779   9.964   3.611  0.0196  0.0107 -0.0079
12784W        W28253  15.131   9.590  11.901 -0.1641  0.3826 -0.4788
12785W        W28254   6.372  12.067   3.242 -0.0588  0.0607  0.2413
12786W        W28255  13.697   2.615   3.297 -0.0903 -0.0171 -0.1874
12787W        W28256  17.711   6.755  11.778 -0.0466  0.2411 -0.3079
12788W        W28257  18.799   1.221   2.316  0.1816  0.1791  0.3168
12789W        W28258  18.971  14.725  15.157 -0.0697 -0.1246  0.0438
12790W        W28259  16.133   7.232   2.138  0.1521  0.3004 -0.0268
12791W        W28260  18.707  14.672   2.567 -0.0938 -0.0546 -0.3632
12792W        W28261   1.542  15.909  14.784  0.3262 -0.0923  0.0709
12793W        W28262   6.542  17.064   0.695 -0.2093 -0.1403 -0.0683
12794W        W28263   5.887   3.460   3.789  0.1530 -0.1627 -0.1096
12795W        W28264  10.577   9.249   0.787 -0.2229 -0.2811 -0.2509
12796W        W28265   7.669   9.535  11.795 -0.0950  0.0971 -0.2762
12797W        W28266  12.633  10.034  11.985  0.2371  0.0296  0.1095
12798W        W28267   2.894  15.897  10.411  0.0579  0.0909 -0.0676
12799W        W28268   0.320  12.028   4.289 -0.1106 -0.0027 -0.1835
12800W        W28269  16.843   8.518   0.029 -0.1578 -0.0703  0.0314
12801W        W28270   5.725  16.993   4.350  0.1690 -0.3300  0.2212
12802W        W28271   3.305   6.228   3.427 -0.4918 -0.0401 -0.0569
12803W        W28272  12.845   1.866   3.857 -0.0810 -0.2311 -0.1327
12804W        W28273   6.646  13.653   0.962  0.2068 -0.0910 -0.0401
12805W        W28274  10.002   2.593   3.805 -0.2123 -0.1174 -0.1644
12806W        W28275  16.945   0.163   3.125 -0.2481 -0.0967  0.2587
12807W        W28276  18.629  13.769   2.720 -0.3727  0.2098  0.0802
12808W        W28277   2.970   5.969  10.184  0.1429 -0.4206  0.1375
12809W        W28278  11.989   0.072   2.684 -0.4533  0.0354 -0.1690
12810W        W28279   7.286   8.321   4.631 -0.0498 -0.0295 -0.1266
12811W        W28280  15.200   0.558  11.979 -0.0269 -0.1918 -0.0560
12812W        W28281   1.695  13.777  13.816  0.0746  0.1514  0.1166
12813W        W28282  10.788   4.792  12.248  0.2099  0.0310 -0.2568
12814W        W28283   9.769  12.569   1.332 -0.1076  0.1990  0.1462
12815W        W28284   9.043  12.465   3.543 -0.0583 -0.0852  0.1438
12816W        W28285   8.251  12.825   2.234 -0.0391  0.0732 -0.2386
12817W        W28286   9.955  15.591   5.691 -0.2302  0.1333 -0.0678
12818W        W28287  18.254  13.428   2.848  0.2974 -0.0437 -0.1378
12819W        W28288  10.092   1.819  12.581 -0.2008 -0.2097  0.0708
12820W        W28289   3.832   1.561   5.486 -0.0935 -0.0590 -0.1449
12821W        W28290  14.518   3.990   0.081  0.0182 -0.1485  0.0160
12822W        W28291  17.288  10.782   3.878  0.3065 -0.0719  0.1106
12823W        W28292  13.166  12.669   1.256  0.2507  0.1268  0.3069
12824W        W28293  17.163  13.388   3.016 -0.0880 -0.0710 -0.2327
12825W        W28294  17.327   6.986   3.824  0.1116 -0.0224  0.0585
12826W        W28295   7.606  15.465   3.560 -0.1724 -0.0179 -0.0596
12827W        W28296  16.375  13.698  15.324  0.3710 -0.3134 -0.2606
12828W        W28297   6.528   5.873  11.164 -0.7103 -0.2568 -0.0365
12829W        W28298   4.271   8.208   3.786 -0.0261  0.0161  0.2113
12830W        W28299  11.942   2.383  12.521  0.1885  0.1652  0.0866
12831W        W28300  10.632   4.853  12.748  0.1089 -0.0237  0.1751
12832W        W28301  10.272   9.317   2.492  0.0367 -0.0900 -0.0653
12833W        W28302  15.054  16.416  13.177  0.0241 -0.3914 -0.3447
12834W        W28303  18.875  16.816   1.221 -0.0100 -0.1800  0.2900
12835W        W28304  13.594  17.054  14.951  0.1810  0.1302  0.3343
12836W        W28305  17.728   5.926  14.375  0.0330  0.3066 -0.0159
12837W        W28306   8.507   9.409  11.120  0.0147 -0.0216 -0.4142
12838W        W28307  12.057   6.673   3.510  0.2068 -0.2997  0.0498
12839W        W28308   8.777   1.055  10.945 -0.1643  0.0667 -0.2256
12840W        W28309  13.107  14.145   3.208 -0.2379 -0.1705  0.2573
12841W        W28310   7.858  13.446  12.909  0.3086 -0.0318  0.0957
12842W        W28311   4.020   7.271  11.324  0.0440 -0.0296 -0.2799
12843W        W28312  18.141   4.394  13.985 -0.2538  0.0466  0.0378
12844W        W28313  16.709  14.819   2.654 -0.2128  0.2317 -0.1606
12845W        W28314  10.507  10.559  12.671 -0.1576  0.0742  0.0428
12846W        W28315   9.183  16.636   3.751 -0.2454  0.0564  0.1258
12847W        W28316  10.830   7.142   2.557 -0.0514  0.2706  0.0198
12848W        W28317   9.746   5.159  13.588 -0.2011  0.4105  0.1435
12849W        W28318   7.243  16.787  14.948 -0.0347  0.1885  0.2636
12850W        W28319   0.407   0.892  13.500  0.1689  0.2425 -0.0306
12851W        W28320  12.599  16.013  12.475 -0.2454  0.3435 -0.0301
12852W        W28321  15.072   8.928  14.374 -0.1047 -0.2725 -0.4165
12853W        W28322  18.674  17.302   1.181  0.3706  0.0474  0.1040
12854W        W28323   6.683  13.309  13.256  0.0059 -0.0180 -0.0314
12855W        W28324  11.460   6.199  15.234  0.2413  0.3301 -0.0835
12856W        W28325  16.378  15.910   0.461  0.1577  0.3972 -0.1007
12857W        W28326  18.005   1.636  11.942 -0.0836  0.0411  0.0165
12858W        W28327   0.141   0.539   2.774  0.0512 -0.1951  0.1380
12859W        W28328  18.163  11.237   3.682  0.0063 -0.2200 -0.0418
12860W        W28329   9.824  14.350  11.557 -0.0698 -0.2963  0.2509
12861W        W28330  16.569   3.761   1.881  0.4668 -0.0008 -0.2062
12862W        W28331  14.059   6.063   1.143 -0.1284 -0.3927  0.1114
12863W        W28332   4.669  15.273   5.854 -0.0227  0.3135 -0.1412
12864W        W28333   5.861   7.427   2.507  0.0874  0.0019  0.0417
12865W        W28334   0.029   6.896   9.481  0.0722 -0.3627  0.1439
12866W        W28335   2.316  18.007  12.187 -0.3171  0.3463 -0.0467
12867W        W28336  14.761   9.717   0.005 -0.0417  0.0686 -0.2503
12868W        W28337  11.821   1.724   2.958 -0.4315 -0.0233 -0.0198
12869W        W28338   8.543  16.504  11.998  0.1696 -0.0480  0.2364
12870W        W28339   5.075  12.621   3.365  0.0829 -0.1785  0.2930
12871W        W28340   2.069   5.364   3.228  0.2117  0.2729  0.0585
12872W        W28341  14.060   4.681  14.817 -0.0752 -0.0173 -0.0899
12873W        W28342  12.011  15.875  11.643 -0.2590 -0.3277  0.3782
12874W        W28343   0.589   0.048  11.117  0.1605 -0.0478  0.2688
12875W        W28344  17.183   9.744  12.382 -0.4231  0.0124 -0.1602
12876W        W28345  12.861   3.129  13.864  0.0530 -0.1021  0.0217
12877W        W28346  13.787  12.292  11.764  0.1095 -0.3015 -0.0652
12878W        W28347  18.199  19.018  11.492 -0.3151  0.1540 -0.0453
12879W        W28348  11.942   5.604   3.019 -0.0058 -0.0933  0.1252
12880W        W28349   6.961   4.485   0.070 -0.1271 -0.0703 -0.0188
12881W        W28350  18.735   6.176  14.217 -0.4388  0.0378  0.0822
12882W        W28351   2.871   8.686  10.689 -0.1544 -0.1299 -0.1138
12883W        W28352   8.450  13.462   1.864  0.1389 -0.3122  0.1252
12884W        W28353   9.460   0.523   5.945  0.0181 -0.1230 -0.3929
12885W        W28354   8.445   0.996   1.885  0.1024  0.0139 -0.3447
12886W        W28355   8.992  12.828   4.931  0.1789 -0.1632 -0.2622
12887W        W28356   2.195   8.792  12.706  0.1848  0.3561 -0.1050
12888W        W28357   3.224  16.280   3.630 -0.0591  0.1346 -0.3432
12889W        W28358   9.027   0.825   0.028  0.0924 -0.3476  0.3087
12890W        W28359   6.658  18.461   0.180 -0.0109  0.0474  0.0744
12891W        W28360   6.910   4.544   3.858 -0.2617  0.0392 -0.3341
12892W        W28361   0.961   1.938  11.290 -0.0519 -0.0696 -0.3386
12893W        W28362  13.068  18.096   0.771 -0.1287 -0.0862  0.1782
12894W        W28363  17.522   9.952  12.707  0.1375 -0.0315 -0.0297
12895W        W28364  10.052   5.098   1.179 -0.0883  0.2222 -0.6304
12896W        W28365   8.461   5.269   4.446 -0.1997 -0.2177  0.2131
12897W        W28366   5.692   4.742  13.508 -0.0227  0.3593  0.0298
12898W        W28367  17.841  17.606  10.295  0.2357  0.2582  0.1567
12899W        W28368   0.408  15.569   3.586  0.2074 -0.1632  0.2692
12900W        W28369   3.224   1.333  10.640 -0.0809 -0.0613  0.1700
12901W        W28370  11.389  17.807   3.512 -0.1221 -0.0769  0.3194
12902W        W28371  11.994   3.207  13.708 -0.2281 -0.0522 -0.0290
12903W        W28372  17.660  11.612  11.350  0.0438  0.1328  0.3025
12904W        W28373  10.606   2.123  15.067 -0.2199  0.4029  0.0779
12905W        W28374  15.222  15.251   9.931  0.0336  0.3719 -0.2449
12906W        W28375  16.074  11.510  12.318 -0.1622  0.0155 -0.2558
12907W        W28376   6.932   4.798  10.912 -0.0946  0.3320  0.2744
12908W        W28377  13.025   4.696  11.468 -0.0208 -0.0471 -0.2505
12909W        W28378   7.466  12.535  11.913 -0.4325 -0.2422 -0.6050
12910W        W28379   7.327  17.799  13.520  0.0148 -0.3085 -0.1905
12911W        W28380  12.901   1.004  13.176  0.0012 -0.4483 -0.0150
12912W        W28381   9.840   0.101   2.579 -0.0735 -0.4070 -0.3338
12913W        W28382  10.706  10.176   5.449 -0.1077  0.1879  0.2364
12914W        W28383   6.241   7.822   0.471  0.0411 -0.0808  0.2842
12915W        W28384   2.698  12.830   1.332  0.1268 -0.0989  0.0935
12916W        W28385   9.341   5.943   4.070  0.1994  0.1874  0.1195
12917W        W28386   2.258  10.167   2.266 -0.0690 -0.0283  0.0982
12918W        W28387   7.452   6.275  14.389 -0.0338  0.2436  0.1489
12919W        W28388  13.801   4.629   3.884  0.1196  0.1091  0.0617
12920W        W28389   7.454   2.226  13.392 -0.1003 -0.2731 -0.1044
12921W        W28390  15.370  11.974   4.794  0.0329 -0.0227  0.3289
12922W        W28391   1.890  12.725   4.716 -0.1864  0.0197 -0.0261
12923W        W28392  13.897  14.335   0.849  0.2905 -0.0936 -0.0742
12924W        W28393  17.082   2.887   4.600 -0.2267  0.3928  0.1251
12925W        W28394  19.038  17.798  12.403  0.0537 -0.0516 -0.1885
12926W        W28395  16.911   1.532   3.860  0.2270 -0.1830  0.3712
12927W        W28396   4.948   0.648  12.329 -0.3771  0.0761 -0.1191
12928W        W28397  18.154  17.452   2.460 -0.2395 -0.2310  0.0318
12929W        W28398  16.714   2.433  13.607  0.1609 -0.0453 -0.0341
12930W        W28399  18.844   4.539  11.908 -0.0546  0.1193  0.2680
12931W        W28400   4.842  16.526  10.189 -0.1620  0.2847 -0.1789
12932W        W28401   9.896  15.984  12.258 -0.0483 -0.3390 -0.1474
12933W        W28402   5.517   2.717   1.325 -0.0757  0.2918 -0.4417
12934W        W28403  10.923  12.036   0.228  0.1700  0.0648  0.1129
12935W        W28404  14.766  18.440  14.890 -0.0159  0.0563  0.0029
12936W        W28405  16.516  18.990  12.787 -0.0500  0.0311  0.1671
12937W        W28406   0.674   9.004   1.622 -0.2408  0.0947  0.1786
12938W        W28407   8.558  16.659  13.009  0.1264 -0.1314  0.1914
12939W        W28408   4.621  16.289   2.758  0.3989  0.1178 -0.1118
12940W        W28409  17.783  10.172  11.824  0.0512  0.1256 -0.3075
12941W        W28410   8.685  13.227   9.930  0.0292  0.1650 -0.1859
12942W        W28411   6.367  14.602   3.657  0.0854  0.3231 -0.0683
12943W        W28412  18.589  17.165   4.764  0.4819 -0.1531 -0.0247
12944W        W28413   6.002   1.236  12.898  0.0350 -0.5829 -0.5169
12945W        W28414   9.136  12.811   0.668  0.2132  0.0012 -0.0900
12946W        W28415  16.432  10.985  12.112 -0.0246  0.0564  0.1063
12947W        W28416   0.011  18.665   4.609 -0.0830  0.1336 -0.1436
12948W        W28417   0.778  17.800  14.252  0.1598  0.0400 -0.0418
12949W        W28418  10.141  15.195  11.091  0.1286  0.0650 -0.4973
12950W        W28419   9.620   1.589   1.379 -0.3035 -0.1254 -0.1523
12951W        W28420   5.045  14.702   2.221 -0.2033  0.1598 -0.0362
12952W        W28421  16.560  11.614   2.809  0.2272  0.2832 -0.1493
12953W        W28422   5.409  13.250   1.768 -0.4259 -0.1725 -0.0220
12954W        W28423  10.781  18.515   1.465  0.0300 -0.1032  0.1261
12955W        W28424   6.942   7.392   3.771  0.0730  0.1533 -0.1465
12956W        W28425   2.171  13.408   2.756 -0.1193 -0.0895  0.2660
12957W        W28426  10.945   2.706   0.886 -0.1736  0.0199 -0.2486
12958W        W28427   2.857  18.423   3.945 -0.2096  0.0990  0.2009
12959W        W28428  13.456  10.982   1.349  0.2346  0.3112 -0.0689
12960W        W28429  12.875   8.973  14.466 -0.5161 -0.4216  0.1344
12961W        W28430   9.900  18.893  10.600 -0.0428  0.0906 -0.0826
12962W        W28431   0.501   4.655  10.873 -0.0909 -0.1531  0.4291
12963W        W28432   5.435   9.434   2.054 -0.1243 -0.0872  0.2214
12964W        W28433   8.946   4.546  12.897  0.0614  0.3475  0.2250
12965W        W28434  18.333  15.840  13.529 -0.0768  0.2545 -0.0301
12966W        W28435  16.341  17.928  11.325 -0.0491  0.1340 -0.2650
12967W        W28436  15.313  12.837   0.916  0.0542 -0.1356  0.0898
12968W        W28437  18.808  16.981  12.205 -0.1882  0.3057 -0.0033
12969W        W28438  17.705  14.395  11.610  0.0638  0.0248  0.1761
12970W        W28439  18.951   4.420   2.893  0.1129  0.2797 -0.2464
12971W        W28440  16.720   9.625  10.545  0.2254 -0.0536  0.1977
12972W        W28441  12.582   8.048   0.291 -0.1482 -0.0605 -0.0279
12973W        W28442   9.249   9.304  11.037 -0.0439 -0.1178 -0.0937
12974W        W28443   7.244   2.658   6.280  0.4585  0.0367 -0.1265
12975W        W28444  10.766  18.870  11.721 -0.1542  0.2440 -0.0047
12976W        W28445  15.048  11.389   2.979 -0.0852  0.1913 -0.0965
12977W        W28446   2.743  11.979   0.867 -0.2865 -0.1255 -0.1712
12978W        W28447  16.706  11.287   0.404  0.1772 -0.0886 -0.2852
12979W        W28448   8.154  12.024   3.907  0.2537 -0.0625  0.0970
12980W        W28449   7.936  11.630  13.365  0.1312 -0.1681 -0.1198
12981W        W28450   4.133  12.162   4.413 -0.0562 -0.1933 -0.0009
12982W        W28451   6.740   6.265   1.457  0.2455  0.0885  0.1370
12983W        W28452  15.286  11.348  11.793 -0.0747  0.0415  0.4286
12984W        W28453   0.624  16.048  11.462 -0.2402  0.4697  0.1433
12985W        W28454   0.768   0.718  11.919 -0.0955 -0.0350  0.1272
12986W        W28455   6.378   4.216  12.405  0.2021  0.0465 -0.1420
12987W        W28456   2.073   2.150  14.618 -0.0752  0.1076 -0.0126
12988W        W28457  14.674  16.054  12.578  0.3550  0.0198  0.6044
12989W        W28458  12.059   4.393   4.871  0.1541 -0.0926  0.3781
12990W        W28459  18.985   8.509   3.348  0.2951  0.1254  0.2212
12991W        W28460  18.610  12.687   3.884  0.0967  0.4136 -0.0643
12992W        W28461   3.467   6.203   3.983 -0.0792  0.2861  0.4885
12993W        W28462  18.995   1.746   2.101  0.1079  0.0325 -0.0451
12994W        W28463  18.904   8.251   9.737 -0.0064  0.2428 -0.0897
12995W        W28464  14.586  12.374   0.741 -0.1241 -0.2714  0.0041
12996W        W28465   0.973  17.139  11.894  0.1311  0.1946  0.2190
12997W        W28466   3.195  12.822   1.894 -0.1017 -0.3272  0.1056
12998W        W28467   3.839  15.630   0.236  0.1755  0.0419 -0.2434
12999W        W28468   4.671  16.289  13.169  0.1615 -0.0245 -0.1792
13000W        W28469   1.120  16.048  11.664  0.3386  0.1565 -0.1100
13001W        W28470   4.454   3.132   2.127 -0.0766 -0.0949 -0.2817
13002W        W28471   8.416   5.463   0.107 -0.2941  0.1641 -0.1204
13003W        W28472  16.488   3.504  12.641 -0.0055 -0.0203 -0.0212
13004W        W28473  13.762   4.114  12.170 -0.0644  0.3747  0.3541
13005W        W28474   1.170   7.748   5.448  0.0388  0.1777  0.2625
13006W        W28475   4.532  16.506  12.717  0.3220  0.1382 -0.0146
13007W        W28476  11.932   1.482   0.291  0.2005 -0.2221 -0.0061
13008W        W28477   5.579  11.479   3.194  0.1119 -0.1130 -0.2535
13009W        W28478  11.649   0.878  11.576  0.0198  0.0099 -0.0315
13010W        W28479  18.924   7.603   1.970 -0.0380  0.0546  0.0754
13011W        W28480  12.206   7.277  14.743 -0.1720 -0.3408  0.4392
13012W        W28481  16.105  16.361   0.125 -0.0693 -0.0861 -0.3693
13013W        W28482  11.689   8.968   3.242 -0.3398 -0.0457  0.1127
13014W        W28483   8.461   4.862   3.070  0.1018  0.1606 -0.2378
13015W        W28484  16.953  18.350   2.359  0.4248  0.3114 -0.0003
13016W        W28485   2.991  15.614   1.828 -0.0802 -0.0016 -0.0297
13017W        W28486   6.622  14.390  13.280 -0.0715 -0.1651 -0.1093
13018W        W28487   9.483   3.808   0.789  0.1315 -0.1763  0.2221
13019W        W28488  11.145   4.713   2.920  0.3013 -0.2337  0.0802
13020W        W28489   2.475  13.168   3.155  0.0156  0.1635  0.1082
13021W        W28490  18.823  10.814  13.801 -0.4086  0.2957  0.2284
13022W        W28491  11.081  11.914  10.363  0.1107  0.1144 -0.2718
13023W        W28492  11.897  12.419  13.225 -0.0651 -0.2845 -0.0461
13024W        W28493  18.142  10.741  12.764  0.3656 -0.1308 -0.4579
13025W        W28494   7.584   6.182   4.045  0.3114 -0.1219  0.0233
13026W        W28495   9.066   8.837  12.571  0.1976 -0.0660 -0.0345
13027W        W28496   6.011   9.227   2.153  0.0539 -0.0221  0.1568
13028W        W28497  16.666  14.207   3.693 -0.0612  0.0583 -0.1756
13029W        W28498  17.063  17.636   3.109 -0.4129  0.0879  0.2569
13030W        W28499   4.927  17.662  10.616  0.1275 -0.0024 -0.1062
13031W        W28500   8.070  13.770   0.492  0.1780 -0.1053  0.0918
13032W        W28501   6.575  18.912   4.777 -0.1670  0.0143 -0.1265
13033W        W28502  12.488   9.671   1.354  0.1470 -0.0441  0.1653
13034W        W28503   9.452   0.472   0.737 -0.1950 -0.1364 -0.3262
13035W        W28504   2.061   1.877   1.327 -0.1150 -0.1056  0.4497
13036W        W28505   0.054  16.502   3.964 -0.1229  0.0451  0.0070
13037W        W28506   2.592   4.848   4.781 -0.3630 -0.1929 -0.3500
13038W        W28507  13.992   2.056  11.324 -0.3335 -0.1404 -0.1812
13039W        W28508   3.641   3.980  12.633  0.0682 -0.1484  0.2465
13040W        W28509   2.994  17.139   1.999 -0.0273  0.1619 -0.0336
13041W        W28510   5.652  12.420   4.086 -0.1060 -0.2083  0.2116
13042W        W28511   6.451  13.494   4.214  0.1487  0.0307  0.0293
13043W        W28512   8.851  17.839   3.720 -0.4002 -0.2859  0.0067
13044W        W28513   0.261   4.307   0.425 -0.0872  0.4462  0.1070
13045W        W28514  16.151   1.003   0.782  0.2371 -0.3895 -0.0255
13046W        W28515  11.180  13.308  10.090 -0.1809 -0.0491  0.0798
13047W        W28516   4.529   7.686   0.186  0.0204  0.2236 -0.1512
13048W        W28517  13.646   8.567  14.990  0.0016  0.2067  0.2339
13049W        W28518   8.908  13.445   2.094  0.1428  0.0556 -0.1267
13050W        W28519  14.087   1.501   4.314 -0.2720  0.0541  0.2042
13051W        W28520   3.643   3.548  11.038  0.1357 -0.2628  0.1237
13052W        W28521   5.322   5.968   1.697 -0.1299 -0.1671  0.2589
13053W        W28522   0.763   3.157   4.125  0.0452 -0.0078 -0.1977
13054W        W28523   0.970  10.560  10.675 -0.3266  0.1125 -0.0276
13055W        W28524   4.155  17.406  12.973  0.0779  0.3072  0.2549
13056W        W28525  14.710   5.831   2.101  0.1228 -0.5151 -0.0188
13057W        W28526  10.719  13.169   9.981 -0.2892 -0.2313  0.1550
13058W        W28527  17.419  10.957  12.706  0.2249  0.0379  0.4105
13059W        W28528   2.678   2.444  10.898 -0.1505  0.1813 -0.1747
13060W        W28529  16.294   9.999   6.090 -0.2492 -0.0573 -0.0144
13061W        W28530   9.561  17.855  12.219 -0.1495 -0.0346 -0.0770
13062W        W28531  18.477   4.090   2.921  0.1293 -0.0009  0.2248
13063W        W28532   1.386   2.192   5.342 -0.1518 -0.1877  0.0759
13064W        W28533  12.279  12.415  10.702 -0.0055 -0.0160 -0.0099
13065W        W28534  14.884   8.195  14.058  0.1041  0.0226  0.2346
13066W        W28535   3.771  17.814  12.684  0.1525 -0.2261  0.1806
13067W        W28536   5.933   8.998   3.635  0.1706  0.2572 -0.0392
13068W        W28537  12.087   3.584   1.616 -0.1339  0.1564 -0.2243
13069W        W28538   2.748   1.389  14.255 -0.2110  0.0941  0.2602
13070W        W28539  15.719   5.461   1.169 -0.0040  0.0073  0.1019
13071W        W28540   1.863  12.408   3.316  0.0818  0.1925  0.0594
13072W        W28541  10.235  12.771   2.933  0.0753 -0.1211 -0.1545
13073W        W28542  16.478  10.594   5.042  0.3417  0.0169 -0.1071
13074W        W28543   6.445  16.480   5.051  0.0938  0.1603 -0.0559
13075W        W28544   6.360  15.163  14.017 -0.0223 -0.0576  0.0011
13076W        W28545  10.544   4.100   3.753 -0.2889  0.0661  0.0510
13077W        W28546   6.655  14.712   3.185 -0.1099 -0.1177  0.2214
13078W        W28547  11.816  16.776   4.822  0.2818  0.0785 -0.0079
13079W        W28548  10.624   4.225   5.690  0.5121  0.0610  0.3057
13080W        W28549   4.441   0.003   2.629 -0.0625  0.2133 -0.1516
13081W        W28550  13.489   0.540  13.245  0.4781  0.2034 -0.0931
13082W        W28551   8.688  15.074   0.670 -0.0543 -0.1054 -0.4136
13083W        W28552  16.317   8.422   3.466  0.0978 -0.0265 -0.1513
13084W        W28553  13.503  14.009   2.820  0.0910 -0.1575  0.0640
13085W        W28554   4.551   6.095   2.135  0.5145  0.1347  0.0519
13086W        W28555   8.458  17.615   5.429 -0.1534 -0.1091  0.0884
13087W        W28556  13.551   2.782  14.471  0.4487  0.1155 -0.0204
13088W        W28557   3.977   3.953  14.566  0.1951  0.3407  0.1573
13089W        W28558   2.829  15.053  11.652 -0.1731 -0.2292 -0.1448
13090W        W28559   2.863   0.719   9.849  0.1186 -0.0697 -0.1126
13091W        W28560  16.695  10.964   2.826  0.1302 -0.1747 -0.1571
13092W        W28561   3.929  16.440   0.356  0.2230 -0.1695 -0.0449
13093W        W28562   7.864  15.463  11.501  0.0757  0.0958 -0.0236
13094W        W28563  13.518   5.683   1.452  0.2716 -0.2286 -0.1295
13095W        W28564  10.784   2.436   4.145 -0.3177  0.0920 -0.1359
13096W        W28565  18.401  11.313   1.211  0.0319 -0.2923  0.2506
13097W        W28566   9.450   1.861  10.773 -0.0764 -0.0459 -0.0692
13098W        W28567   7.621   7.759  14.246 -0.0365  0.0775  0.0607
13099W        W28568  10.950  12.159   0.790  0.2678 -0.1562  0.0767
13100W        W28569   8.457  13.970   4.477 -0.0463 -0.4392 -0.1364
13101W        W28570   9.254  12.836  13.391  0.3338  0.1261  0.2613
13102W        W28571   2.606  15.315  12.618  0.4177 -0.1014  0.1141
13103W        W28572   9.626  18.277  15.282 -0.2902  0.0189  0.1281
13104W        W28573   1.703   4.079   1.306 -0.1657 -0.0919 -0.1901
13105W        W28574  14.821   1.452  13.990  0.2999  0.0433  0.3322
13106W        W28575   2.125   7.391   3.396  0.1178  0.0005 -0.0495
13107W        W28576   7.725  10.461  11.617  0.2075 -0.1797 -0.1262
13108W        W28577  13.762  18.188   3.394 -0.0516  0.1425 -0.2451
13109W        W28578   3.094   0.798   2.417 -0.0170  0.0986  0.3433
13110W        W28579   0.542  15.209   4.134 -0.0832 -0.0636  0.0586
13111W        W28580  14.618  10.368   1.697  0.0779 -0.2565  0.0059
13112W        W28581  13.007   5.356   4.486  0.0664 -0.1593  0.0756
13113W        W28582   4.906   8.554  13.499  0.0908  0.3875  0.2463
13114W        W28583   7.166   7.380  14.566  0.2937  0.2394  0.2063
13115W        W28584   2.908  16.923   0.179  0.0140 -0.2855  0.3208
13116W        W28585   9.884   5.586  11.727  0.1616  0.0148  0.1066
13117W        W28586  10.689   0.114   1.592  0.0266 -0.2230 -0.2274
13118W        W28587  12.703   2.219   4.727  0.1820 -0.1286  0.0604
13119W        W28588   8.409  17.614  11.732  0.3022  0.0909  0.1240
13120W        W28589   4.120   7.163   4.675 -0.1818  0.1537  0.1279
13121W        W28590   3.624  16.145   4.662  0.1644 -0.2076 -0.2536
13122W        W28591   3.335  15.739  14.676  0.2217  0.3910  0.0281
13123W        W28592  12.215   2.405  15.148  0.2574  0.0609 -0.1659
13124W        W28593   4.566  17.387   1.235 -0.1387  0.2847  0.0612
13125W        W28594   6.369  17.817  14.809  0.1203  0.1701  0.1591
13126W        W28595   6.783   7.441  10.609 -0.1258 -0.2087 -0.5710
13127W        W28596   9.797   3.103   1.406  0.1577 -0.0118  0.0220
13128W        W28597   9.847  16.589   5.094  0.0358  0.0107  0.2135
13129W        W28598   6.536   2.236  15.030  0.1246 -0.1317  0.0415
13130W        W28599   8.147   5.203   5.828  0.0126  0.1843  0.1505
13131W        W28600  18.549  16.716   1.731  0.0321  0.0982 -0.2419
13132W        W28601   6.901   6.502  10.732 -0.1586 -0.4172  0.0712
13133W        W28602   0.716  11.343   0.914  0.0765  0.1182  0.2182
13134W        W28603   1.172   1.407  14.610  0.0996 -0.0088  0.1467
13135W        W28604  15.949   3.537   0.918 -0.2535  0.0499  0.3142
13136W        W28605   3.349   4.554   2.684  0.0033  0.0064  0.3135
13137W        W28606  17.128  14.893   4.406 -0.1087  0.1649  0.2673
13138W        W28607   3.855   0.482  10.504  0.1241  0.1484  0.1244
13139W        W28608   4.569   0.588   4.411 -0.1505 -0.1745 -0.0730
13140W        W28609   9.597   4.781   0.513  0.1149  0.0069 -0.2055
13141W        W28610  15.246  11.284  13.967  0.2222  0.0403  0.2026
13142W        W28611   7.558  16.400   3.217 -0.0724 -0.1721  0.2299
13143W        W28612  15.190   9.302   3.116 -0.0612 -0.1142  0.4810
13144W        W28613   4.496   4.149   0.011  0.1691 -0.1597 -0.0534
13145W        W28614  17.391   9.995   3.536 -0.0323 -0.1324 -0.0538
13146W        W28615  12.505   3.536   5.057 -0.1156 -0.0901 -0.1494
13147W        W28616  17.856   2.063  12.710  0.0118 -0.0506 -0.2837
13148W        W28617   8.850  12.270  11.651 -0.3795 -0.0584 -0.2244
13149W        W28618   6.856  14.551   1.498  0.2113 -0.0878  0.0004
13150W        W28619   8.292   3.742   4.639  0.0815 -0.1336 -0.0017
13151W        W28620  18.018   0.480   0.411 -0.1939 -0.0457 -0.0451
13152W        W28621   1.532  17.531  10.889 -0.2100 -0.0657  0.0123
13153W        W28622  15.497  18.547   5.659  0.1918  0.1483  0.2410
13154W        W28623   8.450  17.975  12.050  0.0860 -0.0467  0.5086
13155W        W28624   0.126  12.942  11.657  0.0349  0.1114 -0.1078
13156W        W28625  10.193   0.404  12.956 -0.0675 -0.1866 -0.1146
13157W        W28626   9.928   9.095  13.182  0.1399  0.2789  0.0289
13158W        W28627   1.670   8.618   3.511 -0.2396 -0.0149 -0.0885
13159W        W28628  14.276   6.962  12.085  0.1602 -0.4588 -0.2605
13160W        W28629  18.052   9.529   4.378  0.0826 -0.3097 -0.0161
13161W        W28630   4.872  12.090  13.281 -0.0405 -0.0523 -0.0719
13162W        W28631  12.102   5.914  10.262  0.0546 -0.1618  0.1006
13163W        W28632   1.421  17.813  12.507 -0.0798 -0.0604 -0.3089
13164W        W28633   9.670  12.101  11.105  0.0710  0.0939 -0.1606
13165W        W28634  12.223   7.229   1.360 -0.1226  0.1373  0.0946
13166W        W28635  11.825   8.384   5.231  0.0208  0.3442 -0.0359
13167W        W28636   8.058   2.559   1.839  0.0925  0.4207  0.1011
13168W        W28637  13.823   3.695   3.565 -0.2029  0.1477  0.0274
13169W        W28638   3.688  14.789   5.103 -0.0443 -0.3573 -0.0171
13170W        W28639  13.044   1.055  14.725 -0.0151  0.2699 -0.4070
13171W        W28640  13.920  11.815  12.977 -0.2942 -0.0334 -0.3358
13172W        W28641  12.858   8.582   1.911 -0.0909 -0.2247  0.0384
13173W        W28642  16.910  18.542  14.587 -0.2022 -0.1058 -0.2140
13174W        W28643  11.535   2.411   1.744  0.1457 -0.0634  0.0206
13175W        W28644   7.324   6.538   3.124 -0.1334  0.2643 -0.0490
13176W        W28645   3.313  15.700  12.035  0.0272 -0.1200 -0.0693
13177W        W28646  11.001   7.475   5.089 -0.1264 -0.1174 -0.2372
13178W        W28647  12.970   0.079   1.644 -0.0800  0.0820  0.0490
13179W        W28648  16.731  11.854   1.189  0.0526 -0.1522 -0.0304
13180W        W28649  17.240  10.801   1.984  0.2781  0.1312 -0.3006
13181W        W28650  11.868   5.950   3.719 -0.0779  0.1346  0.3100
13182W        W28651   2.439  12.673   3.286  0.0349  0.2605  0.3600
13183W        W28652   2.344   0.744  11.033  0.1064 -0.0369 -0.0790
13184W        W28653  10.201   5.207  12.861 -0.1090  0.1312 -0.0077
13185W        W28654   0.397   2.587  14.239 -0.1056 -0.0323  0.2316
13186W        W28655  13.074  18.390  12.233  0.2038 -0.0366 -0.1265
13187W        W28656  16.461   9.714  13.208 -0.1074 -0.1448 -0.3770
13188W        W28657   8.764  10.459   3.831  0.0994  0.0943 -0.1082
13189W        W28658   4.771   1.771   4.241 -0.0875  0.3399 -0.0381
13190W        W28659   8.482  13.670   0.882 -0.3388  0.0719  0.1886
13191W        W28660  18.967   1.338  12.174 -0.2519  0.0511  0.2156
13192W        W28661  12.354   2.061   1.248  0.0945 -0.0964 -0.0398
13193W        W28662   9.557   9.937  13.371 -0.1130  0.0043  0.0144
13194W        W28663   5.000  11.147  12.288 -0.0609 -0.2135 -0.3735
13195W        W28664  14.253   7.894   0.990 -0.2956  0.0696 -0.0443
13196W        W28665  10.918  11.344  11.562  0.1747 -0.1331  0.1439
13197W        W28666   7.457   2.203  11.051  0.1951 -0.2361 -0.0306
13198W        W28667   7.561   4.403   5.805  0.4406  0.2855  0.1690
13199W        W28668   5.519   1.121   2.424 -0.0872 -0.2897  0.1354
13200W        W28669  16.411  18.977   2.319  0.2684  0.2182  0.2254
13201W        W28670   1.005   3.180  14.188 -0.1430 -0.0359 -0.1130
13202W        W28671  17.534   5.223   3.950 -0.0911  0.0330 -0.0886
13203W        W28672  12.737   0.543   1.667 -0.1977  0.1560  0.1807
13204W        W28673  17.564  12.087   3.261 -0.2595  0.2375 -0.1483
13205W        W28674  13.866  16.247  14.304 -0.2414 -0.1363 -0.0706
13206W        W28675  15.350   2.228  13.601 -0.1232  0.0245  0.1899
13207W        W28676  13.320  11.167  11.342  0.1308 -0.0482 -0.1470
13208W        W28677   1.240   8.695  13.117 -0.2133  0.0042 -0.4822
13209W        W28678  14.036  18.528   2.107 -0.0120  0.1691 -0.2610
13210W        W28679   8.546   2.413  12.691  0.1389 -0.1297 -0.0232
13211W        W28680   0.350   8.367  10.629  0.0991  0.0485 -0.1494
13212W        W28681   7.000   6.988  10.947 -0.3156  0.0624  0.1088
13213W        W28682   0.204   1.320  13.644  0.3797 -0.1511 -0.0268
13214W        W28683   1.892  12.208   2.892  0.2009  0.2737  0.0063
13215W        W28684   6.097  15.074   3.339 -0.0307  0.2078  0.0037
13216W        W28685   3.744  17.377   1.486  0.2226  0.2162  0.3219
13217W        W28686   4.985  13.091   1.031 -0.0143  0.2777 -0.1157
13218W        W28687   3.557  10.317  10.759  0.2113  0.2740 -0.2497
13219W        W28688  14.254   9.350  13.874  0.0227  0.0666  0.1847
13220W        W28689  10.978  12.810   4.358 -0.1366  0.0178 -0.1103
13221W        W28690   8.344  17.056   3.411 -0.0912 -0.0859 -0.6218
13222W        W28691   2.806  10.179   2.519  0.1497  0.1826 -0.3120
13223W        W28692   5.104   9.117  11.933 -0.0874 -0.0560  0.1107
13224W        W28693   1.099  15.258  15.145  0.3135 -0.2041 -0.2488
13225W        W28694  12.567   9.272   0.077 -0.0630  0.0384  0.1099
13226W        W28695   1.107  17.823  11.063 -0.1215 -0.1253 -0.0283
13227W        W28696  12.450   6.922  13.635 -0.2497 -0.1617 -0.2093
13228W        W28697   8.761  10.573  13.689 -0.3338 -0.0843  0.0316
13229W        W28698  15.188   2.664  11.926  0.2243 -0.1801  0.0250
13230W        W28699   3.063   0.331   0.102 -0.1500 -0.1796 -0.0261
13231W        W28700   3.698  14.063   1.144 -0.1747 -0.0526  0.1100
13232W        W28701   8.694   5.749   1.150  0.0019  0.0787  0.1463
13233W        W28702  11.643  18.762  10.237 -0.1020  0.0875 -0.0243
13234W        W28703  10.757  17.682   1.556 -0.0648 -0.2400  0.0833
13235W        W28704   0.146   1.687   1.345 -0.1837 -0.0415  0.2361
13236W        W28705   3.669  11.353   2.962 -0.0012 -0.3666  0.3228
13237W        W28706   7.940   2.843   5.569  0.2616 -0.2759  0.1858
13238W        W28707  10.885  11.022  10.227 -0.2056  0.0542  0.2039
13239W        W28708   8.707  18.534   0.893 -0.4458  0.0602 -0.0873
13240W        W28709   6.333   1.796  15.343  0.3010 -0.0989  0.0893
13241W        W28710  15.289  16.910  12.421  0.1200 -0.3393  0.0094
13242W        W28711   7.556   0.538  13.753  0.1808  0.0399  0.1392
13243W        W28712   7.269   6.923  13.672 -0.0219 -0.1015 -0.1286
13244W        W28713   4.521   3.071  12.937 -0.0165  0.3475 -0.0412
13245W        W28714  14.961   0.191  15.025 -0.4693  0.0835  0.1692
13246W        W28715   6.518  12.259  12.636  0.1172 -0.0867 -0.1704
13247W        W28716   9.134  12.728  12.350 -0.0152 -0.0535 -0.1718
13248W        W28717   1.967  18.046  12.733  0.1385  0.0671 -0.0804
13249W        W28718   0.058   7.398  10.703 -0.3371 -0.1154  0.0638
13250W        W28719   7.294   9.758  10.790  0.0415 -0.0882 -0.3146
13251W        W28720   7.501  11.979   0.958 -0.5579 -0.0980 -0.4893
13252W        W28721   4.249   9.603  13.075 -0.0125  0.0667 -0.1135
13253W        W28722  18.037  14.474   0.442 -0.0024  0.1730 -0.1997
13254W        W28723  16.616   6.044  10.225  0.0461 -0.1430  0.1569
13255W        W28724   9.145  13.320   0.765 -0.0331 -0.2659  0.0511
13256W        W28725  17.109   1.678   0.126 -0.1244 -0.1517 -0.3266
13257W        W28726   7.399  17.742   1.561 -0.0452 -0.0656  0.1535
13258W        W28727  13.374   3.447  11.647 -0.1646  0.1027 -0.0579
13259W        W28728   9.416   3.389  12.894  0.3308  0.3006  0.0238
13260W        W28729  13.247  12.195   0.226 -0.1246  0.1542 -0.2036
13261W        W28730  16.532  18.681  13.603  0.1168  0.3969  0.1930
13262W        W28731  18.812  15.037   4.445  0.2512  0.1462 -0.3052
13263W        W28732  11.452  13.126  14.407  0.3768 -0.0289  0.2747
13264W        W28733   4.678  16.590   3.699 -0.1367 -0.0322 -0.3385
13265W        W28734   6.140  16.173  14.799  0.0320  0.2174 -0.0147
13266W        W28735  18.527   8.606   4.177 -0.0003 -0.0357 -0.1478
13267W        W28736  12.257  16.677  11.183  0.3144 -0.0671 -0.0347
13268W        W28737  12.191  18.646  11.169 -0.0042  0.0547  0.0762
13269W        W28738   7.446  10.057   2.579 -0.0066 -0.4512  0.2352
13270W        W28739  16.288  18.702   1.862 -0.1423 -0.0015 -0.1838
13271W        W28740  14.873   7.728   3.429  0.1537 -0.2215  0.1179
13272W        W28741  15.625  15.720  14.465 -0.0162 -0.0055  0.0375
13273W        W28742  15.683  17.390  15.219 -0.3684 -0.2572 -0.3902
13274W        W28743  16.089  13.143   4.239  0.0821 -0.3398 -0.1996
13275W        W28744   9.915  13.008  11.981 -0.3116 -0.2013 -0.0016
13276W        W28745  15.179  13.074  13.749  0.2028  0.0095 -0.2517
13277W        W28746  12.314  15.219   1.542 -0.2766  0.0615  0.0368
13278W        W28747  15.711  14.799   3.969 -0.0396  0.2460 -0.1073
13279W        W28748   9.097  10.415   2.333  0.1199  0.3066  0.3394
13280W        W28749  15.563  17.307  10.966  0.1359  0.1717 -0.0357
13281W        W28750  10.802   2.067  11.715 -0.3590 -0.1218  0.0030
13282W        W28751   3.500  15.640  15.160  0.2306  0.2014 -0.2493
13283W        W28752   2.419   1.902  14.369  0.1256 -0.0796 -0.0474
13284W        W28753   2.134  17.494  11.215 -0.0810 -0.2372  0.1173
13285W        W28754  12.780   7.434   2.651  0.1472 -0.1067  0.0614
13286W        W28755   0.472   1.744   0.649 -0.0910  0.0209  0.0310
13287W        W28756  12.453   4.115   5.270 -0.1687  0.0491 -0.3718
13288W        W28757   7.979  10.304  12.032 -0.3334 -0.1546 -0.2383
13289W        W28758   6.942  10.959   2.365  0.0378 -0.1182 -0.1916
13290W        W28759   5.847   8.173   4.369  0.0647 -0.1198 -0.0167
13291W        W28760   2.862  12.016  13.682 -0.0476 -0.0854 -0.6404
13292W        W28761   9.683   4.094  13.391  0.2804 -0.2202  0.1419
13293W        W28762   8.959   7.844   5.552 -0.0833 -0.0629  0.1360
13294W        W28763   8.414   0.218  10.318  0.0119 -0.2314 -0.2598
13295W        W28764  13.972   7.393  11.543  0.2950  0.0199 -0.0216
13296W        W28765  10.632   2.326  14.033  0.1789 -0.3157  0.2543
13297W        W28766   2.503   8.170   3.067  0.0450 -0.1078  0.0751
13298W        W28767  17.429   9.550   1.797  0.0798 -0.1121 -0.1451
13299W        W28768  12.498   0.201  12.319 -0.2625  0.2112 -0.0043
13300W        W28769   7.613   5.438  14.065  0.1905  0.0435  0.0958
13301W        W28770   2.863   9.492   1.291  0.1390 -0.2331  0.0141
13302W        W28771  12.795   8.147   5.260  0.1790 -0.1997 -0.0252
13303W        W28772  11.752   8.843   0.556  0.2738  0.3044 -0.0939
13304W        W28773   2.159  18.057   1.550  0.1918 -0.0341 -0.2739
13305W        W28774   1.132   5.132   2.831  0.1629 -0.0711 -0.0249
13306W        W28775   8.916  11.114  10.745  0.0194  0.0040  0.1828
13307W        W28776   4.989   4.823   4.061 -0.0764 -0.1425 -0.1637
13308W        W28777   2.132   0.103   1.155 -0.1591  0.0757  0.3549
13309W        W28778   3.838   6.320   0.073 -0.4111  0.4479  0.1812
13310W        W28779   4.721   5.432   4.718  0.1303 -0.1579  0.0626
13311W        W28780   4.004  10.317  12.722 -0.0766 -0.1138  0.0571
13312W        W28781  18.688   0.019  14.953  0.0426 -0.1140 -0.2258
13313W        W28782   3.037   5.665  12.135  0.0813 -0.4250 -0.0593
13314W        W28783   8.147  18.523  10.859  0.1628 -0.2764 -0.0310
13315W        W28784   6.395  16.648   0.411 -0.0061  0.0371 -0.3155
13316W        W28785   9.063   6.887   2.059 -0.2902  0.2521 -0.2306
13317W        W28786   9.670  16.427  10.742 -0.2986  0.1805  0.2078
13318W        W28787   8.584   4.730   0.653  0.1033 -0.0134  0.0172
13319W        W28788  11.716   4.847   1.622  0.1835 -0.0499  0.1280
13320W        W28789  12.791   9.217   3.309  0.0589  0.2251 -0.0469
13321W        W28790  17.885   7.073   0.928  0.3303  0.3198 -0.0138
13322W        W28791  17.596  18.388   1.068  0.2333  0.2253 -0.1867
13323W        W28792  16.994  18.016  12.540 -0.0686 -0.4115 -0.0977
13324W        W28793  11.136   6.990   5.038  0.0893 -0.0695  0.0688
13325W        W28794   8.593   0.407   1.688 -0.2455 -0.0670  0.1352
13326W        W28795   9.612  11.259   5.284 -0.0133  0.0401 -0.0843
13327W        W28796   3.474  14.169  13.405  0.0462 -0.0040 -0.3072
13328W        W28797   6.374   1.933  13.176  0.1099 -0.3048 -0.2512
13329W        W28798   5.724   3.250  12.556 -0.1637 -0.0141  0.1616
13330W        W28799   2.580  16.392  13.822 -0.2139  0.1852 -0.1235
13331W        W28800   1.522   3.851  13.137  0.0114  0.2181 -0.2371
13332W        W28801   7.586  13.736   1.365 -0.0889  0.2348 -0.0880
13333W        W28802  15.794  15.614  11.961  0.0362  0.0879  0.1856
13334W        W28803   1.125  18.368   3.484 -0.0274  0.0043 -0.1479
13335W        W28804   1.595  10.921  13.694  0.3600  0.0810  0.2228
13336W        W28805  12.837  17.498   5.318  0.0909  0.2463 -0.2161
13337W        W28806   9.744   0.869   1.297 -0.0660 -0.1861  0.0953
13338W        W28807   6.623  14.789  10.499  0.1669  0.2579 -0.1028
13339W        W28808  10.000  15.234   1.939  0.0819  0.0399 -0.0165
13340W        W28809   2.536   5.688   1.327 -0.1745 -0.0602  0.0278
13341W        W28810   7.153   4.435  14.802  0.0373 -0.6389 -0.0842
13342W        W28811  14.308   4.401   3.918 -0.2497  0.1170 -0.1406
13343W        W28812   5.581  11.502   5.436 -0.1939  0.0742  0.1294
13344W        W28813  14.799  17.876   5.470  0.0233 -0.2090 -0.0433
13345W        W28814   0.607   1.327   1.525 -0.1593  0.0374 -0.4150
13346W        W28815  11.299   6.843  12.906  0.0211 -0.0829 -0.2846
13347W        W28816   3.757   6.208   5.204 -0.0499  0.1346  0.0945
13348W        W28817  16.549   9.436  11.879  0.0370  0.0687 -0.0375
13349W        W28818  13.771   0.570  15.297  0.0196 -0.0758  0.3365
13350W        W28819  15.225   8.923   1.198 -0.1924 -0.0430  0.1510
13351W        W28820  14.709   0.786   0.727 -0.1433 -0.2018 -0.1351
13352W        W28821   2.930   3.734   0.672 -0.0032  0.2216  0.3778
13353W        W28822  11.492   3.313  12.684  0.0279  0.1880  0.2077
13354W        W28823  17.689   7.357  12.654 -0.1897 -0.2806  0.1452
13355W        W28824  14.339  15.723   9.817  0.0967 -0.1669 -0.1616
13356W        W28825   6.559  10.526  14.817  0.0416 -0.1226 -0.0273
13357W        W28826  12.045   1.482   5.267  0.1152  0.0552  0.1667
13358W        W28827   1.109   6.617  12.533  0.1162 -0.0254 -0.1149
13359W        W28828  11.107  12.642  11.761 -0.0984 -0.0432 -0.0324
13360W        W28829  10.349  12.652  12.903 -0.3957 -0.1125 -0.1559
13361W        W28830   5.232   8.262  14.641 -0.1788  0.1346 -0.0555
13362W        W28831   5.993   9.916  11.100 -0.1450  0.1499  0.1350
13363W        W28832   2.626  15.369   5.651 -0.0703 -0.1565 -0.0891
13364W        W28833   9.279   3.346   3.690  0.0225  0.2988  0.1597
13365W        W28834  13.824   2.405  14.309  0.4717  0.0437  0.0343
13366W        W28835  18.867  16.192   3.690  0.0326  0.1343  0.1332
13367W        W28836  11.933  16.214  12.035  0.2683  0.0124 -0.3278
13368W        W28837   9.762   2.045  14.538  0.0617  0.0193  0.0470
13369W        W28838  14.669   5.911  10.223 -0.1209 -0.0023 -0.1640
13370W        W28839   6.018   3.833  11.294  0.0909 -0.3648  0.4461
13371W        W28840   8.199  17.948   2.275  0.1556  0.0220 -0.0961
13372W        W28841  11.071  15.689  13.370 -0.2616 -0.1101  0.1832
13373W        W28842  18.290  18.760  14.887 -0.1494 -0.0450 -0.2812
13374W        W28843  12.357   3.703  14.523  0.0155 -0.0629  0.0046
13375W        W28844   4.306   3.948  11.448 -0.1320 -0.0784  0.1458
13376W        W28845  14.848   4.854   2.536  0.0302  0.2968  0.0274
13377W        W28846  16.296  16.097  10.309 -0.0830 -0.1651 -0.3012
13378W        W28847   2.336   4.013   2.297  0.1002  0.2922  0.0371
13379W        W28848   1.684   3.570  14.108 -0.3850 -0.0034  0.1727
13380W        W28849  15.863  17.894   4.863  0.1260  0.0132 -0.1203
13381W        W28850   2.986  16.258   2.045  0.1074  0.2435  0.0245
13382W        W28851   3.785  18.302  12.855  0.1790  0.0510 -0.1490
13383W        W28852  11.993   6.369   3.923 -0.2564 -0.0654 -0.4636
13384W        W28853  10.768  14.645  10.783  0.1577 -0.3133 -0.2718
13385W        W28854  14.050  10.972   3.872 -0.0160  0.0423  0.0546
13386W        W28855  14.838  11.993   4.959 -0.0029 -0.0419  0.2035
13387W        W28856   4.991   6.519   0.245  0.2863  0.0112  0.0104
13388W        W28857   2.393  13.082  14.571 -0.0036  0.1607 -0.2250
13389W        W28858  14.608  14.011  13.587 -0.3675 -0.0058  0.2280
13390W        W28859  12.850   1.731   1.379 -0.0831  0.3172  0.2706
13391W        W28860  11.770  17.754  13.536 -0.1573 -0.3324  0.0505
13392W        W28861  15.219  18.317  15.262  0.2049 -0.1698 -0.0548
13393W        W28862  10.016  13.138  12.489 -0.0998 -0.1579  0.1595
13394W        W28863   6.133  16.993   2.663 -0.1713  0.0477 -0.3398
13395W        W28864  13.943  18.541  10.383 -0.3454 -0.0094 -0.1140
13396W        W28865   6.310   8.187  11.990 -0.0963  0.2663  0.0792
13397W        W28866  12.348  13.006   1.236  0.0859  0.0357 -0.0242
13398W        W28867   2.204  18.636   3.361 -0.0242  0.1237 -0.1374
13399W        W28868  12.782  13.597   2.618  0.2428  0.1338 -0.0434
13400W        W28869  10.942  17.222  13.343  0.4204  0.2869 -0.0809
13401W        W28870  16.598  10.110  10.241 -0.0621 -0.0682  0.2096
13402W        W28871  14.686  13.517   2.969  0.0204 -0.3094 -0.2638
13403W        W28872   2.987   3.785   4.296 -0.1170  0.0509  0.0324
13404W        W28873  11.972   5.731  12.919  0.3183  0.0132 -0.0184
13405W        W28874  11.455   0.283   2.586  0.2736 -0.2244  0.0568
13406W        W28875   6.454  15.141   2.958  0.3904  0.3789  0.2427
13407W        W28876   0.013   2.447  10.882 -0.1626  0.0981 -0.0530
13408W        W28877  16.414   9.501   5.988  0.3514 -0.1533  0.2509
13409W        W28878   4.915  18.338  14.365 -0.0640 -0.1045 -0.1064
13410W        W28879   5.173   9.284   3.413  0.1337 -0.1959 -0.1846
13411W        W28880   1.318  15.763   2.739  0.0163  0.1012  0.2377
13412W        W28881  11.556   9.764   4.315 -0.2010 -0.1425  0.0066
13413W        W28882   6.354  11.427   4.458  0.1875  0.2356  0.0466
13414W        W28883   4.657   2.381  11.169  0.2102 -0.0581 -0.2330
13415W        W28884   1.403   0.752   4.177  0.2584  0.1303 -0.3058
13416W        W28885  17.115   8.810   0.293 -0.3194 -0.3051  0.3582
13417W        W28886   2.059   6.140  15.099 -0.4511 -0.2630 -0.0532
13418W        W28887   6.758  11.793  12.573  0.1445 -0.1391 -0.2330
13419W        W28888  18.723  15.961   0.631  0.2987 -0.1762  0.2740
13420W        W28889   0.891   7.225   1.276 -0.3825  0.1255  0.1675
13421W        W28890   7.975   3.992  14.543 -0.2997  0.0633  0.0276
13422W        W28891   5.786  12.660  14.819  0.1090  0.0749 -0.3995
13423W        W28892  12.646   0.419   3.237 -0.0564 -0.1542 -0.2727
13424W        W28893  15.269  14.496  15.363  0.0791 -0.1269 -0.2344
13425W        W28894   4.450   1.738   3.802  0.1725 -0.1785  0.0582
13426W        W28895   0.227   3.515   0.476 -0.0865  0.4611  0.3165
13427W        W28896  12.865   8.429   3.638  0.5767  0.1891  0.2020
13428W        W28897  16.201  18.224  11.732 -0.1472 -0.0821 -0.1068
13429W        W28898   0.245   0.196   0.479  0.6446  0.5357 -0.0816
13430W        W28899   5.348   1.606   4.453 -0.1981 -0.2803  0.1592
13431W        W28900   1.096  18.673  15.321  0.1378  0.0661  0.0386
13432W        W28901  18.614  10.365  11.783  0.2105 -0.3219  0.1116
13433W        W28902  13.660   0.447   1.332  0.0504  0.1290  0.3650
13434W        W28903   7.684   4.804   5.005  0.0957 -0.0472  0.3589
13435W        W28904   5.671   5.087   2.971  0.1679 -0.1081 -0.2231
13436W        W28905  15.473   0.559  14.377  0.2518  0.1923  0.0206
13437W        W28906   7.212  10.987  12.702  0.1618 -0.3055  0.1887
13438W        W28907  17.926   9.766   2.663  0.3010  0.1161  0.0232
13439W        W28908  16.474   0.106   3.182 -0.1293 -0.0584  0.0984
13440W        W28909  12.617  11.316   1.336 -0.2557 -0.2586  0.1877
13441W        W28910   5.492   1.847   3.495  0.0505  0.0829  0.1660
13442W        W28911   0.048   1.496   0.909 -0.0882 -0.0601 -0.1941
13443W        W28912   8.877   8.783   3.719  0.1832  0.2917 -0.0436
13444W        W28913   4.859  17.446   6.342 -0.2777 -0.1361 -0.1721
13445W        W28914   0.489  14.287   5.274  0.1413  0.2097  0.0347
13446W        W28915   5.051  16.023   2.714 -0.0556 -0.1153  0.2805
13447W        W28916   6.838   1.125  11.253  0.1762 -0.4053 -0.0157
13448W        W28917   1.605  12.882   5.451 -0.0873 -0.0087 -0.0432
13449W        W28918  17.082  15.816   3.410 -0.1561 -0.1819 -0.0615
13450W        W28919   8.742  10.331  13.102  0.2218  0.0777  0.1285
13451W        W28920  19.040  14.189  11.526 -0.2051  0.0697 -0.2258
13452W        W28921  18.530  12.854  10.768  0.1018 -0.0977 -0.0528
13453W        W28922   5.364  17.109   4.689 -0.2318  0.2700  0.3235
13454W        W28923  18.584  12.097   2.889  0.2701  0.0505  0.0358
13455W        W28924   9.082  17.388   4.922  0.0486 -0.0304 -0.1957
13456W        W28925   0.809   3.078  12.441 -0.0495  0.2038  0.0366
13457W        W28926   6.121   8.628  12.962 -0.2634  0.1386 -0.0265
13458W        W28927  13.243   8.716  10.067  0.0426  0.2232 -0.0827
13459W        W28928  14.496   9.803   1.763  0.0051  0.1526  0.1066
13460W        W28929  18.783  16.573  14.792  0.2583  0.0927  0.1641
13461W        W28930  15.469   8.611  14.523  0.0060  0.2149 -0.0003
13462W        W28931  18.015  17.104   4.392  0.0239  0.2197  0.1984
13463W        W28932  11.295  12.219  14.159 -0.0819  0.0234 -0.0969
13464W        W28933   2.966  10.512   2.205 -0.2982 -0.0339  0.2127
13465W        W28934   2.139   2.550   0.679 -0.3141 -0.1459 -0.1855
13466W        W28935   2.904   2.052  15.119  0.0652 -0.0810  0.3276
13467W        W28936   0.645  14.635  13.831 -0.0169 -0.2348  0.2338
13468W        W28937  18.616  15.495   1.312 -0.2121 -0.1902  0.1146
13469W        W28938   6.205   8.017   4.799 -0.0726 -0.3309  0.1049
13470W        W28939  16.694   5.383   3.173  0.2535  0.5858  0.1641
13471W        W28940  18.657   2.270   0.315 -0.0437 -0.0066 -0.0257
13472W        W28941   3.840   7.024   5.139 -0.0526 -0.3449  0.0498
13473W        W28942  10.611   2.613  12.893  0.2366 -0.1418  0.1972
13474W        W28943   0.465   7.345   4.801 -0.2956  0.1833  0.2766
13475W        W28944  17.154  17.154   0.578  0.2614 -0.1354 -0.1168
13476W        W28945  16.642   7.770  14.679 -0.1243 -0.1328 -0.0944
13477W        W28946   5.179   5.090   3.197  0.5205  0.1198 -0.0802
13478W        W28947   0.100   9.422  14.950  0.1723  0.1828  0.1138
13479W        W28948   2.741  10.620  12.515  0.1059 -0.1273  0.3296
13480W        W28949   4.036   6.294  11.135 -0.2003  0.0482  0.1591
13481W        W28950  18.958  12.567  13.395  0.0998 -0.1408  0.1644
13482W        W28951   2.180  17.815   5.460  0.2158 -0.0869  0.1856
13483W        W28952   0.877   0.859  12.470  0.0806  0.1769 -0.2014
13484W        W28953  12.557   0.585   5.243  0.3029 -0.0046 -0.2503
13485W        W28954   3.387   6.649   4.246  0.1160 -0.2479 -0.0941
13486W        W28955  15.790   5.333   3.261  0.2509 -0.0985  0.3237
13487W        W28956  13.321   6.640  14.232  0.3677 -0.2513 -0.2022
13488W        W28957   7.555   8.060  10.545 -0.0982  0.0824  0.1823
13489W        W28958  11.293  10.553   4.606  0.2553  0.1877 -0.3336
13490W        W28959   0.227   5.235  12.053 -0.0663 -0.0543 -0.3680
13491W        W28960   7.448  18.725   2.205 -0.0764  0.3486  0.0637
13492W        W28961   5.086  12.685   4.949 -0.1700  0.0350  0.0774
13493W        W28962  13.489   4.084  11.004 -0.1490  0.1882  0.1258
13494W        W28963  13.286  14.316   9.765 -0.1714  0.0111 -0.1790
13495W        W28964  11.322   5.211   9.543  0.2193 -0.1339  0.1715
13496W        W28965  12.256   7.256  12.964  0.0738 -0.1254  0.1629
13497W        W28966  11.459  12.960  15.287 -0.0286 -0.0304 -0.2005
13498W        W28967   9.620  12.775  13.724 -0.0064 -0.0283 -0.2116
13499W        W28968  16.357  17.041  12.557 -0.0687 -0.1045 -0.0874
13500W        W28969   3.304   9.283   2.830  0.0038  0.1509 -0.0966
13501W        W28970  13.711  12.632   3.018  0.0406  0.0079  0.0513
13502W        W28971  18.324   0.858   0.667 -0.0854 -0.0149  0.0567
13503W        W28972  18.278  16.047   0.935 -0.0075  0.0837  0.0798
13504W        W28973   4.763  10.948   1.632 -0.3739 -0.1780 -0.0377
13505W        W28974  10.833   1.511  11.210  0.1118 -0.0201 -0.0231
13506W        W28975  12.911  10.413  12.754  0.1657  0.1918 -0.2291
13507W        W28976   1.279   1.179   4.605 -0.0645  0.0556 -0.2486
13508W        W28977   4.062  11.868   2.217  0.3116 -0.0697  0.1211
13509W        W28978   0.410   5.537   1.687  0.0481  0.1338  0.2740
13510W        W28979  16.136   0.254   0.272 -0.0948 -0.0182 -0.4023
13511W        W28980   6.631  12.466   3.155  0.4276  0.4479 -0.0612
13512W        W28981   8.692   1.022   2.419 -0.2580 -0.0840 -0.1397
13513W        W28982   2.748  15.579   0.900  0.2221 -0.2083  0.2588
13514W        W28983   7.863  17.542   2.487  0.0799  0.0030 -0.0542
13515W        W28984   1.155  10.038  11.349 -0.2011 -0.0686  0.2827
13516W        W28985   2.377   8.660  14.733 -0.0480  0.0778  0.1447
13517W        W28986   0.800   6.810  13.293  0.0430 -0.1048 -0.0199
13518W        W28987   5.125   4.935  15.206 -0.3193  0.2428  0.1054
13519W        W28988   5.731   4.246   0.223 -0.0340  0.1335 -0.0461
13520W        W28989   5.548  10.447   1.898  0.1872 -0.0134  0.2151
13521W        W28990   5.530  18.046  13.171 -0.0105 -0.1023  0.1769
13522W        W28991  15.232   8.765   0.210 -0.2433 -0.0335 -0.1332
13523W        W28992  12.171   8.631   0.667 -0.5050 -0.0418 -0.0114
13524W        W28993   6.324  18.360  11.873 -0.0171 -0.2163 -0.1090
13525W        W28994  10.858  17.323   0.887  0.1498 -0.4327 -0.0683
13526W        W28995   0.359   3.387  12.305  0.1707  0.1069  0.1710
13527W        W28996   6.078  11.869   0.182 -0.1419  0.0707 -0.1175
13528W        W28997   5.643   5.281  12.317 -0.1158  0.2188 -0.0351
13529W        W28998  10.140  15.104   0.282 -0.0964  0.1365  0.0876
13530W        W28999  14.616  15.910  13.268  0.0773 -0.3237 -0.0676
13531W        W29000  17.338  14.910   3.892 -0.0052  0.1101 -0.5173
13532W        W29001   2.002   8.833  11.431  0.1240  0.4642 -0.0535
13533W        W29002   3.860   8.900   4.736 -0.1343  0.0728 -0.0244
13534W        W29003   6.477  14.175  12.599 -0.0367  0.0234  0.0635
13535W        W29004  17.476  17.759   3.852  0.0384  0.1903  0.1345
13536W        W29005   1.987   7.144   3.813  0.2071 -0.0320  0.3617
13537W        W29006   7.999  13.605   9.367  0.1881 -0.0009 -0.0258
13538W        W29007   2.172   4.895  13.871 -0.0131 -0.2339 -0.1504
13539W        W29008   0.790   1.586  14.323  0.2877 -0.0620 -0.1016
13540W        W29009  17.142  18.401   0.039  0.0996  0.0529 -0.1693
13541W        W29010   2.004  10.629   1.814 -0.1516 -0.0010 -0.0034
13542W        W29011   3.034  17.162  11.211 -0.0790 -0.1210 -0.2223
13543W        W29012  11.693   3.191   0.982 -0.2899  0.0154 -0.1529
13544W        W29013   0.732   8.061   2.232  0.0047 -0.2967  0.0256
13545W        W29014   8.413  17.598   0.739  0.2264  0.0149  0.3057
13546W        W29015  15.918   2.390   4.237 -0.0292  0.1117  0.3024
13547W        W29016  15.598   0.318   3.151 -0.0624  0.0899  0.2353
13548W        W29017   6.423   9.684  12.127  0.2415  0.1270 -0.2490
13549W        W29018   1.358  15.441  12.995 -0.0572  0.2654  0.1817
13550W        W29019   3.789   6.699  10.771  0.0992  0.0219 -0.1436
13551W        W29020   2.142  10.765   0.349  0.2028 -0.1796 -0.1658
13552W        W29021  11.693   9.575  13.834  0.1602 -0.1479  0.1059
13553W        W29022  10.366   2.159  11.934  0.1026  0.3724  0.2837
13554W        W29023  18.099   0.441  13.281 -0.2910 -0.0218 -0.0056
13555W        W29024   4.164   7.385   3.501  0.4092 -0.2233 -0.2545
13556W        W29025   4.503   7.177   4.138  0.1884  0.0778  0.3038
13557W        W29026  15.044  17.644  11.082 -0.0916 -0.0657 -0.2090
13558W        W29027   9.058   7.077   3.415 -0.0338 -0.0110  0.1992
13559W        W29028   6.240   8.841   2.486 -0.3227 -0.1050 -0.0743
13560W        W29029   2.450   9.142   4.723  0.0921 -0.1113  0.0302
13561W        W29030   0.527   0.870   1.237  0.1598 -0.3345  0.0851
13562W        W29031  13.446   2.833  10.141 -0.1854  0.3332 -0.2811
13563W        W29032  17.307   6.514  10.300  0.0431 -0.3707 -0.3649
13564W        W29033   9.626   8.150   4.939  0.2252  0.1717  0.1064
13565W        W29034  13.212  10.280  11.787  0.0410 -0.0849 -0.3146
13566W        W29035   3.854   8.794  10.927 -0.1370 -0.0496  0.3130
13567W        W29036  10.845  16.376   1.468  0.0920 -0.4976  0.0077
13568W        W29037  16.490   3.133   3.764 -0.2205 -0.1329  0.4933
13569W        W29038   9.116   2.484  12.504 -0.1727  0.1226  0.1927
13570W        W29039   2.990  18.398   0.630  0.0080  0.1320  0.1122
13571W        W29040  17.559  12.941  10.618  0.0330  0.0602  0.5158
13572W        W29041  13.809   2.798   0.901  0.0680  0.4254 -0.0341
13573W        W29042   3.263   5.310  13.694 -0.0581 -0.0515 -0.2100
13574W        W29043  18.151   6.534  13.022 -0.1973  0.0665 -0.1663
13575W        W29044   6.554   5.477   2.797 -0.0434 -0.0177 -0.1543
13576W        W29045   8.534   1.843   0.946  0.0706 -0.0836  0.0894
13577W        W29046  16.294   3.031   1.532  0.2400 -0.0380 -0.1763
13578W        W29047   6.129  14.333  11.149 -0.1258 -0.0253  0.4051
13579W        W29048  13.078   9.316   4.412 -0.0769  0.2814 -0.0963
13580W        W29049   3.717  13.950   3.874 -0.2421  0.1580 -0.0554
13581W        W29050   1.227  11.261  14.476  0.0229  0.0620  0.2312
13582W        W29051  10.933   4.986   1.154 -0.1482  0.4597 -0.0708
13583W        W29052  17.366  13.311   0.568  0.4005  0.1503 -0.4584
13584W        W29053   2.981   0.425   0.884 -0.1785  0.1304 -0.0119
13585W        W29054   0.803   6.635  13.754 -0.0440  0.4407 -0.3031
13586W        W29055   3.003   5.661  12.941  0.1140 -0.0365 -0.3496
13587W        W29056  16.814   2.042  14.239 -0.2375  0.0202  0.1637
13588W        W29057   6.323   9.302   3.242  0.2278 -0.0449 -0.0577
13589W        W29058  12.340  13.497  13.345 -0.0069  0.0250  0.0143
13590W        W29059  10.987   8.626   4.421 -0.2141  0.0966  0.1118
13591W        W29060   7.418   9.542   3.871  0.0308  0.1609  0.0800
13592W        W29061   4.448   4.693  10.427  0.1201  0.2686 -0.1711
13593W        W29062  10.142  14.850   2.796  0.0297  0.2324 -0.1409
13594W        W29063   1.556   0.717  13.768  0.3091 -0.2133  0.1166
13595W        W29064   8.934  14.115   4.510 -0.1191  0.3534  0.1602
13596W        W29065   4.708  18.504   0.736  0.1611 -0.1975  0.0939
13597W        W29066  13.023  16.815  13.592 -0.0541 -0.0891  0.0808
13598W        W29067   9.645   5.379   3.405 -0.0064  0.0000  0.3212
13599W        W29068   5.661   5.549  14.129  0.2633  0.0044  0.1352
13600W        W29069  11.849   1.538  10.729 -0.1936 -0.2245  0.1900
13601W        W29070   4.273   7.315  15.291 -0.1091 -0.1162  0.1835
13602W        W29071   2.957  17.852  14.328  0.1161 -0.2196  0.1074
13603W        W29072  16.382   8.215   2.181  0.1957  0.2660 -0.1278
13604W        W29073  15.953   4.795  14.353  0.1749  0.0420 -0.1231
13605W        W29074   8.405  13.592   3.050  0.0809 -0.0124 -0.0278
13606W        W29075   2.925   8.069   5.176  0.0822 -0.2162  0.0780
13607W        W29076   6.375   8.457  12.391 -0.0686 -0.0755 -0.2023
13608W        W29077   0.703   0.091  14.107 -0.1106 -0.0692  0.1325
13609W        W29078  11.863   1.811  10.211 -0.0743 -0.0884 -0.3082
13610W        W29079   9.929  11.036  14.503 -0.1093  0.3183 -0.3722
13611W        W29080   1.472  12.323  10.932  0.0153  0.1543  0.1861
13612W        W29081   0.809  10.248  12.337  0.2695 -0.0059  0.2230
13613W        W29082  11.173  12.955   5.146 -0.1484 -0.0714  0.2192
13614W        W29083  18.752   5.051  13.970 -0.1748  0.3927  0.1683
13615W        W29084  18.708  18.084  14.921  0.4754 -0.1270  0.1976
13616W        W29085  16.016   5.082  11.466  0.1182  0.3271 -0.0170
13617W        W29086   7.365   7.468   3.523  0.0586  0.1612 -0.1894
13618W        W29087  14.916   7.827   9.943 -0.2420  0.2031  0.1384
13619W        W29088  14.244   2.406   0.814 -0.1387  0.1684 -0.0178
13620W        W29089  18.591   0.790  13.745  0.1614 -0.2600 -0.1112
13621W        W29090   6.591   3.350   0.016  0.1599  0.1710  0.0597
13622W        W29091  10.328   7.729   0.129  0.2034 -0.0913 -0.1295
13623W        W29092  17.224   6.845   0.133 -0.0583 -0.1183 -0.1358
13624W        W29093   7.232  10.109  11.586  0.2508 -0.1915  0.2301
13625W        W29094   6.561  17.814  10.302 -0.0853 -0.1535  0.0259
13626W        W29095  10.462  10.075   4.553  0.0421  0.1970  0.5473
13627W        W29096  14.543  15.793  10.526 -0.1247 -0.2289 -0.0263
13628W        W29097   1.342  18.626   0.370  0.3049  0.2979 -0.1784
13629W        W29098  10.943   5.197  12.473  0.3982  0.1813 -0.0118
13630W        W29099   9.976   0.616  11.872 -0.2879  0.1860 -0.0033
13631W        W29100   6.238   8.053  14.898  0.0416 -0.0809  0.4729
13632W        W29101   5.107  12.724   2.744 -0.0365 -0.0191  0.0417
13633W        W29102   0.565  17.832   3.091 -0.0387 -0.2820 -0.1639
13634W        W29103   0.151   7.168  15.275  0.0092  0.0147  0.0601
13635W        W29104  13.596  15.974  10.851 -0.1177  0.3051  0.1453
13636W        W29105   3.606  17.719   9.520  0.1757  0.3390 -0.1280
13637W        W29106   5.834  10.043   2.723  0.1984 -0.2760 -0.0702
13638W        W29107  18.689  18.368   0.945 -0.2644 -0.0687  0.1453
13639W        W29108   9.597  14.391  12.697 -0.0117  0.0641  0.2563
13640W        W29109  18.909   4.988  15.361 -0.0185 -0.1559 -0.0290
13641W        W29110   6.231  13.708   1.274  0.1812  0.0779 -0.0463
13642W        W29111  12.861   9.099   2.714 -0.1930  0.0077  0.2973
13643W        W29112   3.358  14.791   1.441 -0.1799  0.0241  0.0099
13644W        W29113   5.256  10.025  11.361 -0.0043  0.1366  0.2010
13645W        W29114   3.481  11.089  13.996  0.0613 -0.2475 -0.3341
13646W        W29115   9.660   0.002   5.421  0.1102  0.0147 -0.1807
13647W        W29116   1.883   0.260   5.235  0.0287  0.5563  0.0963
13648W        W29117   9.554   8.480   4.126 -0.1103  0.1245 -0.0845
13649W        W29118  16.382   6.589   1.587 -0.1223  0.4776  0.2736
13650W        W29119   0.869  14.090   0.822 -0.0798  0.0260 -0.0728
13651W        W29120  15.797  16.659   4.366 -0.0285 -0.0731  0.2303
13652W        W29121   9.180  11.314   0.321  0.0468 -0.0761 -0.2842
13653W        W29122  17.572  12.756  13.569 -0.0797 -0.1384  0.1236
13654W        W29123   3.851   1.877   3.872 -0.0532 -0.0796 -0.0210
13655W        W29124   5.784   5.939  14.433 -0.1032 -0.3858  0.1290
13656W        W29125  11.920   6.038   4.259  0.0711  0.0938  0.0811
13657W        W29126  16.266  15.582  11.712 -0.1313 -0.2954  0.3478
13658W        W29127   0.554   5.527  15.307  0.1014 -0.1584 -0.0124
13659W        W29128   5.511  18.543   4.382 -0.2072  0.2020  0.6185
13660W        W29129  17.133   0.241  13.092  0.0792 -0.0328 -0.3212
13661W        W29130  16.900  13.184  12.878 -0.3420 -0.1672  0.3428
13662W        W29131  12.934  18.586  14.963 -0.0727 -0.2521 -0.0920
13663W        W29132   7.292  14.072  11.721  0.0131 -0.0354 -0.0996
13664W        W29133   6.341  12.825   3.617 -0.1970  0.1172  0.2472
13665W        W29134   5.680   2.513  14.338  0.1260  0.1189  0.1696
13666W        W29135   5.589  11.967  14.274 -0.1162 -0.1838 -0.3472
13667W        W29136   1.192   5.016  10.826  0.0688 -0.2496  0.1050
13668W        W29137   0.146   9.346   1.687 -0.1897  0.0860 -0.2267
13669W        W29138  13.372  17.855   4.201  0.0045  0.2245 -0.0744
13670W        W29139  12.820   6.163  14.246  0.2331  0.2829  0.2125
13671W        W29140  12.841  16.165   4.249  0.1223 -0.0261  0.0630
13672W        W29141   3.343  10.519  11.973  0.0019 -0.0681  0.1058
13673W        W29142   0.166  12.717  14.263 -0.0219 -0.2948 -0.2605
13674W        W29143   9.220  18.437  12.624  0.2300 -0.0606 -0.1850
13675W        W29144   0.754   2.549   4.025  0.0524  0.0537  0.2562
13676W        W29145   3.814  11.741   1.726  0.0895  0.3035  0.2067
13677W        W29146  10.811   0.193  12.018  0.0046 -0.3129 -0.3647
13678W        W29147  16.797  15.690   2.506  0.0437 -0.0320  0.1820
13679W        W29148   5.457   2.467  15.169 -0.2115 -0.2762  0.1064
13680W        W29149  13.604  10.900   3.517 -0.2865 -0.2316 -0.0808
13681W        W29150  13.642   9.673  14.661 -0.1068 -0.1092  0.1162
13682W        W29151  16.035  10.648   5.499  0.0947 -0.0983 -0.1299
13683W        W29152   5.240   2.749  14.232 -0.2385  0.0170 -0.1972
13684W        W29153   9.957   0.939   1.751  0.0082  0.0978  0.1990
13685W        W29154  16.362  15.988   3.985 -0.0835  0.1685  0.0885
13686W        W29155  16.771  11.962   1.861  0.3341  0.3713  0.2597
13687W        W29156  10.438  17.247   1.804 -0.5115 -0.0522  0.0202
13688W        W29157   8.439  15.573   2.573  0.0103  0.0115  0.0958
13689W        W29158  13.660   3.779   0.742  0.1165 -0.1764  0.1585
13690W        W29159  17.703   9.246   5.541 -0.0159  0.0022  0.2598
13691W        W29160   7.907   8.111  13.938  0.2147 -0.0313  0.0310
13692W        W29161  12.157   3.857   3.589 -0.1287  0.1030  0.2445
13693W        W29162  15.193   2.666   1.044  0.3400  0.1357  0.3631
13694W        W29163  10.561  15.459  12.717  0.3082  0.1714  0.0810
13695W        W29164   7.847   7.645   5.105 -0.1879  0.6024 -0.1921
13696W        W29165   0.314  18.005  12.693 -0.2946  0.4428  0.1685
13697W        W29166   7.319  13.969   5.773  0.3565 -0.0748  0.0813
13698W        W29167  15.951   8.091   3.780 -0.1462 -0.3540 -0.1268
13699W        W29168  12.836   5.673  12.837  0.0456 -0.1112  0.3435
13700W        W29169   2.722   3.830  10.649  0.0645 -0.1525 -0.0994
13701W        W29170   1.670   1.907   5.046 -0.2973 -0.2312  0.1903
13702W        W29171   5.797   3.881   3.429  0.1528 -0.1622  0.1805
13703W        W29172  14.034   6.474   0.707  0.0499  0.0086 -0.3049
13704W        W29173   9.867  15.592  10.413  0.2114 -0.0321 -0.1236
13705W        W29174   8.951   8.949  11.287 -0.0596 -0.0907  0.1641
13706W        W29175   4.520   9.798   4.070 -0.0412 -0.0358 -0.0072
13707W        W29176  18.145   0.059   0.299  0.0596  0.3503  0.1972
13708W        W29177   0.966  11.687  12.010  0.1668  0.0832  0.0504
13709W        W29178   3.863   9.186   2.340 -0.0527 -0.1917  0.3001
13710W        W29179   3.253  13.333   0.565  0.0400  0.1468 -0.2680
13711W        W29180  10.273   3.989   0.407 -0.1451 -0.0950  0.2096
13712W        W29181   5.124  10.946   2.565 -0.0119 -0.0194 -0.1240
13713W        W29182   2.540  18.640  12.757  0.2174 -0.1589  0.1295
13714W        W29183   0.646   1.086  14.643  0.1261  0.0344  0.2091
13715W        W29184   3.570   8.605   9.824 -0.1227  0.2997 -0.2653
13716W        W29185   3.946   3.893   4.633 -0.1726  0.2571  0.0049
13717W        W29186  18.967   6.716   3.573  0.0641 -0.0807  0.0127
13718W        W29187   2.494  17.400  10.622 -0.0590 -0.0040 -0.1569
13719W        W29188  16.552  16.793  14.650 -0.3410 -0.1725  0.1055
13720W        W29189   0.692   8.253  13.117 -0.0257 -0.0113  0.1160
13721W        W29190   7.268  17.069   0.733 -0.2092 -0.1682 -0.0974
13722W        W29191   0.441   6.929  12.963  0.0129 -0.2440 -0.1159
13723W        W29192   9.540  11.626  13.824  0.4673  0.0342  0.2356
13724W        W29193  17.486   2.138   4.557  0.1078 -0.0705 -0.4026
13725W        W29194   2.587   4.131   4.338 -0.3020 -0.1624  0.0485
13726W        W29195  14.546  17.555  13.205 -0.0712 -0.1189 -0.0788
13727W        W29196  11.779   3.290   0.169 -0.2501  0.1285 -0.0962
13728W        W29197   3.154   1.710  11.847 -0.1691  0.0861 -0.0467
13729W        W29198   7.326   4.703  13.850  0.1511  0.0016 -0.1156
13730W        W29199  10.050  15.524  14.680 -0.0195 -0.0749  0.0815
13731W        W29200   6.829  13.987  11.560 -0.4675 -0.1960 -0.1372
13732W        W29201   1.610  12.128  14.127  0.0291  0.2447 -0.1531
13733W        W29202   9.827   7.736  12.073  0.2722 -0.2564 -0.1502
13734W        W29203  10.377  17.201  15.170 -0.2144  0.1818  0.0724
13735W        W29204  13.439   5.862  13.627 -0.0669 -0.2387  0.2354
13736W        W29205   6.512   5.089   3.136 -0.1622 -0.2386  0.0631
13737W        W29206  10.118   4.787  12.288 -0.1266  0.0974  0.1616
13738W        W29207   1.442   5.304   2.457 -0.0500  0.0831  0.2829
13739W        W29208  16.823  17.396   0.975 -0.1240 -0.0493 -0.3875
13740W        W29209  18.405  15.353   0.348  0.1139 -0.2037  0.2185
13741W        W29210  15.164   0.137  10.570  0.0578 -0.1946  0.0316
13742W        W29211  12.897  17.316   1.907  0.4251  0.1797  0.0259
13743W        W29212   9.988   4.831  11.755 -0.4533  0.0906 -0.1415
13744W        W29213  12.385  12.704   1.809 -0.1330  0.1717 -0.2173
13745W        W29214   8.864   2.791  14.409  0.0898  0.1636  0.1458
13746W        W29215  16.658   2.524   4.769 -0.0472  0.2122 -0.1993
13747W        W29216  18.519   8.769  12.744  0.3349 -0.0574 -0.0468
13748W        W29217  16.057  13.638  11.739  0.1689 -0.0686 -0.0421
13749W        W29218  15.639  11.275   5.114  0.2812 -0.3513 -0.0856
13750W        W29219  14.934  12.250   4.569  0.2245  0.2182  0.3322
13751W        W29220   6.434   1.933  11.749  0.4728 -0.4231  0.3390
13752W        W29221   5.100   0.309  12.739 -0.0671 -0.2295  0.0070
13753W        W29222  10.803  17.522  12.288  0.0364  0.0197  0.0332
13754W        W29223   3.903   1.139  13.036  0.1885 -0.0878  0.0777
13755W        W29224  17.604  14.955  14.034 -0.1773 -0.1627  0.1615
13756W        W29225   0.954  10.376   0.665 -0.0712 -0.1302  0.1270
13757W        W29226   0.692  12.992  11.060  0.1141  0.0461  0.0640
13758W        W29227   4.704   8.646   0.933 -0.1190  0.2726 -0.4453
13759W        W29228   4.993   1.574  14.950 -0.1486 -0.1990  0.0190
13760W        W29229  17.267  18.668   1.260  0.3715 -0.2528  0.2205
13761W        W29230   6.057  12.735   1.118  0.1422  0.0198  0.1471
13762W        W29231   7.671   7.426   2.689 -0.1024 -0.0643  0.1841
13763W        W29232  12.589   5.667  14.194 -0.3092 -0.0324  0.3156
13764W        W29233   3.714   8.541  10.364  0.1320 -0.1128  0.1085
13765W        W29234  13.486   9.579   3.906 -0.0386  0.1369 -0.1840
13766W        W29235  10.438  11.142   1.584 -0.1180  0.5938 -0.2797
13767W        W29236   6.059  18.396   0.011  0.1086  0.0410 -0.2826
13768W        W29237   2.508   9.280  12.733 -0.0852 -0.0027  0.0624
13769W        W29238   1.482  10.976  11.339 -0.0191 -0.0776 -0.2853
13770W        W29239  16.398   4.444   5.462  0.2212 -0.1742  0.1788
13771W        W29240   2.035   4.066   1.766 -0.0336 -0.1237  0.1395
13772W        W29241  14.637  15.029  13.771  0.1685  0.1386  0.0995
13773W        W29242   7.978  18.061   3.070  0.2089  0.0993  0.2149
13774W        W29243  18.102   4.916   3.900 -0.1176  0.1988  0.1146
13775W        W29244   8.566   4.934  12.692 -0.1326  0.0873  0.0668
13776W        W29245   5.193  15.977  10.299  0.1114 -0.3286  0.1919
13777W        W29246  16.347  17.613  14.939 -0.2668 -0.3597  0.1064
13778W        W29247   4.642   6.178  13.730 -0.0155 -0.0937 -0.0377
13779W        W29248   1.023   2.116  12.220 -0.3526 -0.3550 -0.0903
13780W        W29249   8.489   3.560   3.357  0.0245 -0.0040  0.0640
13781W        W29250   6.620   7.761   5.417  0.2117 -0.0094 -0.0519
13782W        W29251  15.592   1.952   0.669 -0.1211  0.1961 -0.0690
13783W        W29252  14.495  14.354   4.455  0.0456  0.2481 -0.0786
13784W        W29253   6.513  14.192   5.203  0.0285  0.0580 -0.2509
13785W        W29254   7.755   3.512  14.685 -0.0257  0.0934  0.1259
13786W        W29255  12.581  15.001   0.433  0.1691  0.0503 -0.0107
13787W        W29256  14.192   4.692   0.381 -0.4070 -0.3558  0.2004
13788W        W29257  11.194  17.023   3.402  0.1546 -0.1235 -0.1123
13789W        W29258   0.882  18.536   3.900 -0.0419  0.0408 -0.4196
13790W        W29259   6.843   3.959   1.716  0.1837  0.0711 -0.1357
13791W        W29260   1.097   2.275  14.904  0.2091 -0.4001  0.0884
13792W        W29261   1.493   0.409   2.403  0.4148  0.0394  0.1014
13793W        W29262   6.708  17.707  11.325  0.2400  0.0963 -0.4792
13794W        W29263   3.860   0.445  13.503  0.3205  0.2026  0.1880
13795W        W29264   5.705   7.509  11.292  0.1471 -0.3743  0.1370
13796W        W29265   8.234   0.194   1.132 -0.1560 -0.1959 -0.0192
13797W        W29266  16.716   3.247  11.289 -0.0466  0.2360 -0.1063
13798W        W29267  16.184   1.233   2.837 -0.0180  0.0272 -0.0799
13799W        W29268  13.561  17.863   1.723 -0.0682 -0.0582  0.1092
13800W        W29269   5.715   8.763  14.120 -0.1261 -0.2494  0.0812
13801W        W29270  12.314  13.636   3.868 -0.0932 -0.3450  0.1044
13802W        W29271  16.704   5.316  12.169 -0.2059 -0.3395  0.1487
13803W        W29272  11.333   9.325   1.709  0.1232  0.0897 -0.1812
13804W        W29273  14.237   9.957   1.105  0.4759 -0.2685  0.1800
13805W        W29274  10.119  18.522   3.110  0.0166 -0.1958 -0.1780
13806W        W29275   5.758  10.840  12.764  0.0640 -0.1325 -0.0290
13807W        W29276  15.820  13.699   3.005 -0.0500  0.2443  0.1032
13808W        W29277   9.555   2.363  14.134  0.3232 -0.0239  0.1155
13809W        W29278   3.537   5.942   5.533  0.4055  0.1634 -0.2583
13810W        W29279  15.682   2.676  13.411 -0.1195 -0.6134  0.1383
13811W        W29280   0.501   4.346   1.516 -0.1660 -0.2120 -0.2013
13812W        W29281  16.950  12.744   0.558 -0.0950 -0.0823  0.0586
13813W        W29282  17.545   5.965  12.710  0.3119 -0.1491  0.0329
13814W        W29283   9.170   4.710  11.860  0.1767  0.0858 -0.3049
13815W        W29284  16.748   7.499   1.688  0.1748 -0.1650  0.2241
13816W        W29285   3.140  10.773  10.712  0.3162 -0.1115  0.1212
13817W        W29286  14.780  16.479  11.042  0.4799 -0.2402  0.0953
13818W        W29287  15.473   0.128   0.913  0.4213 -0.0299  0.0020
13819W        W29288  13.690  14.872   1.781 -0.1171  0.2455 -0.2042
13820W        W29289   5.480  11.390   3.735 -0.3497 -0.1804  0.1546
13821W        W29290   7.192  15.822  14.987  0.1412  0.2092  0.3781
13822W        W29291  17.308  14.829   9.337  0.0240 -0.1090 -0.0514
13823W        W29292   5.276  12.920  15.102  0.0592 -0.1066 -0.1185
13824W        W29293  14.918   5.883  11.072  0.0908  0.2579  0.1000
13825W        W29294  17.571  15.179   4.342 -0.1743  0.4726  0.2797
13826W        W29295   3.833  14.934   4.247 -0.1362  0.1426 -0.0290
13827W        W29296  12.495  11.399  13.242  0.1342  0.1441 -0.0408
13828W        W29297  18.759   0.022   4.409  0.4893 -0.3351  0.1466
13829W        W29298  14.516   2.215  13.481  0.0823 -0.2064  0.1771
13830W        W29299   6.106  13.018  10.385 -0.1477 -0.0938 -0.1204
13831W        W29300   9.334  14.577  10.463  0.1305  0.2205  0.0082
13832W        W29301  14.597  17.483   4.943  0.1813 -0.2469 -0.0311
13833W        W29302  12.410  11.766   0.666 -0.5230  0.1792  0.2145
13834W        W29303  11.860  10.588  15.299 -0.0609 -0.0490  0.1037
13835W        W29304   9.862  17.869  14.462 -0.0669 -0.0813 -0.1010
13836W        W29305  10.894  17.519  13.786  0.1936  0.0822 -0.0639
13837W        W29306   0.240  11.178   4.595  0.2340  0.4263 -0.0026
13838W        W29307   1.520   3.390   0.593 -0.0036 -0.1488 -0.2541
13839W        W29308   7.076  10.898  13.178 -0.1623  0.0638  0.1521
13840W        W29309  10.897   2.955   4.342  0.2114 -0.0822  0.1095
13841W        W29310   7.620  17.436  13.793  0.0321 -0.0694  0.3390
13842W        W29311  17.204   5.584  15.098  0.0171  0.0911 -0.2401
13843W        W29312  12.908   2.166  12.362 -0.2377 -0.0119  0.0330
13844W        W29313   3.375   0.968  12.848 -0.2802  0.3274  0.1453
13845W        W29314  13.337  17.485   4.511  0.1432  0.0542 -0.0949
13846W        W29315  11.051   0.118   9.609 -0.3823 -0.0204 -0.0861
13847W        W29316   3.252   4.878   3.084  0.0025  0.0053  0.1638
13848W        W29317   3.017  17.214  10.641 -0.2339 -0.2560 -0.2710
13849W        W29318   9.923   9.734   1.041  0.2185  0.1707 -0.1666
13850W        W29319   1.933   6.120  10.626  0.1440 -0.1029  0.0568
13851W        W29320   8.500  17.317   1.690 -0.0494 -0.3491  0.2836
13852W        W29321   4.450  18.390   2.825 -0.0433 -0.0337  0.2825
13853W        W29322   4.619  18.636   4.510  0.3530  0.0744  0.3244
13854W        W29323   4.087  10.451   1.216  0.2188 -0.0886  0.2647
13855W        W29324  13.635   8.856   2.909  0.3309  0.0578 -0.0842
13856W        W29325   7.484  16.611   0.812  0.2639  0.4638  0.1476
13857W        W29326   6.150   6.850   0.642 -0.0190  0.2175  0.1087
13858W        W29327   9.612  12.895   0.053 -0.2162 -0.5604 -0.1022
13859W        W29328   0.012  11.045   1.510 -0.0188  0.2013 -0.0080
13860W        W29329   6.834  14.755   9.517 -0.3141  0.1230  0.2238
13861W        W29330   7.534   3.146  14.355  0.0128 -0.1856 -0.1108
13862W        W29331  17.648  15.582   0.407 -0.2850 -0.1733 -0.2104
13863W        W29332  17.425   7.766  12.180  0.1491  0.0966 -0.3536
13864W        W29333   6.199  18.360   2.112  0.1233 -0.0533 -0.4224
13865W        W29334   7.903   9.945  11.016  0.3441  0.2467  0.0660
13866W        W29335  13.592   6.010   0.942  0.1208  0.1404 -0.1026
13867W        W29336  13.766  14.854  13.743 -0.2116  0.0994 -0.0469
13868W        W29337   6.180   8.246   1.669  0.1045 -0.2522  0.0489
13869W        W29338   9.289   9.298   1.404 -0.1671 -0.1364 -0.0137
13870W        W29339  13.054   6.639   1.558  0.0330 -0.0584 -0.4338
13871W        W29340   7.176  16.739   4.681 -0.0970 -0.3815 -0.1146
13872W        W29341   0.807   6.728  10.597 -0.0074  0.0048  0.1786
13873W        W29342   2.926  12.604  12.179 -0.1055  0.2128  0.1640
13874W        W29343   8.621   4.516   4.237 -0.1697 -0.1207  0.0471
13875W        W29344  11.729   8.689  10.929 -0.1533 -0.0968  0.7120
13876W        W29345   0.466  16.500  10.065 -0.1223 -0.2516 -0.1423
13877W        W29346   3.324   9.363  11.999  0.1033  0.2803 -0.1003
13878W        W29347   4.809   9.303   5.955 -0.1155  0.0101 -0.0304
13879W        W29348  11.820   2.796  11.262  0.0970  0.1719 -0.0731
13880W        W29349   9.556  15.085   3.101 -0.1625 -0.3528  0.1131
13881W        W29350   8.873   1.066  14.131  0.2538 -0.2003  0.0558
13882W        W29351   9.351   0.801   3.111  0.0656 -0.0706  0.1776
13883W        W29352   7.818   7.810  13.267  0.3616 -0.0485  0.0024
13884W        W29353   9.542  13.949   0.127  0.1026 -0.2340  0.2049
13885W        W29354  13.409  15.345   3.989  0.1159 -0.0581 -0.1411
13886W        W29355  14.273  15.444  10.888 -0.0479  0.1604  0.0990
13887W        W29356  11.132   9.092   4.055 -0.1243 -0.3230  0.0651
13888W        W29357   0.135  11.508  10.487  0.0322  0.1359 -0.2290
13889W        W29358   1.211  18.469  12.031 -0.0245  0.2850 -0.1589
13890W        W29359   6.731  17.292   5.070  0.3054 -0.0810 -0.1128
13891W        W29360   8.543   5.920  15.281 -0.0119 -0.0010 -0.3695
13892W        W29361  18.784   5.107  11.009 -0.0837  0.0133 -0.1500
13893W        W29362  13.843   4.596  11.115  0.1644  0.1130  0.3763
13894W        W29363   1.555   4.409   0.402  0.2266  0.2248 -0.2288
13895W        W29364  13.774   2.515  13.766 -0.0317 -0.0464 -0.2704
13896W        W29365  10.082   3.471   0.228  0.2075  0.1618  0.0627
13897W        W29366   5.402   2.500   1.755 -0.1497 -0.3338  0.1939
13898W        W29367   9.608  11.837   0.877  0.2469  0.0662 -0.0775
13899W        W29368   4.545   9.804   0.079 -0.1127  0.0415  0.0060
13900W        W29369   1.569   4.867  14.495  0.0452  0.0004  0.0735
13901W        W29370   0.844   6.689   1.158  0.3035  0.2344  0.0238
13902W        W29371   0.498  14.394   2.400 -0.1250 -0.0960 -0.2999
13903W        W29372  18.636   8.148  10.820 -0.2314  0.3823 -0.0807
13904W        W29373  14.331  12.983   2.006  0.0530  0.1949  0.0490
13905W        W29374  13.830  15.928   1.892 -0.1267 -0.1663 -0.3557
13906W        W29375   7.992   3.584   3.398 -0.0740 -0.2095  0.0089
13907W        W29376   3.678   4.552   3.138  0.2523  0.3250  0.2902
13908W        W29377   7.467   9.484  15.219  0.0534  0.4884 -0.5042
13909W        W29378  10.935   3.336   3.196 -0.0575 -0.0426 -0.0063
13910W        W29379  15.412  12.081   0.318 -0.1760 -0.1692  0.0864
13911W        W29380   4.697  14.584   5.219 -0.4107  0.4119  0.2737
13912W        W29381   7.068  15.950  13.238  0.2502 -0.0497 -0.1075
13913W        W29382   0.934  15.110  13.065 -0.0748  0.3451 -0.1001
13914W        W29383  17.177  12.811  12.031  0.1589  0.1097 -0.2180
13915W        W29384  18.932  18.551   2.657  0.0115 -0.0674  0.0358
13916W        W29385   3.425  12.246   0.676  0.1599 -0.1667 -0.1069
13917W        W29386   6.476   0.631   3.098 -0.3521 -0.3647 -0.1283
13918W        W29387   0.980  15.087  11.367  0.2426 -0.1187 -0.1153
13919W        W29388   4.375   7.646   3.128 -0.1485  0.1211  0.1799
13920W        W29389   7.366   4.698   2.079  0.4277  0.1242  0.0209
13921W        W29390  10.210   4.534   2.045 -0.0130  0.2415  0.0346
13922W        W29391  13.344   9.511   4.841 -0.0962  0.0385  0.3347
13923W        W29392   8.941  16.257   3.209 -0.0926  0.1267 -0.2093
13924W        W29393   1.854   3.814   4.999 -0.2355  0.0456 -0.1576
13925W        W29394   3.153  17.916   1.504  0.0727 -0.1355  0.2621
13926W        W29395   9.961   4.756  14.831 -0.0894 -0.1180  0.2889
13927W        W29396   5.549   9.094  11.234 -0.0401 -0.3470 -0.0935
13928W        W29397   0.286  10.007  12.411  0.3094 -0.1969  0.0370
13929W        W29398   0.559   4.942  10.384  0.0096  0.2082 -0.1653
13930W        W29399   7.391  15.449   2.181  0.3694  0.0131 -0.0586
13931W        W29400  11.485  18.078   1.323  0.0568 -0.1217 -0.1003
13932W        W29401  11.743   6.498   4.405 -0.0972 -0.1542  0.0386
13933W        W29402  14.009   1.086   3.776 -0.4030  0.0622 -0.3199
13934W        W29403  13.593   7.765  13.711  0.0730  0.2705 -0.0084
13935W        W29404   2.001   4.574  12.871  0.0269 -0.1270 -0.0999
13936W        W29405   6.754  17.316   2.035  0.1847 -0.1677 -0.0239
13937W        W29406  18.615  11.495   3.672  0.0585  0.1484  0.3752
13938W        W29407   7.554   8.308  11.431 -0.3626 -0.2727  0.0982
13939W        W29408  16.922   2.646  12.778  0.2522  0.1278 -0.1656
13940W        W29409   3.531  12.626   2.197 -0.0267 -0.2826  0.4056
13941W        W29410  13.214  10.451  11.269  0.3081  0.1132 -0.1590
13942W        W29411   4.057   3.716   5.604  0.0107 -0.3800 -0.0522
13943W        W29412   2.433   0.478   1.317 -0.0520  0.1394  0.2203
13944W        W29413  12.994  17.006  12.543  0.0956  0.0414 -0.3337
13945W        W29414  11.792  10.633   1.288 -0.1691 -0.0042 -0.0287
13946W        W29415   5.639  14.058  11.319  0.2487 -0.1783 -0.0799
13947W        W29416   1.381  14.557   2.298  0.3622 -0.0247  0.0681
13948W        W29417  10.525   7.911   3.706 -0.0080 -0.1150  0.0769
13949W        W29418  10.028   1.250   4.968  0.3913 -0.1329 -0.2001
13950W        W29419   3.023  12.816   0.820 -0.1081  0.0012  0.0973
13951W        W29420   2.032  18.309   0.496 -0.3954 -0.1847 -0.1051
13952W        W29421   3.574   1.847   5.154 -0.1302  0.0051 -0.0678
13953W        W29422   7.024   1.352  14.968  0.2681  0.1822 -0.0356
13954W        W29423  12.385   9.547  14.005  0.0791 -0.0079  0.0180
13955W        W29424  11.956  16.060   0.066  0.1298  0.2399  0.0489
13956W        W29425   9.621  14.984  14.360  0.1699 -0.2305  0.0098
13957W        W29426  16.179   1.906  12.873 -0.2685 -0.1614 -0.1555
13958W        W29427   5.228  11.701  14.128  0.0227  0.2546 -0.0911
13959W        W29428   1.249  16.242   2.349 -0.0945  0.2510 -0.1583
13960W        W29429   6.812  15.051  11.387 -0.2487  0.1344  0.1908
13961W        W29430   4.782   1.324  11.632 -0.0663  0.0724 -0.2533
13962W        W29431   1.138   6.361   5.109  0.1821 -0.1479  0.2587
13963W        W29432   3.328   5.266   3.518  0.3031  0.3663 -0.1353
13964W        W29433   3.140  11.028   0.054  0.1154 -0.0368  0.2356
13965W        W29434  14.084   2.764   3.013  0.0684  0.0628  0.1052
13966W        W29435   0.170   0.794  11.031  0.3336  0.2670  0.0779
13967W        W29436   8.731   5.660  13.505  0.0256 -0.0153 -0.1531
13968W        W29437   4.610  18.259  11.708  0.3699 -0.0877  0.0771
13969W        W29438   4.827  16.221  12.367  0.3007 -0.1719  0.1311
13970W        W29439  12.516   3.559  12.646 -0.0958 -0.1140 -0.1318
13971W        W29440  12.964   1.969  14.695  0.2647  0.1416  0.0750
13972W        W29441   2.618  13.587   2.941 -0.2210  0.2347  0.2547
13973W        W29442  10.786   8.934   0.493 -0.0723 -0.0033  0.2103
13974W        W29443   8.482  16.979   0.816 -0.1261 -0.3364  0.2498
13975W        W29444  18.884   8.620  11.447 -0.3227 -0.0622  0.0290
13976W        W29445   8.112   4.330   5.040  0.1028  0.3741  0.0221
13977W        W29446   6.892  10.065   2.761  0.4274 -0.0343 -0.0025
13978W        W29447   5.877  15.959   1.483  0.2078  0.0626  0.0159
13979W        W29448   0.392   9.286   3.420 -0.0504  0.1995  0.0165
13980W        W29449   4.522   0.590  13.994 -0.1031 -0.3056 -0.0841
13981W        W29450   6.250   9.230   0.254 -0.0595  0.0051  0.3220
13982W        W29451  11.421   5.168  10.910  0.2087  0.1667 -0.1687
13983W        W29452   8.243  18.150  14.927 -0.0901  0.0803  0.1333
13984W        W29453  18.178   9.548   2.272  0.1899  0.1158  0.0217
13985W        W29454   5.108   3.702  11.263  0.0403 -0.2477 -0.0128
13986W        W29455   1.977  13.988  15.339  0.2558 -0.2235 -0.1202
13987W        W29456   3.404   7.016  14.822  0.1013  0.1118 -0.0483
13988W        W29457   3.638   6.513  10.191  0.2338  0.0003  0.0498
13989W        W29458   1.619  17.033   3.126 -0.1971 -0.3543  0.1649
13990W        W29459   5.438   5.402  10.606  0.1594  0.1660  0.1011
13991W        W29460   5.826   5.449   0.271 -0.1986  0.0692 -0.0656
13992W        W29461   8.120   3.020   4.689 -0.0685 -0.0590  0.0542
13993W        W29462   4.849   4.344  11.832  0.0488  0.0151  0.1466
13994W        W29463  12.593  18.237   1.483 -0.1905 -0.4055  0.2058
13995W        W29464   5.188   7.007  12.536  0.0038 -0.1440 -0.0854
13996W        W29465  12.770  17.021   4.031  0.4098  0.3106 -0.0477
13997W        W29466  18.626  10.100  10.112  0.0525  0.1677 -0.0060
13998W        W29467   4.784  18.258   0.183  0.1304  0.2522 -0.2317
13999W        W29468   7.322   5.537  12.435  0.2130  0.1733  0.0872
14000W        W29469  18.501   5.637  12.392 -0.2582 -0.0333  0.2315
14001W        W29470  17.563  17.974  15.167 -0.0697 -0.1428 -0.2634
14002W        W29471  11.974  10.055   2.023 -0.0251 -0.1360 -0.0374
14003W        W29472  17.420  11.516  12.963 -0.0460  0.0849 -0.2148
14004W        W29473   2.442   8.232   4.996  0.2870  0.1007  0.1491
14005W        W29474   8.119   2.607   5.120 -0.2765 -0.0026  0.1215
14006W        W29475   7.998   1.506   6.235 -0.0520  0.1748 -0.2961
14007W        W29476   3.066   0.028  13.917 -0.2185  0.0175 -0.0827
14008W        W29477   9.720   6.661  10.837 -0.0628  0.1437  0.0197
14009W        W29478  17.169   8.396  12.785  0.3027  0.3072 -0.1391
14010W        W29479   6.806   0.847  11.645 -0.1836 -0.1805 -0.1874
14011W        W29480   3.779   5.305  13.517  0.3498  0.0039  0.1598
14012W        W29481   0.019   3.657  14.442  0.3120  0.0887  0.1619
14013W        W29482   4.083   6.022  11.953 -0.4128  0.3257  0.3247
14014W        W29483  14.385  11.592  12.081 -0.2356  0.3848 -0.2040
14015W        W29484   7.878   9.379   4.048  0.0582  0.1054 -0.1333
14016W        W29485   9.117   5.668   0.771  0.2059  0.1239  0.3589
14017W        W29486  16.481   2.786  12.316  0.2059 -0.1798  0.0989
14018W        W29487  10.413  18.998  12.849  0.2317  0.2809  0.3205
14019W        W29488   0.888  11.929  10.771 -0.0007  0.2980 -0.0989
14020W        W29489   4.310   7.251  13.849 -0.1666  0.2638  0.2631
14021W        W29490   0.304   8.517   2.948  0.2070 -0.0300  0.0490
14022W        W29491   9.506  15.257  12.070  0.2329 -0.0951 -0.1131
14023W        W29492  10.010  12.185   4.501 -0.1409 -0.1477  0.0590
14024W        W29493   2.005  12.778  10.807  0.0216 -0.2681 -0.0607
14025W        W29494   3.299   2.639  10.774 -0.2141 -0.1463 -0.2139
14026W        W29495   2.055  14.806   0.103  0.1828  0.2159  0.1970
14027W        W29496   4.410  14.909  15.316  0.0484 -0.2931 -0.2315
14028W        W29497   0.554  18.373  13.728 -0.0109 -0.1480  0.0796
14029W        W29498  15.596  12.154  11.745  0.1790 -0.0741  0.0539
14030W        W29499  13.216   6.745  12.436  0.0935 -0.1723  0.1537
14031W        W29500   9.023  16.108  11.976  0.0147  0.0041  0.0978
14032W        W29501   8.050   1.368   3.195 -0.1348 -0.2551  0.0980
14033W        W29502  18.184   2.555  15.051 -0.0321 -0.0656 -0.2118
14034W        W29503  13.424  15.971   2.952 -0.1406  0.0271 -0.0733
14035W        W29504   8.289   7.655   3.319  0.3681  0.2548  0.3230
14036W        W29505   4.377   4.502  13.660 -0.0005  0.2195  0.1814
14037W        W29506   2.629   9.067   1.352 -0.1932 -0.0308  0.1578
14038W        W29507  15.445  14.630   4.626  0.1185 -0.0978  0.0083
14039W        W29508  12.033   2.441   4.938 -0.1514 -0.0839  0.1052
14040W        W29509  18.982   5.585  14.449  0.1047 -0.0695  0.1597
14041W        W29510   5.697  15.494   1.924  0.0516 -0.2544 -0.0135
14042W        W29511  17.284  14.195  13.458  0.1477  0.0939  0.0209
14043W        W29512   3.032   2.779   6.155 -0.0138 -0.1172 -0.4245
14044W        W29513   6.820   2.695  12.565 -0.0736 -0.0406  0.0741
14045W        W29514  13.334  17.714  12.538 -0.0475  0.1145  0.2419
14046W        W29515   2.822  17.351   2.425 -0.1988  0.0356 -0.0235
14047W        W29516  17.708  18.007   0.561  0.1796 -0.0986 -0.0022
14048W        W29517   3.960   3.648  13.719  0.2069 -0.0292 -0.2721
14049W        W29518  12.581   9.180  11.516 -0.2610  0.4431 -0.2162
14050W        W29519  18.109   7.998  10.441  0.1942 -0.0342 -0.1222
14051W        W29520   6.103   9.908  10.353 -0.4384  0.1469 -0.2167
14052W        W29521   8.225  12.629   4.548  0.1259 -0.1227 -0.0570
14053W        W29522  15.288  18.920   1.404 -0.1483  0.1040  0.1102
14054W        W29523  17.897  11.605  13.872 -0.2922 -0.4031  0.2705
14055W        W29524  14.410  16.344   0.970  0.2383  0.5126 -0.0579
14056W        W29525   1.601  18.756   4.382  0.4052  0.0439 -0.0240
14057W        W29526   5.130   3.312   4.770  0.4643  0.1335  0.2750
14058W        W29527   4.444  12.470   4.238 -0.2032 -0.2640  0.2910
14059W        W29528  11.699  13.647   1.453 -0.1154 -0.1240 -0.2893
14060W        W29529  18.192  16.234  11.249  0.1754 -0.0440  0.2354
14061W        W29530   8.207   9.603   5.804  0.2288  0.1775  0.1503
14062W        W29531  17.542  15.736  14.354  0.1896 -0.0109  0.1704
14063W        W29532   2.569   3.857  14.201 -0.1658 -0.0236  0.1817
14064W        W29533   4.991  11.605  12.126 -0.3285  0.1245  0.0407
14065W        W29534   9.305  11.385  11.018 -0.1920  0.1829 -0.2127
14066W        W29535  13.811  17.767   0.947  0.0279  0.1625  0.0647
14067W        W29536   7.560  17.343   3.916 -0.0505  0.1725  0.0647
14068W        W29537  16.622  10.801   0.486 -0.0944 -0.1193 -0.0349
14069W        W29538  10.797   6.638   2.732  0.4818  0.0736  0.0798
14070W        W29539   2.092  13.892   0.480 -0.3601 -0.0871 -0.0761
14071W        W29540   7.275   8.218  10.958 -0.0552 -0.2411  0.1038
14072W        W29541   2.733  11.161  10.561 -0.1614  0.1404  0.1000
14073W        W29542  11.874   5.100   4.321  0.1036  0.1068 -0.2051
14074W        W29543   5.332  18.894  15.172 -0.2067  0.0826 -0.3267
14075W        W29544   2.470  11.843  14.525 -0.1449 -0.3681  0.5561
14076W        W29545  16.495   4.879  10.818 -0.4226 -0.0464 -0.3213
14077W        W29546   2.437   5.547  13.101  0.3461 -0.0120  0.1828
14078W        W29547  18.650  15.618  14.945 -0.4337 -0.0966 -0.2159
14079W        W29548  10.560  13.173   3.201  0.1137 -0.0228 -0.0273
14080W        W29549   1.577  13.641  13.326  0.0499 -0.0962  0.3106
14081W        W29550  16.395  12.222  13.972  0.1562  0.0876 -0.2739
14082W        W29551  13.713   1.743  12.568 -0.1318 -0.0042  0.1357
14083W        W29552   6.927  15.204   5.256 -0.0203  0.0830 -0.0976
14084W        W29553  13.022  12.985   5.132 -0.3385  0.0726 -0.2056
14085W        W29554  10.517  15.002  12.009  0.1394 -0.1271 -0.2609
14086W        W29555   3.480   4.339  14.019 -0.2620 -0.1871  0.3650
14087W        W29556   8.661   1.524   4.924 -0.2095 -0.4586 -0.2273
14088W        W29557   9.275   5.677  14.777 -0.1983 -0.2889  0.1061
14089W        W29558   6.020  14.680   0.070 -0.0307 -0.1419  0.2092
14090W        W29559  16.313  17.641   1.980  0.2033 -0.1691 -0.1220
14091W        W29560   7.977  17.083   1.715  0.3479 -0.0839 -0.0546
14092W        W29561  10.153  16.839   0.117 -0.1769 -0.2301  0.2102
14093W        W29562   7.312   7.260  12.456  0.0559 -0.0768  0.1177
14094W        W29563  13.262   8.798  14.754 -0.1224  0.1705 -0.0996
14095W        W29564  12.212   9.280   4.401 -0.4147 -0.1399 -0.0726
14096W        W29565   9.791  10.287   2.809  0.3168  0.2785  0.0452
14097W        W29566  16.331   0.144   0.897 -0.0391 -0.0314  0.0863
14098W        W29567   9.922   4.778  13.931  0.4236  0.2008  0.2270
14099W        W29568   8.824  14.909   1.331  0.0837  0.2222 -0.1483
14100W        W29569   8.004   6.597   3.180 -0.2973  0.0506 -0.0592
14101W        W29570  14.624   7.116  10.909  0.0073  0.1843  0.1849
14102W        W29571  12.510  10.976   0.436 -0.1809  0.3119 -0.2135
14103W        W29572   1.845   5.912  14.538  0.5568  0.5069  0.1540
14104W        W29573  14.407   9.572   4.219 -0.1454 -0.0374 -0.1660
14105W        W29574   8.920   8.981   3.150  0.0508  0.2760 -0.2306
14106W        W29575  17.535   1.478   2.862  0.0151 -0.0064 -0.0623
14107W        W29576   8.621  18.076   4.248  0.0043 -0.3845 -0.2327
14108W        W29577  18.727   4.582  10.890 -0.0870 -0.3334  0.2606
14109W        W29578   7.411  12.289   4.684 -0.2100 -0.1171 -0.0520
14110W        W29579  14.622  13.851  11.357 -0.2197 -0.0853 -0.1126
14111W        W29580  12.689  15.746  14.204 -0.1045 -0.0920 -0.1908
14112W        W29581  14.611   1.319   4.032 -0.2290 -0.1216  0.0776
14113W        W29582   9.967   0.845  12.923 -0.4270  0.0549 -0.2208
14114W        W29583  17.745   8.513   3.298  0.0655 -0.3580 -0.0938
14115W        W29584   3.215  13.648  12.481  0.1969 -0.1089 -0.1224
14116W        W29585   6.792  16.843   3.754  0.0233  0.0656 -0.3586
14117W        W29586   3.991  11.385   9.923 -0.2956 -0.0766  0.1086
14118W        W29587   6.101  14.941   4.137  0.1296 -0.1631  0.0787
14119W        W29588   2.524   5.850   9.965  0.1901 -0.0794  0.0303
14120W        W29589   9.565   2.379   4.925  0.1144 -0.1901 -0.2546
14121W        W29590   5.270   6.023   4.210 -0.1092  0.2836 -0.2898
14122W        W29591   3.513   0.532   2.127  0.1255  0.2410  0.3615
14123W        W29592   9.020  11.663   5.215 -0.1568 -0.0844 -0.2816
14124W        W29593  11.213   5.649  14.951 -0.2777  0.0390 -0.1152
14125W        W29594  14.579   3.770   5.432  0.0398 -0.1450 -0.0650
14126W        W29595  16.836   6.272   3.382  0.1170  0.0588 -0.3495
14127W        W29596  14.012  11.135   2.829 -0.0353  0.0702 -0.1164
14128W        W29597  10.930  11.672   2.471 -0.1707  0.1200  0.0731
14129W        W29598  18.283   7.627  10.064 -0.4845  0.1254 -0.3790
14130W        W29599  14.004   3.610   4.718 -0.2064  0.2692  0.3306
14131W        W29600   3.152   1.250   3.620 -0.0954  0.0559 -0.0943
14132W        W29601  16.204   2.992  11.937 -0.0922  0.2526  0.1439
14133W        W29602  17.652   9.655  10.182 -0.1353  0.0291 -0.1953
14134W        W29603   5.080   8.769  14.791 -0.0627  0.0720  0.3459
14135W        W29604  13.725  17.951   9.670  0.0771 -0.0011 -0.0646
14136W        W29605   9.928   4.452  14.337 -0.0598  0.1540 -0.0791
14137W        W29606   9.800  13.561  14.902 -0.2022  0.4285  0.0626
14138W        W29607  12.001   9.895  11.289  0.4028  0.1154 -0.2184
14139W        W29608   2.955   0.850  12.616 -0.2679  0.0495 -0.2305
14140W        W29609   5.240  10.889  14.072 -0.1696  0.0307 -0.1623
14141W        W29610   5.167   3.589   2.753  0.1632  0.2216  0.1605
14142W        W29611   7.840  15.159  14.680  0.1803  0.2638  0.0110
14143W        W29612  11.465   1.927   1.649 -0.3618 -0.0383  0.1966
14144W        W29613   4.888  16.040   1.516  0.0201 -0.4749 -0.1642
14145W        W29614  14.524  13.340  14.482 -0.2293  0.1845  0.0071
14146W        W29615  15.158  13.412   4.082  0.0403 -0.0912  0.3314
14147W        W29616   8.343   4.026   0.841 -0.1579  0.1776  0.1957
14148W        W29617   5.895   2.825   4.678 -0.1508 -0.0772  0.2901
14149W        W29618  13.209  13.883   1.360 -0.0700  0.1714 -0.2029
14150W        W29619   8.114  18.203  13.581 -0.4802  0.0851 -0.0224
14151W        W29620  12.561  15.670   2.445  0.3769  0.4843  0.1426
14152W        W29621  16.347   7.610  15.222  0.1406  0.1302 -0.3786
14153W        W29622   7.469   2.635  11.353 -0.1222 -0.1869  0.0860
14154W        W29623  12.923   6.714  11.237 -0.0041  0.0346 -0.0797
14155W        W29624  14.354  12.952   4.052  0.0708  0.2000 -0.1296
14156W        W29625   5.995  18.854  12.569 -0.1717 -0.0032 -0.5472
14157W        W29626   8.877  13.617  10.445  0.0343 -0.1621  0.0354
14158W        W29627  18.407  15.514  10.350 -0.0627  0.0067 -0.1161
14159W        W29628   2.982  16.954  14.149  0.2052  0.1615 -0.2040
14160W        W29629   9.875   5.137   3.795  0.1835  0.3749 -0.0266
14161W        W29630   4.757  17.476   3.271 -0.0342  0.4344 -0.1299
14162W        W29631  13.034  17.823  13.961  0.0120 -0.2014 -0.0643
14163W        W29632  15.095   3.385  14.019 -0.2175  0.0982 -0.1190
14164W        W29633  17.689  18.665   1.978 -0.0669 -0.0276  0.1641
14165W        W29634  16.313   7.601  13.001 -0.1603 -0.0678  0.0536
14166W        W29635   3.749   2.688  13.178  0.2327 -0.3529 -0.0929
14167W        W29636   5.563  16.787  11.888  0.1454 -0.2210 -0.1857
14168W        W29637   1.880   4.314   3.690 -0.2239 -0.1375  0.4501
14169W        W29638  11.227   3.373   1.350 -0.1413 -0.1151  0.2401
14170W        W29639  12.775   1.988   2.412 -0.4778 -0.0013 -0.1363
14171W        W29640   1.431   3.035   1.043 -0.1510 -0.0893 -0.1269
14172W        W29641   5.041  10.829  11.748 -0.2555 -0.0653 -0.1475
14173W        W29642   6.505  10.857  13.907 -0.0155 -0.0480  0.0409
14174W        W29643  15.420  15.533  13.161  0.0208  0.0537  0.3266
14175W        W29644  17.447  10.679  13.202  0.2276  0.1323 -0.6285
14176W        W29645   3.899   7.521  13.137 -0.2300  0.0610  0.0626
14177W        W29646  11.299   9.299   2.515  0.0614 -0.2032 -0.0944
14178W        W29647  17.471  12.063  15.243  0.0139 -0.0068 -0.3358
14179W        W29648   3.501   3.963   4.908 -0.1749  0.2327  0.0875
14180W        W29649   2.884  15.140   0.048  0.2390 -0.0338 -0.0433
14181W        W29650  11.470  10.672   5.082 -0.0113 -0.0127 -0.2535
14182W        W29651   1.831   5.825   4.989 -0.1059 -0.0135  0.0910
14183W        W29652   3.953  15.906   4.192 -0.0199 -0.0554 -0.3659
14184W        W29653   3.850  10.179  11.261 -0.1271  0.2539 -0.3842
14185W        W29654   6.082   3.645   1.043 -0.1622 -0.2615 -0.3603
14186W        W29655  15.453   1.855   2.721  0.0215  0.2097 -0.2823
14187W        W29656  14.953   4.144  12.670 -0.0546 -0.1326 -0.2253
14188W        W29657   6.783  14.498   0.544  0.1236 -0.1544 -0.2103
14189W        W29658   2.497   9.882   5.387 -0.1801 -0.1384 -0.0247
14190W        W29659  17.177  11.055  14.494 -0.4607  0.1466  0.0060
14191W        W29660   6.630   6.039   3.452 -0.0161  0.2590 -0.0448
14192W        W29661  10.190   5.975   4.021  0.0235 -0.2469 -0.0145
14193W        W29662   9.960  10.733   2.590  0.4195 -0.3943  0.1132
14194W        W29663  10.181  17.049   2.282 -0.2580 -0.0327 -0.1877
14195W        W29664   8.395   7.806  11.954  0.1814  0.0592 -0.0250
14196W        W29665  15.115   2.251  11.535 -0.2699 -0.0349  0.0037
14197W        W29666   2.716  11.562  13.705  0.0799  0.0067  0.4953
14198W        W29667   4.722  13.306   4.423  0.1597  0.0725  0.2229
14199W        W29668  18.718  11.715  12.174 -0.2181  0.0462 -0.3376
14200W        W29669   0.251   4.457  14.426 -0.3286 -0.0767 -0.3713
14201W        W29670  13.223   9.160  10.684 -0.1561  0.0958  0.2217
14202W        W29671   6.311   9.447  14.971 -0.0002 -0.0472 -0.1932
14203W        W29672  11.509  12.113  13.211  0.1179 -0.1400  0.2597
14204W        W29673   2.766  18.506  13.227 -0.2236 -0.4152  0.3737
14205W        W29674   9.522   6.698   4.715  0.0089 -0.4556  0.2863
14206W        W29675  18.298  15.385  15.198 -0.0560  0.2762  0.2288
14207W        W29676   5.462  11.410   1.279 -0.0468 -0.3883 -0.0372
14208W        W29677   3.766  16.931   0.374  0.0301 -0.5541  0.1255
14209W        W29678   0.635   6.201  11.204 -0.1067 -0.1479  0.0621
14210W        W29679  11.880   5.616  11.530 -0.2132 -0.1354  0.1387
14211W        W29680  13.955  14.378  13.481  0.3579  0.3894 -0.3096
14212W        W29681  14.503  16.557  11.554 -0.2587  0.2256 -0.1797
14213W        W29682   8.017  14.726  10.761  0.1926 -0.0282  0.0630
14214W        W29683  14.606  17.181   1.471  0.1478 -0.1564  0.2376
14215W        W29684  17.917   7.040  14.694 -0.4003  0.3447  0.1066
14216W        W29685  13.727   6.606   3.941 -0.2899  0.0199  0.0683
14217W        W29686  15.242   5.786   4.365 -0.0180 -0.1280  0.0400
14218W        W29687   0.390  18.260   4.620 -0.6071 -0.0790 -0.1214
14219W        W29688  17.787   8.939   2.987 -0.0462  0.0087 -0.3056
14220W        W29689  11.498  14.851  11.242  0.3349 -0.0828 -0.0806
14221W        W29690   5.702  12.110   0.426 -0.1652  0.1279  0.2320
14222W        W29691   5.968  18.162   0.786 -0.2549 -0.0094 -0.1369
14223W        W29692  12.594   2.354  12.014  0.1291 -0.1274  0.0798
14224W        W29693  15.765   5.892   2.296  0.1992 -0.4532 -0.0784
14225W        W29694   9.648   4.552   3.732 -0.0906  0.1302  0.4462
14226W        W29695   8.194   0.236  14.156  0.0664  0.0680  0.2416
14227W        W29696  12.630   8.866   2.329  0.1651  0.0811  0.1142
14228W        W29697   5.267  17.298   3.183  0.0961  0.2273  0.0321
14229W        W29698   5.180   0.625   3.668  0.1168  0.2673 -0.3425
14230W        W29699  13.541   1.910   4.282 -0.3080 -0.0497  0.1648
14231W        W29700   4.051  15.875  14.389  0.3085  0.2732  0.1477
14232W        W29701   7.332   8.533  10.474  0.3207  0.1515 -0.0049
14233W        W29702   3.313  10.086   2.203  0.2958 -0.1355  0.2793
14234W        W29703  17.378   2.715   0.224  0.1775 -0.0442  0.0330
14235W        W29704   9.057  12.099   2.991 -0.1309 -0.2506  0.2767
14236W        W29705   9.714   7.270  10.683  0.1518 -0.0823 -0.0565
14237W        W29706   3.011   4.159   2.360  0.1898 -0.0342  0.0390
14238W        W29707   8.978  10.325  12.607  0.1514 -0.0680 -0.2829
14239W        W29708   0.672  18.213  12.140 -0.2109 -0.0303  0.1472
14240W        W29709   1.798   6.729  12.352 -0.0810  0.0953  0.1103
14241W        W29710   1.043  17.416   4.906  0.2077  0.2188 -0.2275
14242W        W29711   7.534  12.064  11.653  0.2628 -0.2014  0.1085
14243W        W29712  17.031  11.560   4.108 -0.2048 -0.1722  0.4427
14244W        W29713  14.822  12.449   2.099 -0.1704  0.0641 -0.1493
14245W        W29714  11.945   6.013   0.836 -0.0753  0.1453  0.4771
14246W        W29715   6.312  11.957  12.984 -0.1147  0.1935 -0.0151
14247W        W29716  11.107   4.973   0.224 -0.0991 -0.0091 -0.1959
14248W        W29717   6.918  11.627   1.745  0.2445  0.1008  0.3121
14249W        W29718   0.126  11.960  14.964  0.1495  0.0643  0.0865
14250W        W29719   1.621  16.477  14.826  0.3015 -0.1807 -0.1911
14251W        W29720   8.533  15.911   1.033  0.2385 -0.0105 -0.0039
14252W        W29721   6.768  17.890  13.668  0.3708 -0.0700 -0.1270
14253W        W29722   8.853  12.184   1.624 -0.0138  0.0377 -0.0547
14254W        W29723  11.673  14.119   4.598 -0.0386 -0.0300  0.0496
14255W        W29724  15.122   0.836  14.005 -0.2699  0.0301  0.2778
14256W        W29725  12.050  11.329   5.584  0.2110  0.1706 -0.2308
14257W        W29726   1.102   3.177   0.389 -0.2204 -0.0429 -0.0783
14258W        W29727  17.863  11.696  10.836  0.1043 -0.1256  0.2003
14259W        W29728  15.361  14.126   3.672 -0.1837  0.1800  0.1216
14260W        W29729  14.594  15.024   3.797  0.2684 -0.0609 -0.1332
14261W        W29730  13.466   6.678   3.573  0.3614 -0.1598 -0.0156
14262W        W29731  16.028   9.367  11.800 -0.1271  0.2136 -0.1379
14263W        W29732   6.150   7.741   3.840  0.0417  0.2841 -0.0204
14264W        W29733   5.898  17.365  12.466 -0.2270 -0.1587 -0.0134
14265W        W29734  11.465   1.318   5.820 -0.1926  0.3501  0.0879
14266W        W29735  10.967  10.265  13.358 -0.1433  0.0806 -0.0321
14267W        W29736  18.513   7.798   5.363 -0.1365 -0.1358 -0.1005
14268W        W29737   0.336   6.828   2.411  0.2940  0.2805 -0.0903
14269W        W29738  14.054  17.147  15.235  0.4705 -0.2455 -0.2656
14270W        W29739   7.885   8.812   2.757 -0.2193  0.1558  0.2878
14271W        W29740   1.375  15.209   0.920  0.1348  0.4124  0.2914
14272W        W29741   1.462   7.313  10.526  0.0176  0.0220 -0.1979
14273W        W29742   7.185  18.222  13.793  0.3435  0.1720  0.0655
14274W        W29743  17.153   3.368  14.103  0.3838 -0.0944  0.1415
14275W        W29744  12.361  17.851  15.313  0.0599  0.0150  0.0800
14276W        W29745   9.643  10.670  11.442  0.2465 -0.1192 -0.1600
14277W        W29746  16.210  15.683  11.182 -0.1025 -0.1245  0.0262
14278W        W29747  14.482   1.160   2.163 -0.1329  0.0354 -0.0616
14279W        W29748  18.137  11.584   2.085  0.0001 -0.0994  0.1590
14280W        W29749  12.736   7.069   3.700  0.1383  0.0497 -0.0404
14281W        W29750  17.505   3.200   2.049 -0.3387 -0.2835  0.1850
14282W        W29751  10.506  17.686   0.104  0.0052  0.0973 -0.1478
14283W        W29752  18.237  18.761  12.997  0.3045 -0.1198 -0.0262
14284W        W29753  16.693  11.993   4.310  0.0405  0.1449  0.0269
14285W        W29754  15.394  13.212   4.681 -0.1989  0.0234 -0.1234
14286W        W29755   4.672  12.816   2.482 -0.1137  0.0168  0.1545
14287W        W29756   2.533  12.605  13.267  0.0638 -0.2828 -0.0857
14288W        W29757   6.737   2.943  14.557 -0.1550 -0.1828  0.2608
14289W        W29758   4.004  10.461   2.065  0.0922  0.0296 -0.0177
14290W        W29759  11.085   0.180  11.115 -0.1768 -0.0080  0.2657
14291W        W29760   1.564   0.854   2.092  0.0362 -0.2652 -0.2000
14292W        W29761   1.637   1.849  12.777  0.4976 -0.1499  0.1639
14293W        W29762  18.440  11.903  13.285 -0.1360 -0.3130  0.0404
14294W        W29763  16.889   9.736  11.614  0.2059  0.5353  0.0420
14295W        W29764   3.920  15.337  14.394 -0.0882 -0.1142 -0.1492
14296W        W29765   9.182   1.748  15.031 -0.1003 -0.1756 -0.2032
14297W        W29766   8.149  11.055  14.893 -0.3243  0.1807  0.1359
14298W        W29767   9.967  16.593   1.092 -0.2488 -0.1348  0.2956
14299W        W29768  10.275  11.510  13.390  0.0798  0.1104 -0.2157
14300W        W29769   5.307  13.484  14.468 -0.0763 -0.0040 -0.1373
14301W        W29770  11.685   0.338  13.463 -0.2278 -0.2093 -0.1984
14302W        W29771   5.389  12.352  10.692 -0.2097 -0.0638 -0.1722
14303W        W29772   1.848   6.664  12.929  0.0306 -0.1030 -0.0775
14304W        W29773   3.747   2.390  10.917  0.1842 -0.0336  0.1832
14305W        W29774  11.477  15.476   3.089 -0.0654  0.1288 -0.1379
14306W        W29775  16.772   6.641  10.145  0.0252 -0.0682 -0.4185
14307W        W29776  11.588   3.241  12.152 -0.0704  0.1868  0.0219
14308W        W29777  13.394   2.253  10.758  0.0600  0.1916 -0.2042
14309W        W29778   5.375   3.424   2.161 -0.1174  0.0176 -0.0444
14310W        W29779  10.909  16.941   1.175 -0.0950  0.3591 -0.0677
14311W        W29780   1.797  10.048  13.570  0.0329 -0.1250  0.1319
14312W        W29781  16.763  15.205   4.586  0.3171  0.3215  0.3498
14313W        W29782  16.445  10.459  14.576  0.0858  0.0490 -0.0533
14314W        W29783   1.350   4.727  13.357 -0.1676 -0.1051 -0.2448
14315W        W29784   6.490   7.206  13.167  0.0892 -0.1783 -0.3960
14316W        W29785  14.812   8.611   1.265 -0.0914 -0.0931 -0.0188
14317W        W29786   8.137   2.027  14.585 -0.2350  0.1144 -0.2008
14318W        W29787   9.564   2.433  13.249 -0.2545  0.2463 -0.2322
14319W        W29788   7.272  11.526  10.325 -0.0775 -0.2310  0.0063
14320W        W29789   8.568   6.651  11.019 -0.1237 -0.0972  0.0752
14321W        W29790   5.340  14.264  12.856  0.0921  0.1657 -0.0970
14322W        W29791  17.869  14.939  11.587 -0.0056  0.2818 -0.1240
14323W        W29792   5.247   9.170   5.531 -0.1048  0.1312  0.0182
14324W        W29793   6.915   6.648   5.232 -0.0815  0.1441 -0.6116
14325W        W29794   4.411  15.114   3.921 -0.1256  0.2000 -0.1946
14326W        W29795   1.298  10.818   0.075  0.1238  0.1664  0.3127
14327W        W29796   6.353   4.127   4.336  0.0985  0.1642  0.0942
14328W        W29797   6.364  15.943  11.265  0.3168 -0.0890  0.2168
14329W        W29798  18.246  15.272  11.462  0.3091 -0.0791  0.3682
14330W        W29799  15.523  14.794   3.523  0.1577  0.0368 -0.1412
14331W        W29800   9.621   2.801   1.107 -0.0342  0.2558  0.0107
14332W        W29801  13.755   9.112   0.617  0.4109  0.1173  0.0761
14333W        W29802  11.234  17.249  10.352  0.0493  0.0085 -0.0099
14334W        W29803   7.095   4.939  13.048  0.0084 -0.2090  0.1781
14335W        W29804   7.868   2.337  13.127  0.2619 -0.0431 -0.1623
14336W        W29805  18.627   5.323  12.804 -0.2148  0.1912  0.1474
14337W        W29806   4.810  17.040   5.327 -0.1513  0.1998  0.0247
14338W        W29807   5.914  11.855  11.201  0.0875 -0.1631 -0.1950
14339W        W29808   7.479  14.569  13.187 -0.4130 -0.3309 -0.0217
14340W        W29809   6.457   0.244   4.426  0.0606 -0.1827 -0.0186
14341W        W29810   6.967  11.614  13.403  0.0522  0.1802  0.1950
14342W        W29811  15.325  14.816   2.411 -0.0805 -0.0477  0.0922
14343W        W29812   5.327   4.790   4.510  0.4125  0.0740 -0.2192
14344W        W29813  17.108   0.525  10.303  0.3810 -0.1542  0.1838
14345W        W29814   1.390  14.475  10.760 -0.2267 -0.3403  0.0756
14346W        W29815  18.988   3.698  11.549  0.0382 -0.1406 -0.0614
14347W        W29816   1.345  10.117  13.427  0.2448  0.1065 -0.0440
14348W        W29817  14.684  11.908  15.076 -0.0615 -0.0658  0.0525
14349W        W29818  15.169   9.877  10.921 -0.0802  0.0976 -0.1011
14350W        W29819  11.692   8.248  12.231  0.0409 -0.1719  0.2286
14351W        W29820   2.446   7.491  12.466 -0.0190  0.1553  0.0625
14352W        W29821  10.200  16.736   3.082  0.1826  0.1211  0.1891
14353W        W29822  14.041   5.009  11.345 -0.0831  0.0904 -0.2063
14354W        W29823  10.587  14.929   4.688  0.0391 -0.1589  0.1434
14355W        W29824   1.591   1.448  14.133  0.1656  0.1238  0.0004
14356W        W29825   8.991  12.384   1.043  0.0378 -0.2586  0.0993
14357W        W29826   3.200  18.602   2.239  0.0269  0.1949 -0.1165
14358W        W29827   8.806   9.370   3.854  0.2327  0.0257 -0.2299
14359W        W29828   8.046  18.304  14.092  0.1492  0.0169  0.4722
14360W        W29829   4.810   1.867   1.296  0.0203 -0.1864  0.0508
14361W        W29830  13.297   4.461   3.019  0.0271 -0.2659  0.0949
14362W        W29831   2.466   8.318   1.561  0.1142 -0.0435  0.0761
14363W        W29832   0.210  12.739  15.251  0.0996  0.0931  0.1030
14364W        W29833  14.678   9.318   3.240  0.1636 -0.0819 -0.0700
14365W        W29834   9.053   2.928  12.199 -0.0249 -0.1652 -0.0708
14366W        W29835  12.285  13.249  14.038  0.3107 -0.0649  0.1397
14367W        W29836   7.322   8.870   5.609  0.0568  0.1946 -0.2418
14368W        W29837   9.407  12.790   3.410 -0.3993  0.1093 -0.0069
14369W        W29838   0.984  10.813  12.501 -0.2144 -0.4355 -0.3564
14370W        W29839   6.903  16.024  10.482  0.0005 -0.0958  0.0551
14371W        W29840   3.479   2.096  12.096  0.2049 -0.0425  0.1511
14372W        W29841   2.578   1.176  14.947  0.0661 -0.2309 -0.1652
14373W        W29842  17.680   0.663   3.547 -0.0925 -0.1214  0.1793
14374W        W29843   3.566  11.517  14.298 -0.2178 -0.1513  0.0603
14375W        W29844   9.754  13.881  11.745 -0.0868  0.1131 -0.1979
14376W        W29845   3.304  10.663   0.392 -0.3128 -0.2741  0.0746
14377W        W29846  12.533   2.879   1.585  0.1773 -0.1799  0.0146
14378W        W29847  18.721  14.908   2.064  0.1431 -0.3262 -0.2488
14379W        W29848   6.751   3.556   5.350 -0.2621 -0.5896 -0.0309
14380W        W29849  10.808   2.290   1.191 -0.3445  0.2931  0.1501
14381W        W29850   9.837  11.851   1.426  0.2777  0.1750 -0.2972
14382W        W29851  11.743  11.063   3.833 -0.2060 -0.0453  0.0400
14383W        W29852   0.724  13.073  13.961 -0.1327  0.2891  0.0293
14384W        W29853   5.901   0.998  15.102 -0.1184 -0.0627 -0.4893
14385W        W29854   0.142   2.506  12.738  0.2703  0.1573  0.2618
14386W        W29855   9.317  10.694  12.855  0.1032  0.0499 -0.3426
14387W        W29856   9.055  14.010   5.834  0.0767 -0.3314 -0.1721
14388W        W29857   9.537   7.977  13.856 -0.0925 -0.1899  0.0290
14389W        W29858   8.402  18.754   1.287  0.0885 -0.0116 -0.1345
14390W        W29859  15.076  18.554  14.503  0.0987 -0.1445  0.0795
14391W        W29860   7.117  12.410   0.075 -0.1667  0.1643 -0.0296
14392W        W29861  15.043  17.994   3.588  0.0043  0.1360  0.1361
14393W        W29862  12.082  18.813   2.146  0.1829 -0.2486  0.3108
14394W        W29863   2.403   8.501   2.015 -0.1026 -0.2752  0.1563
14395W        W29864   4.134  14.120   0.314 -0.0324  0.2456 -0.4375
14396W        W29865  14.549   6.284   5.460  0.0513  0.1639 -0.0125
14397W        W29866   3.117  11.299   1.387 -0.0680 -0.1747  0.0446
14398W        W29867  12.892  12.993  12.316 -0.0235  0.3337  0.0156
14399W        W29868   4.307   3.862  10.966  0.2573 -0.2040 -0.2417
14400W        W29869   1.518   9.277  13.208  0.1899  0.0978 -0.1641
14401W        W29870  17.821  11.534   1.194  0.1818  0.1328  0.1593
14402W        W29871   9.169   0.769   2.356  0.1024  0.2041  0.2197
14403W        W29872  12.631  13.307   4.065 -0.2109 -0.0124  0.2494
14404W        W29873  14.361   6.653  13.406 -0.1731 -0.0739 -0.2031
14405W        W29874   8.018   5.869   2.754 -0.0030 -0.1400 -0.0703
14406W        W29875   5.762   1.134  14.634  0.1738 -0.1877 -0.1449
14407W        W29876  12.805  11.743   3.606  0.0493 -0.2146 -0.1329
14408W        W29877   3.564   2.020  13.726  0.0830 -0.4522 -0.3302
14409W        W29878  10.154  10.493   0.508  0.1589  0.1616 -0.2264
14410W        W29879  17.466   8.559   2.885 -0.0451 -0.0272 -0.1879
14411W        W29880   2.848  18.699   4.790  0.2037 -0.0753 -0.2768
14412W        W29881  14.674   4.615  10.603  0.1247  0.0946 -0.0591
14413W        W29882   5.059   9.437   3.882  0.1468 -0.2762  0.0461
14414W        W29883  17.850  15.460  12.714 -0.0354  0.0147  0.0169
14415W        W29884   6.831  18.801  14.393 -0.0759  0.3704  0.1810
14416W        W29885   6.566  14.750   0.208  0.2448 -0.2525  0.1722
14417W        W29886   0.180   9.856  12.876 -0.1006  0.0265 -0.2995
14418W        W29887  12.839  14.798  14.688  0.1631 -0.0739  0.1023
14419W        W29888  14.053   8.748   0.679 -0.0699 -0.0784 -0.1786
14420W        W29889   8.355   3.466  11.076  0.0221 -0.1218  0.2287
14421W        W29890   3.603   1.448   3.758  0.2574 -0.0236  0.0670
14422W        W29891   1.823   8.147   2.365 -0.0801  0.0921 -0.0683
14423W        W29892  17.007  14.004  12.072 -0.4445  0.0357 -0.4244
14424W        W29893  16.887   4.428   0.382  0.0598 -0.5061 -0.1789
14425W        W29894   0.910  14.388  10.617 -0.0711 -0.1083  0.0122
14426W        W29895  11.558   5.857  12.569  0.3365  0.3730  0.0503
14427W        W29896  17.463   8.042  13.027  0.2071 -0.0810  0.0551
14428W        W29897  15.492  17.364  13.607  0.4451  0.1338 -0.2879
14429W        W29898   9.900  10.462   4.770 -0.2537  0.1574 -0.3521
14430W        W29899   6.641  10.776   1.989 -0.1337  0.0430 -0.2223
14431W        W29900   3.239   2.562   4.452  0.0890 -0.1845 -0.1157
14432W        W29901  12.403   7.459   5.055  0.0420  0.1942  0.0673
14433W        W29902   6.104   1.335   4.323 -0.2105 -0.1828 -0.0820
14434W        W29903  13.179   3.750   0.316 -0.0396 -0.0498  0.1116
14435W        W29904  18.613  16.033  12.027 -0.1521 -0.1184 -0.2127
14436W        W29905   1.697   3.488  12.852  0.0793  0.1421  0.1269
14437W        W29906   0.547   3.098  11.985  0.1941  0.0146  0.2607
14438W        W29907   5.815   5.013  10.735 -0.2280 -0.2210 -0.3643
14439W        W29908   9.528  12.867   0.993 -0.1161  0.1748 -0.3481
14440W        W29909   2.137   7.242  11.601  0.0093 -0.0536  0.3404
14441W        W29910  11.511  13.642  14.373 -0.2336  0.1825 -0.0973
14442W        W29911  11.358  12.222   0.310  0.2359  0.1716 -0.0952
14443W        W29912   5.755  18.665  13.619  0.0994  0.0110  0.1205
14444W        W29913  17.353   8.896  10.757 -0.0590  0.0191 -0.2654
14445W        W29914  12.440   6.213   0.295  0.0624  0.2669  0.1735
14446W        W29915  17.832   1.629   1.271 -0.2197  0.2250 -0.2480
14447W        W29916   9.916   6.315   3.110  0.1199 -0.0901 -0.0659
14448W        W29917  11.668   8.722  13.797  0.0025  0.3276  0.0631
14449W        W29918   0.586  11.694   2.586 -0.0600 -0.0749  0.0763
14450W        W29919  18.693   5.622  11.035 -0.2640  0.1064  0.2698
14451W        W29920  14.665   4.808   0.219 -0.0321  0.0174  0.0574
14452W        W29921  10.850  14.543   4.681  0.2954  0.3911 -0.3293
14453W        W29922   3.869   6.257   2.640 -0.0713  0.0307 -0.2783
14454W        W29923   1.034   4.727   2.406  0.1327  0.1222 -0.3360
14455W        W29924  11.474   7.305  11.836  0.0023 -0.0074 -0.2270
14456W        W29925   1.757  11.052   0.281 -0.2756 -0.4126 -0.2206
14457W        W29926  16.182   4.940  13.519  0.1542  0.4154 -0.1613
14458W        W29927  13.195  11.149  13.850 -0.2260 -0.2582 -0.0837
14459W        W29928   9.321  12.060   0.545  0.0272  0.1235  0.1252
14460W        W29929  18.255   9.385  13.885  0.3968 -0.0834 -0.1543
14461W        W29930   2.195  13.697  13.862 -0.0694 -0.1396  0.0435
14462W        W29931   2.668  11.807  14.982 -0.1722 -0.0870 -0.2084
14463W        W29932   5.572   8.621   4.348  0.1087  0.0657  0.0475
14464W        W29933   8.551  14.822   3.046 -0.0168  0.3787  0.3945
14465W        W29934  16.574  10.539  15.079  0.1076 -0.0186  0.1171
14466W        W29935   2.103   9.532   0.520  0.0490  0.2694  0.3789
14467W        W29936   6.298  13.646  14.436 -0.1127 -0.0872  0.2721
14468W        W29937  14.662  17.023  13.258 -0.0102 -0.0457 -0.3171
14469W        W29938   7.565  17.652   5.621  0.0290  0.2097 -0.0393
14470W        W29939  18.977  10.306   9.696 -0.2152  0.0291 -0.2749
14471W        W29940   7.609   2.876  13.791  0.2204  0.1995 -0.2092
14472W        W29941   8.100  14.398  12.143  0.1855 -0.0616  0.0735
14473W        W29942  17.637   8.039  10.437  0.1776  0.0785 -0.0279
14474W        W29943   9.350  16.869  12.639 -0.0068  0.2037 -0.1766
14475W        W29944   6.278  16.040   4.599  0.0842 -0.1763 -0.0622
14476W        W29945   2.916  12.036   3.990  0.2137  0.3033  0.1905
14477W        W29946  12.110  12.434  12.367 -0.0585  0.2219  0.1295
14478W        W29947   4.670   3.466  13.978  0.0607  0.0317  0.0154
14479W        W29948   6.807   8.697   3.824 -0.3147  0.1837  0.1603
14480W        W29949  15.363   2.093   0.115  0.0603  0.1162 -0.1916
14481W        W29950   3.083   6.712   0.954 -0.1320 -0.0184 -0.2379
14482W        W29951  13.327  16.733  11.233 -0.1791 -0.3055 -0.0092
14483W        W29952  10.457  15.723   5.217 -0.0740  0.0476 -0.1773
14484W        W29953  14.881   6.519  12.603 -0.2911 -0.0533  0.1138
14485W        W29954  12.125   5.560   3.973  0.1177  0.1183 -0.2023
14486W        W29955   8.191   2.606   0.665 -0.0276  0.1576 -0.0242
14487W        W29956   8.096  15.311   3.358 -0.1008  0.0569  0.1764
14488W        W29957  10.289  11.243   4.586 -0.1514  0.1738 -0.2073
14489W        W29958  17.867  13.523   4.321 -0.1888 -0.0643  0.3793
14490W        W29959   7.888  18.929  14.701  0.0078  0.1503  0.0758
14491W        W29960  14.192   2.379  13.938  0.0171  0.4295 -0.1842
14492W        W29961  12.634   7.601  15.051 -0.3016 -0.1356  0.1036
14493W        W29962  14.976   0.079  14.487 -0.1514  0.0853  0.1408
14494W        W29963  10.983   0.588  15.330 -0.0778 -0.0143 -0.0062
14495W        W29964  11.063   4.663  11.305  0.0030 -0.1858 -0.2270
14496W        W29965  18.737   9.305  12.538  0.0643 -0.2771  0.1901
14497W        W29966  16.645   8.441   4.850  0.1040 -0.1277 -0.1134
14498W        W29967  17.144  18.974   1.804  0.1884 -0.2732 -0.1713
14499W        W29968  12.042   1.484  11.752 -0.0805  0.2146 -0.1643
14500W        W29969   9.138  13.276  12.685 -0.2628  0.3983 -0.0892
14501W        W29970   8.062  16.498   2.553  0.1330  0.0957  0.1072
14502W        W29971  14.671   3.132  12.748  0.2197  0.0100 -0.1987
14503W        W29972  17.078  16.001   9.241  0.3828 -0.4888  0.1258
14504W        W29973   4.375  17.009   4.009 -0.0696  0.0291  0.2941
14505W        W29974   9.344  18.989  11.257  0.2811 -0.0922 -0.1213
14506W        W29975   8.356  17.110  11.564 -0.2991  0.2604  0.2415
14507W        W29976   6.603  10.972  15.017  0.3709 -0.3961  0.0009
14508W        W29977  13.190  13.276  13.607 -0.0568 -0.0718 -0.0420
14509W        W29978   4.128   2.546   5.017 -0.0304  0.1214  0.1884
14510W        W29979   0.014  17.870   2.905  0.0934  0.0162  0.1467
14511W        W29980  11.131  10.304  11.584  0.1346  0.1437  0.0650
14512W        W29981  12.841  14.609   3.384 -0.0907 -0.1539  0.0105
14513W        W29982   0.642   8.521   2.072  0.1356 -0.2224  0.2434
14514W        W29983  12.433  15.145   2.321 -0.1468  0.1296 -0.2418
14515W        W29984  12.898   0.134  11.616 -0.0628  0.3797 -0.3108
14516W        W29985   7.121  13.287  11.033 -0.1760  0.1092  0.1463
14517W        W29986   6.988   8.921  12.054  0.0112  0.0611 -0.1083
14518W        W29987  17.179  18.589  10.618  0.1924  0.1191 -0.1678
14519W        W29988  13.602  13.791   1.048  0.1039  0.0398 -0.3391
14520W        W29989   6.818   5.508  10.579  0.0891 -0.2085  0.3405
14521W        W29990   6.558   8.844   1.971 -0.1064 -0.1340  0.0454
14522W        W29991   4.061  17.952  13.028 -0.1124  0.0931  0.0388
14523W        W29992   9.720  17.850   3.745  0.0427  0.0996 -0.0194
14524W        W29993   3.481  17.466  15.101 -0.0389  0.0142 -0.2236
14525W        W29994  14.181  11.890   4.302  0.2563  0.0316 -0.1675
14526W        W29995   8.802  10.700  12.206 -0.0872  0.2037  0.1115
14527W        W29996  11.819   3.199  14.173  0.0367 -0.1266  0.0726
14528W        W29997  18.809  10.435  14.412 -0.0281  0.4887  0.0193
14529W        W29998  13.454   8.171  15.267 -0.1673 -0.0148 -0.1693
14530W        W29999   5.728   4.210  13.637 -0.0881  0.2302 -0.1505
14531W        W30000  12.377  14.784   3.030 -0.1592  0.2221 -0.0390
14532W        W30001  16.062  13.121  11.626 -0.1971 -0.2913 -0.1618
14533W        W30002  11.629  12.403  11.173 -0.1834  0.0865  0.1636
14534W        W30003   5.941  10.459   1.504  0.3605  0.0937 -0.1305
14535W        W30004   7.689   4.603  12.227  0.0576 -0.0822 -0.3801
14536W        W30005  10.882  15.612   0.466  0.0998  0.4502 -0.1474
14537W        W30006   3.261  17.899   4.651  0.3464  0.2603  0.0797
14538W        W30007  12.651   4.076  12.774  0.0054 -0.0610 -0.0367
14539W        W30008   8.384   5.300   2.796  0.1640  0.0612 -0.1059
14540W        W30009  17.527  11.383   0.831 -0.0111  0.0854 -0.1067
14541W        W30010   0.228  15.920   1.303  0.1775 -0.2302 -0.1019
14542W        W30011   9.299   5.593   2.367  0.2394  0.0939  0.1856
14543W        W30012  14.890   6.206   5.791  0.1047  0.0877  0.0263
14544W        W30013  15.141   4.747  13.317 -0.2207  0.3574 -0.1356
14545W        W30014   3.321  16.543   4.871  0.4519 -0.1512  0.1598
14546W        W30015   4.103  11.266   0.034 -0.2161  0.1066 -0.0653
14547W        W30016  11.953  13.098  11.538 -0.0724 -0.3583  0.0256
14548W        W30017   3.981   2.100   2.324  0.2783  0.0608  0.0447
14549W        W30018  13.042   1.026   2.053 -0.1689 -0.3975  0.1814
14550W        W30019   9.885  10.356   1.779  0.0217  0.1911 -0.1839
14551W        W30020  14.206   6.912  14.270 -0.1142 -0.2919  0.1680
14552W        W30021   7.937   0.038  15.215 -0.0008  0.2464 -0.0879
14553W        W30022  10.496   4.377  10.605  0.1776  0.1092  0.1784
14554W        W30023  11.534  14.298  12.524 -0.1475  0.1599  0.2058
14555W        W30024  16.425  15.151  10.658 -0.0295  0.1131 -0.3182
14556W        W30025   5.932   3.660   4.261  0.1373 -0.0667 -0.1992
14557W        W30026  17.878  18.341  11.920 -0.2456  0.0367 -0.2268
14558W        W30027   9.581   3.513   2.098  0.2081 -0.2161  0.4451
14559W        W30028   8.731   9.927  12.375 -0.0824 -0.1315 -0.1104
14560W        W30029  16.395  17.906  14.517 -0.2525 -0.0263  0.1705
14561W        W30030   2.289  10.819   2.850 -0.0133  0.2036 -0.3507
14562W        W30031   3.386  11.067   4.629  0.1867 -0.1294  0.1085
14563W        W30032  15.322  18.214   0.872 -0.5007  0.0184 -0.2955
14564W        W30033   1.989   4.443   2.682 -0.3197  0.3391 -0.0883
14565W        W30034  12.911   9.206   5.579  0.2459  0.3195 -0.3270
14566W        W30035   9.655  18.939   1.002 -0.5368  0.0639 -0.2393
14567W        W30036  17.638  13.289  14.343  0.0526  0.3456  0.1761
14568W        W30037   3.291  11.680   3.802 -0.1648 -0.0848  0.0070
14569W        W30038  11.434   0.344   0.797 -0.1815 -0.0826 -0.1876
14570W        W30039  12.125   2.520  10.746 -0.1185 -0.0161  0.3159
14571W        W30040   3.867   1.083   0.489  0.1525  0.0393  0.2626
14572W        W30041  17.283  12.285  13.467  0.0921  0.0841  0.0512
14573W        W30042  18.093   3.804  14.123  0.1512  0.2888  0.1037
14574W        W30043   5.510   5.472   3.359  0.0518  0.1628  0.1338
14575W        W30044   2.529   8.000   9.452  0.1553  0.0471 -0.0469
14576W        W30045  14.678   1.302  13.228  0.2323 -0.1636 -0.1081
14577W        W30046   1.422   7.424  12.371  0.0409  0.1192 -0.0554
14578W        W30047   6.395  17.826  15.363  0.4270  0.1589 -0.2228
14579W        W30048  15.303  19.001  12.627 -0.0132  0.1986  0.2030
14580W        W30049  12.603   8.218  11.901 -0.1951 -0.2642 -0.0312
14581W        W30050   1.837  14.786  11.730  0.1167 -0.2325 -0.1295
14582W        W30051  11.782   6.062  11.140 -0.1400 -0.0989  0.1222
14583W        W30052  14.180  10.405   2.540  0.0084  0.0243 -0.0510
14584W        W30053   3.842   3.375   3.168 -0.3529  0.0279 -0.0884
14585W        W30054   5.449   3.314  10.416  0.1782  0.2786 -0.1798
14586W        W30055   2.621   4.031   2.710 -0.0868  0.0386  0.0963
14587W        W30056  17.926   1.764   9.581 -0.1776  0.0191  0.2114
14588W        W30057  11.553   7.050   2.396  0.0993  0.2454 -0.1145
14589W        W30058  17.621   7.014   5.007 -0.0958 -0.2178  0.0021
14590W        W30059  19.002   5.172  13.193  0.0119  0.0293  0.1122
14591W        W30060   7.614  12.796   1.664  0.1904  0.0458 -0.2148
14592W        W30061  14.430   0.232   1.248 -0.0519 -0.1800 -0.1381
14593W        W30062  17.213   1.603  12.924 -0.0487 -0.1988 -0.1963
14594W        W30063   9.359   8.575   2.361  0.2873 -0.3538  0.0369
14595W        W30064   0.836  10.047  15.110  0.0132 -0.0677  0.0250
14596W        W30065  17.965   3.375   0.276 -0.2147  0.0459  0.1234
14597W        W30066   5.065   6.510  12.787 -0.0331  0.1557  0.0184
14598W        W30067   8.690  10.803  14.125  0.0959  0.0523  0.0860
14599W        W30068   3.940   1.091  12.091  0.2809 -0.0976  0.1766
14600W        W30069   1.943   7.950   4.406  0.1863 -0.4495 -0.1218
14601W        W30070  10.755   3.857  10.738  0.0896  0.3290 -0.0591
14602W        W30071  12.831  15.653   2.962  0.0650 -0.1514 -0.0322
14603W        W30072   4.201   5.588  11.684 -0.2570  0.2005  0.1560
14604W        W30073   3.048  12.506  11.667 -0.0176 -0.0656  0.0561
14605W        W30074   9.848   3.408   0.695  0.2772  0.3627  0.0466
14606W        W30075   4.291  16.364  11.427  0.0873  0.1127  0.1602
14607W        W30076   0.940   6.373   1.994  0.0899  0.1636  0.0678
14608W        W30077   7.222  18.880   5.527 -0.3788  0.2779  0.0131
14609W        W30078   5.409  12.606   4.453 -0.0450  0.1848  0.1769
14610W        W30079  15.019   4.003  14.332 -0.1741  0.0118  0.1659
14611W        W30080  11.444  18.565   0.303  0.2617  0.0984 -0.0476
14612W        W30081   7.625  15.734  11.912  0.1153 -0.1096 -0.0212
14613W        W30082  16.684   1.350   2.349 -0.0727 -0.1211 -0.2519
14614W        W30083  12.429  19.013  13.645  0.1489 -0.1916  0.0433
14615W        W30084   1.906   0.524   2.114  0.2112  0.4658 -0.0313
14616W        W30085  12.835   2.672   4.589  0.0397 -0.1080 -0.0187
14617W        W30086   5.322   5.777   9.241  0.0429  0.0301 -0.3277
14618W        W30087   6.706   1.606  11.286 -0.3190 -0.0120 -0.0628
14619W        W30088   1.136   8.051   3.247 -0.0583  0.4250 -0.2501
14620W        W30089  10.191   5.299  13.351 -0.1570 -0.1569 -0.1073
14621W        W30090  13.380  16.378   3.607 -0.2065  0.1590  0.0265
14622W        W30091  11.727  16.202  10.237 -0.1697  0.0412  0.0557
14623W        W30092   4.692   6.518  13.249  0.3456  0.0556  0.2448
14624W        W30093  16.942   4.665   3.762  0.0848  0.0764 -0.3074
14625W        W30094  18.534  13.060   2.536 -0.1881  0.1816  0.0401
14626W        W30095  15.218   6.623  11.362 -0.1266  0.0094 -0.0047
14627W        W30096   5.025  17.517  13.725 -0.2785  0.0021 -0.2409
14628W        W30097  11.302  18.538   1.324  0.2652  0.0013 -0.5016
14629W        W30098  12.099   4.035   2.058 -0.1819 -0.4595 -0.0746
14630W        W30099   1.112  18.408  12.530  0.1888  0.2033 -0.0894
14631W        W30100   3.529   4.294  12.145  0.4547  0.0544  0.0093
14632W        W30101  14.662  15.902   4.640 -0.2482  0.1187 -0.0481
14633W        W30102   0.093   6.915  12.056  0.2035  0.2822  0.1089
14634W        W30103  16.883   1.315  14.116  0.1413  0.1300  0.2998
14635W        W30104  14.512   9.680  11.383 -0.1488 -0.1939 -0.0054
14636W        W30105   9.273  13.466  12.226  0.0446  0.1986 -0.0199
14637W        W30106   6.398  18.628   3.800  0.0779  0.0779 -0.0117
14638W        W30107  13.577  13.564  13.519  0.1969 -0.0185 -0.1455
14639W        W30108   4.479   6.810   4.450 -0.0733  0.2905  0.0161
14640W        W30109   3.018  14.719  11.961 -0.0402  0.0343  0.0239
14641W        W30110   1.485  15.015   4.686 -0.0021  0.0669 -0.3010
14642W        W30111  11.183   1.389   3.508  0.1288  0.1640  0.0702
14643W        W30112   9.304   4.382   1.441  0.2640 -0.0458  0.2211
14644W        W30113  12.448  13.346   0.827 -0.0519  0.1026  0.2827
14645W        W30114  15.736  18.073   3.010  0.2581  0.2223 -0.3209
14646W        W30115   0.144  11.093   0.112 -0.1700  0.2240  0.1753
14647W        W30116  12.903  14.334   4.011  0.6505 -0.1114 -0.2255
14648W        W30117  16.824   5.553  10.381 -0.0187  0.1162  0.0120
14649W        W30118  10.615  12.141   1.123  0.0027 -0.1065 -0.0634
14650W        W30119   9.870   9.355  12.730 -0.3451 -0.2483 -0.0957
14651W        W30120   6.751  10.317  10.632 -0.0679  0.1635 -0.0747
14652W        W30121   5.434  10.659  10.901  0.1268  0.1220  0.1254
14653W        W30122  11.187  14.249   1.689  0.0732  0.3244  0.1074
14654W        W30123   3.808  17.500   1.950  0.2834 -0.1615  0.1753
14655W        W30124   3.603  12.535  14.434 -0.0558 -0.1764 -0.3305
14656W        W30125  16.334  15.172  11.478  0.1064  0.1606 -0.2280
14657W        W30126  11.873   6.877   4.035  0.0340 -0.1803 -0.0267
14658W        W30127   3.103   8.469  13.435  0.0422 -0.1732 -0.0599
14659W        W30128   5.430   4.627   5.051 -0.0655 -0.3258 -0.0338
14660W        W30129  18.877   5.568   2.091  0.0274  0.2208  0.2881
14661W        W30130  13.283   6.460  10.676  0.0001 -0.1624 -0.0267
14662W        W30131  14.972   7.812   2.760 -0.3656  0.1977 -0.0068
14663W        W30132   0.062   5.175   1.931  0.2363  0.2622 -0.1591
14664W        W30133   1.499  17.261  12.681  0.1387  0.2790  0.2199
14665W        W30134  11.096  15.050  10.425 -0.0835 -0.1667  0.0139
14666W        W30135   7.408   3.845  14.822 -0.2683  0.0440 -0.0498
14667W        W30136  12.792  10.339  11.498  0.1768  0.0784 -0.1746
14668W        W30137   2.062  10.391  14.000 -0.0800  0.1348  0.1705
14669W        W30138  10.082  12.656  13.387  0.0357  0.2306 -0.0192
14670W        W30139  17.494   3.338   3.889 -0.0119  0.0474  0.0660
14671W        W30140  15.862   4.612   0.915  0.2582  0.1361  0.0541
14672W        W30141   8.344   8.390  15.202  0.1438  0.1451 -0.0578
14673W        W30142   7.656  16.734   2.824 -0.4866 -0.0216  0.0357
14674W        W30143  15.263  12.243   0.874 -0.0844 -0.0308 -0.0158
14675W        W30144   4.741   2.093   5.544 -0.0927  0.0456 -0.1378
14676W        W30145   7.821   3.690   4.282 -0.0032  0.2112 -0.3527
14677W        W30146  13.341  18.677   1.368  0.0315  0.0425  0.1460
14678W        W30147   5.089  18.804   5.586 -0.1551 -0.3416 -0.1330
14679W        W30148   1.924   6.555  13.444  0.4956 -0.2613  0.5823
14680W        W30149   0.293  13.607  14.138 -0.2685 -0.0759 -0.0890
14681W        W30150  17.543  18.890  13.861 -0.1169 -0.0306 -0.1122
14682W        W30151  17.242   9.213   3.140  0.1565  0.1360  0.1743
14683W        W30152  19.037   6.319  10.675 -0.3433 -0.1797 -0.2302
14684W        W30153   4.386  10.423  10.105 -0.2056  0.3014  0.4920
14685W        W30154  17.575  13.605   4.818  0.0034 -0.0793 -0.3080
14686W        W30155   5.482  11.512  11.457 -0.1656  0.2201  0.0475
14687W        W30156  11.496  18.179  13.612 -0.1212 -0.1638  0.1619
14688W        W30157   5.802   6.128   2.614  0.0198 -0.1495 -0.2907
14689W        W30158   5.739  18.885  14.049 -0.2322 -0.0225 -0.0644
14690W        W30159   9.188  12.436  13.706 -0.0707  0.1736 -0.0088
14691W        W30160   6.817   9.832  11.560 -0.1079 -0.1890 -0.0102
14692W        W30161   0.510  11.777  11.491  0.3032 -0.0395  0.2259
14693W        W30162   7.404   9.313  12.141 -0.0450 -0.0405  0.1161
14694W        W30163  16.433   4.794   3.554 -0.0833 -0.1567 -0.0632
14695W        W30164   1.552   8.782   5.897 -0.1251  0.1940 -0.2430
14696W        W30165  10.936  17.245  15.201 -0.0046 -0.1799  0.0163
14697W        W30166  18.773   1.146   0.725  0.0391  0.2377  0.0446
14698W        W30167  13.946  14.587  10.794  0.0667  0.4274 -0.2182
14699W        W30168  10.466   6.382  14.254 -0.3654 -0.0800  0.0289
14700W        W30169   2.402  14.088  12.342 -0.0317 -0.0163  0.0016
14701W        W30170  16.018  11.474  12.842 -0.2967 -0.2088  0.0804
14702W        W30171  11.556  13.894  10.744  0.2400 -0.0934  0.0946
14703W        W30172  11.230   1.730   4.596 -0.1360 -0.2467  0.2016
14704W        W30173   4.566   1.521  13.653  0.2488  0.1414 -0.5126
14705W        W30174   3.393   0.057   1.985 -0.0093  0.3814 -0.1254
14706W        W30175   8.307  12.639  11.263 -0.0699  0.1453 -0.1589
14707W        W30176   4.335   8.701   5.659 -0.3842  0.0321 -0.0674
14708W        W30177  10.129  17.138  11.600 -0.1864 -0.0650 -0.0761
14709W        W30178  12.831   0.136  15.364 -0.3644 -0.1624  0.0184
14710W        W30179   6.804   9.498   2.571  0.1350  0.4319  0.2228
14711W        W30180  17.934   7.509  12.226  0.0157  0.3503 -0.1079
14712W        W30181   0.428  18.132  11.682 -0.0380 -0.3894  0.0800
14713W        W30182   7.363   0.536   4.783 -0.0168 -0.2267  0.2829
14714W        W30183   0.795   0.443  13.652 -0.1005 -0.2738 -0.1834
14715W        W30184  18.063   2.106   1.542 -0.0083 -0.2633  0.0345
14716W        W30185   1.579  10.473   3.320 -0.2524 -0.1145 -0.0088
14717W        W30186  17.166  16.528  13.496  0.3925  0.2515 -0.0213
14718W        W30187   9.192   2.905  14.837  0.1111  0.0574  0.1324
14719W        W30188  11.624  15.933  13.691 -0.4526  0.0629  0.2560
14720W        W30189   5.505   8.070   0.696 -0.0706 -0.0895 -0.1835
14721W        W30190   5.420   2.167   4.539 -0.0516 -0.1206  0.2573
14722W        W30191   4.564  13.035   1.212  0.5626 -0.0080  0.0136
14723W        W30192  17.290  10.737   1.485 -0.0253  0.0490 -0.2842
14724W        W30193  10.536  18.489  14.368  0.0211 -0.1858 -0.0568
14725W        W30194   4.749  16.436  11.510  0.0645  0.1099  0.2346
14726W        W30195  15.207  17.948  12.637  0.0415 -0.1537  0.0320
14727W        W30196  10.618   5.690  13.490  0.0066  0.1257 -0.4355
14728W        W30197   5.872   0.695   2.243 -0.4435  0.1237 -0.1986
14729W        W30198  11.162  10.543   2.336  0.1814 -0.2123  0.1213
14730W        W30199   9.140  13.074  14.749  0.3566  0.0105 -0.1571
14731W        W30200  17.086   6.189  10.960 -0.0425 -0.0736 -0.5112
14732W        W30201   8.425   3.600  15.109 -0.1326  0.2012  0.0678
14733W        W30202  11.523   8.697  12.055  0.0726 -0.0633  0.0194
14734W        W30203  15.031  16.654   4.782  0.2491  0.1154 -0.1136
14735W        W30204  14.317   1.338  14.247  0.0170  0.1145 -0.1115
14736W        W30205   3.995  13.018  15.328  0.1469 -0.1206  0.1054
14737W        W30206   1.774  16.299  13.860 -0.1026  0.0931 -0.1773
14738W        W30207   6.603   1.868   0.824  0.1526 -0.0050  0.0136
14739W        W30208  18.255  10.286   5.324 -0.0324  0.0165 -0.0734
14740W        W30209  11.009  15.159  14.685  0.1925  0.1851 -0.0362
14741W        W30210  14.202   8.449   9.876  0.0095  0.0783  0.0788
14742W        W30211  14.019  17.222  10.812 -0.3191 -0.0488  0.1204
14743W        W30212  16.165  15.914  14.234  0.3608  0.0940 -0.2518
14744W        W30213  14.166  16.190  13.162 -0.1433 -0.1306 -0.2047
14745W        W30214   7.508  11.204   0.204 -0.1061 -0.0617 -0.3408
14746W        W30215   5.089  15.491   3.286  0.0145  0.3190 -0.2734
14747W        W30216   5.973   4.428  13.243  0.1836  0.1607  0.1569
14748W        W30217   7.706   9.309   1.870 -0.2927 -0.3950  0.1530
14749W        W30218   6.211   1.197   5.976 -0.2961  0.3120  0.0830
14750W        W30219   4.460   8.101   2.756 -0.0143  0.1452  0.0004
14751W        W30220  17.363   2.086  13.494  0.2220 -0.0357 -0.0541
14752W        W30221   3.663  11.934  12.077 -0.3410 -0.2700  0.3052
14753W        W30222   8.924  11.281   2.912 -0.0350  0.0054  0.1155
14754W        W30223  16.521  18.348   1.268  0.1364 -0.3636  0.0106
14755W        W30224  17.901  14.007   4.688  0.0106  0.1266  0.0724
14756W        W30225   9.850   3.319  12.672 -0.1865  0.0813  0.2781
14757W        W30226   7.190  11.585  12.413  0.0086 -0.0760 -0.3463
14758W        W30227   1.294  17.747  15.093  0.1300 -0.2077  0.0822
14759W        W30228  17.279   6.577   3.337 -0.0972  0.1088 -0.1634
14760W        W30229  11.692  15.155  10.890 -0.1630  0.0811  0.0993
14761W        W30230  10.761   5.929   1.047 -0.4631 -0.0602 -0.3419
14762W        W30231  12.595   1.635   0.874 -0.3776 -0.0084 -0.0832
14763W        W30232  10.903  10.647  14.590 -0.2911  0.1313 -0.3590
14764W        W30233  14.115  11.368   4.271  0.0254  0.0844 -0.1296
14765W        W30234   1.773   2.354   4.162  0.2124  0.0262  0.1676
14766W        W30235   7.903   8.167  14.988 -0.0654  0.2460 -0.3417
14767W        W30236   9.806   4.223  11.892  0.1557 -0.0807  0.3327
14768W        W30237   3.947  16.664  12.627  0.1366 -0.0779  0.1899
14769W        W30238   7.722  10.021  14.009 -0.1298  0.3324  0.2160
14770W        W30239   2.059  16.195   3.189 -0.3186 -0.1789 -0.0612
14771W        W30240   6.914  19.037   3.057  0.3291  0.1518 -0.2333
14772W        W30241   7.969  13.288   3.741  0.2507  0.0890 -0.3425
14773W        W30242   6.776   5.681  14.609 -0.1771  0.0407 -0.0735
14774W        W30243  13.152   8.419   5.078 -0.2045 -0.0325  0.2475
14775W        W30244  13.590  16.417  12.308 -0.2428  0.0443  0.0523
14776W        W30245  14.889  13.165  10.704  0.1103  0.2448 -0.2589
14777W        W30246   9.050  17.004   5.775 -0.1398 -0.1229 -0.0008
14778W        W30247   4.630  11.881   5.281 -0.0720 -0.1430 -0.0302
14779W        W30248  11.446  17.157   4.652  0.0556 -0.0194 -0.2713
14780W        W30249   2.257  10.015  10.212  0.0644  0.0939 -0.1845
14781W        W30250   9.493   6.191  10.876  0.1218  0.0163 -0.0797
14782W        W30251  18.414  12.495   1.182  0.0443 -0.1119 -0.2385
14783W        W30252  16.236   8.577  14.137  0.2193 -0.2977 -0.2008
14784W        W30253  17.441  14.758  14.593 -0.4512 -0.1791  0.1519
14785W        W30254  15.477  11.503  13.153 -0.2365  0.2998  0.0291
14786W        W30255  12.258  14.708   2.579 -0.0164  0.1544 -0.1417
14787W        W30256   9.130   6.466   4.439  0.0910  0.4493  0.0716
14788W        W30257   7.882   8.675   0.408 -0.2699 -0.1207 -0.3450
14789W        W30258  12.077  18.034  13.050 -0.0459  0.0607  0.4299
14790W        W30259  17.151   6.070  10.412  0.0360 -0.1399 -0.0078
14791W        W30260  10.189   6.510  10.715  0.1115  0.1504 -0.1319
14792W        W30261   8.887   7.298   2.970 -0.2985 -0.1652  0.0117
14793W        W30262  17.388   4.957  14.379  0.0921  0.1439 -0.2047
14794W        W30263  11.500   3.792  15.012  0.0476  0.0607  0.1834
14795W        W30264  10.915  16.664   0.756  0.2891 -0.3578  0.0308
14796W        W30265  10.287  15.595  14.208  0.0199 -0.1996  0.1628
14797W        W30266   2.399   2.579  10.411 -0.3203  0.2691  0.0469
14798W        W30267   8.084   5.275  12.764  0.0034  0.0702 -0.0883
14799W        W30268   0.328   8.919  13.782  0.0728 -0.0048 -0.0263
14800W        W30269  19.040  11.094  10.843 -0.1083  0.0738  0.0385
14801W        W30270   8.183   4.793   3.510  0.4089 -0.0172 -0.0353
14802W        W30271  13.190   8.196   1.634  0.0149 -0.0079 -0.2087
14803W        W30272   9.618   1.161   0.203  0.1907  0.0946 -0.2694
14804W        W30273  11.457  16.190   5.007  0.2370  0.1421 -0.1353
14805W        W30274  17.888   9.330  14.236  0.1445 -0.1549 -0.1406
14806W        W30275  16.290   6.043  13.452 -0.3133 -0.0514  0.1704
14807W        W30276  18.617   1.574  10.757 -0.1498  0.2081  0.1145
14808W        W30277  16.652  12.271  11.824  0.1490 -0.3085  0.3080
14809W        W30278   9.763   9.119   1.264  0.0090  0.1333  0.4387
14810W        W30279   2.592  12.259  10.762 -0.1709  0.4703  0.0068
14811W        W30280   2.458  18.552   2.143  0.1313 -0.2932 -0.0283
14812W        W30281   7.092   7.037  11.899 -0.3046 -0.1576 -0.5982
14813W        W30282  10.422   5.179  12.354  0.2060  0.3878  0.1558
14814W        W30283   0.563   0.722   3.335  0.2404 -0.2349  0.2882
14815W        W30284   6.739   9.145   1.520 -0.1077 -0.3598 -0.3404
14816W        W30285   3.536   2.213  11.409 -0.0156 -0.0573  0.0914
14817W        W30286   1.518  15.702   0.586 -0.1404  0.1472 -0.0671
14818W        W30287  17.732   2.802  15.067 -0.0865 -0.2476 -0.1393
14819W        W30288  13.726  11.541   9.437  0.1549 -0.1705  0.0831
14820W        W30289   3.329   1.986   4.339 -0.1668  0.0452 -0.0326
14821W        W30290  10.917  12.660  13.030 -0.0556 -0.2558  0.2630
14822W        W30291   5.218   9.811   3.575 -0.0337  0.2490 -0.0614
14823W        W30292  18.611   3.013   1.574 -0.1704 -0.2083 -0.1177
14824W        W30293   9.757   9.087   5.707  0.0656 -0.1074 -0.0896
14825W        W30294   5.091  11.314  11.748  0.2244 -0.2676  0.1976
14826W        W30295  16.477   0.736   5.059 -0.0525  0.1080 -0.0511
14827W        W30296   3.251   7.271  14.375  0.0694 -0.3578 -0.0219
14828W        W30297  12.957  14.516  13.804  0.0752 -0.1860 -0.1548
14829W        W30298   0.680  16.733  10.517  0.0564  0.2199 -0.0957
14830W        W30299  14.395   8.635  11.258 -0.0022  0.1760 -0.1531
14831W        W30300  14.421   5.763  13.845  0.1168  0.4085 -0.0268
14832W        W30301  17.880  13.483  12.977  0.0273 -0.1517 -0.1436
14833W        W30302   7.310  16.155  12.835  0.0571  0.0091 -0.0391
14834W        W30303  12.003  12.346  15.197  0.0037  0.2827  0.0804
14835W        W30304   7.725  11.831  12.519 -0.1345  0.3272  0.0092
14836W        W30305   9.969   7.168   3.501  0.1317 -0.2580 -0.1286
14837W        W30306   2.025   7.347  10.512 -0.0746 -0.1808 -0.2329
14838W        W30307  14.697  12.486  11.530  0.2081  0.2767 -0.1365
14839W        W30308  16.187   7.984   4.956  0.0400  0.1055  0.2459
14840W        W30309  17.314  14.480  13.932  0.3301  0.3546 -0.1820
14841W        W30310  14.149  16.341   1.952  0.1670  0.2910  0.4286
14842W        W30311   6.397   8.730   3.165  0.1426 -0.0491 -0.2516
14843W        W30312  18.709   3.612  11.137 -0.2733  0.3613  0.1998
14844W        W30313  12.881   4.426   5.104 -0.2759  0.1447 -0.0188
14845W        W30314  11.589   3.971  14.099 -0.0042 -0.0987  0.2344
14846W        W30315  14.086   0.544   0.466  0.0900  0.0172 -0.1744
14847W        W30316  17.619   4.005   4.661  0.0119  0.1092 -0.0045
14848W        W30317   9.178   3.854   3.894  0.0444  0.1943 -0.0037
14849W        W30318   9.952  18.154   0.379 -0.2038  0.0333 -0.2912
14850W        W30319   6.945   1.659   3.305  0.0747 -0.0241 -0.1725
14851W        W30320  16.853   8.212  11.775  0.0926  0.0112  0.3787
14852W        W30321   4.184   2.592   0.989  0.2620 -0.0979  0.1496
14853W        W30322   9.446  14.874  12.832  0.3743 -0.0797 -0.1438
14854W        W30323  15.422   7.675   3.543 -0.1591  0.1038 -0.4639
14855W        W30324  18.269  15.957  10.584 -0.1292 -0.0227 -0.1493
14856W        W30325   9.409   1.156  11.583  0.2591 -0.0055  0.0299
14857W        W30326  12.963  18.485   1.103  0.0534 -0.0839  0.0626
14858W        W30327   3.699  10.354   2.809 -0.0949 -0.3106 -0.3363
14859W        W30328  18.078  11.428   2.731 -0.1489  0.2113 -0.0560
14860W        W30329  13.658  16.864  10.891 -0.0032  0.0988 -0.0389
14861W        W30330  18.881  16.084  15.068 -0.0382 -0.2498  0.1760
14862W        W30331  18.075  15.650  14.274 -0.2056  0.1758 -0.3076
14863W        W30332   4.719   0.021   1.208 -0.3318 -0.1975  0.0059
14864W        W30333   4.760   2.287   2.426 -0.0864 -0.2367  0.1078
14865W        W30334   7.217   0.736   1.498  0.1680  0.1096 -0.0982
14866W        W30335   6.421  10.724   3.099  0.0199 -0.2024  0.2557
14867W        W30336  13.338  10.485   2.798 -0.0336  0.2144 -0.3030
14868W        W30337  10.497  10.832  14.510 -0.0211 -0.0668  0.3540
14869W        W30338  15.232  17.347   3.679 -0.0138  0.2636 -0.1753
14870W        W30339   5.111  17.441  11.074  0.0653  0.1251  0.2610
14871W        W30340   9.481   7.282   9.709 -0.0340 -0.0427 -0.2367
14872W        W30341   6.958  17.403  13.760  0.0557 -0.3404 -0.2141
14873W        W30342  14.076   9.032  11.049  0.0790  0.0697 -0.2534
14874W        W30343  16.111  17.782  13.217 -0.1422 -0.2111  0.0320
14875W        W30344  14.414  18.555  12.138 -0.2058 -0.0671 -0.3788
14876W        W30345  14.203   0.962  14.723 -0.2465 -0.0572  0.0219
14877W        W30346   1.741   9.905   3.641 -0.0729 -0.0579  0.1600
14878W        W30347   5.966   0.120   1.030  0.1092 -0.0416 -0.3086
14879W        W30348   6.511   8.550  14.826  0.0184 -0.0676 -0.0269
14880W        W30349  14.142   4.926  14.359 -0.2712 -0.4232  0.1548
14881W        W30350  12.759   5.210   0.761  0.2493 -0.0737  0.1106
14882W        W30351   7.261  13.965  10.594  0.0507  0.2127  0.1806
14883W        W30352  14.560   3.421   4.877  0.2025 -0.1378  0.2008
14884W        W30353  12.885   0.532  10.189  0.1826  0.1993  0.2500
14885W        W30354  13.128  15.613  14.859  0.0374 -0.0832 -0.1279
14886W        W30355  16.345   4.375  10.776 -0.1979 -0.3586 -0.1258
14887W        W30356   6.848  16.152   3.698 -0.1216  0.1522  0.1431
14888W        W30357  14.585  11.305   2.042  0.0010  0.1524 -0.4069
14889W        W30358   1.534  19.023  11.985 -0.1631 -0.1815 -0.2257
14890W        W30359   8.241   3.734   0.230 -0.0326  0.2199 -0.0488
14891W        W30360  12.718  13.068  13.452  0.1438 -0.0587  0.0451
14892W        W30361   2.362   8.463   9.502 -0.1751  0.3428  0.1247
14893W        W30362   5.251  17.199   1.980 -0.1168 -0.0983 -0.1380
14894W        W30363   3.853   7.088  11.975 -0.0542 -0.0853  0.0788
14895W        W30364   0.571   9.230  15.127 -0.0128  0.0923  0.0467
14896W        W30365   0.346  16.181   4.221  0.0399  0.2356  0.1468
14897W        W30366  18.029   5.569  14.709  0.0118  0.0463  0.1757
14898W        W30367  12.087   1.576   1.021 -0.1912  0.0021 -0.0521
14899W        W30368  17.417   5.519  14.089 -0.0181  0.0444 -0.0523
14900W        W30369  14.744  12.226   1.612  0.2886  0.1571  0.0146
14901W        W30370   7.510  17.415  12.698 -0.0670 -0.0805  0.2068
14902W        W30371  11.563  17.958  10.614  0.0806  0.2204 -0.0789
14903W        W30372   9.785   9.250  10.839  0.0823 -0.1743  0.1018
14904W        W30373  12.995   4.927  12.579  0.1388  0.0039  0.4402
14905W        W30374  14.677  14.406   1.760 -0.3322 -0.1852 -0.0226
14906W        W30375  18.835   0.590   0.673 -0.0794 -0.3317 -0.2836
14907W        W30376   3.618   4.980  12.591  0.3529 -0.1437 -0.0145
14908W        W30377   6.448  15.273   4.349  0.1692  0.0012 -0.0855
14909W        W30378  17.700  10.551  11.450 -0.1058 -0.1253 -0.1109
14910W        W30379   2.092   9.305  11.954  0.0859 -0.0363 -0.0983
14911W        W30380  10.686  10.030  10.415  0.3243  0.0643 -0.0823
14912W        W30381  17.526   5.091  13.834 -0.0960 -0.0581 -0.2941
14913W        W30382   0.594   6.780   4.758 -0.3885  0.0340  0.2409
14914W        W30383  14.666  11.731   1.763  0.4231  0.3871 -0.0989
14915W        W30384   7.400   6.007  12.492  0.1267  0.1609 -0.0303
14916W        W30385  13.207   5.703  11.021 -0.0352 -0.0659  0.0711
14917W        W30386   9.276  13.849  11.927  0.1023 -0.1778 -0.2544
14918W        W30387   8.218   9.949  13.982 -0.1139 -0.1172 -0.2399
14919W        W30388   6.752   2.107   0.094 -0.1693 -0.3579 -0.1475
14920W        W30389  10.565  11.719   2.909 -0.1079 -0.2424 -0.1332
14921W        W30390  16.841   0.530   4.014 -0.1064  0.3099 -0.1816
14922W        W30391   3.495   6.786   1.347 -0.2240 -0.0562 -0.0694
14923W        W30392   3.752   2.683   1.379 -0.0995  0.3246  0.3694
14924W        W30393   4.807   8.398   2.307 -0.1045 -0.0420 -0.0416
14925W        W30394   2.646   0.916  14.462  0.3242 -0.0652  0.3316
14926W        W30395  16.299  12.836   1.911  0.0232  0.5551 -0.2066
14927W        W30396   1.578  17.740   5.029 -0.1744 -0.0278 -0.1917
14928W        W30397  15.481   6.426   2.069  0.2690 -0.1945  0.0132
14929W        W30398   4.696  17.305  11.597  0.2606  0.1394 -0.3503
14930W        W30399   4.146  14.253  12.792 -0.1360  0.3445 -0.0445
14931W        W30400   5.690   5.465  11.649 -0.1007  0.0947 -0.0860
14932W        W30401  18.695  15.677   9.908  0.2191  0.2407 -0.0538
14933W        W30402  12.601   9.989   5.288 -0.0588  0.2143 -0.0397
14934W        W30403  14.341   3.726  14.968  0.1829 -0.0696 -0.3328
14935W        W30404   4.443  17.435   0.661 -0.6121 -0.2062 -0.0633
14936W        W30405  10.522   4.404   1.724  0.0686  0.1650  0.4105
14937W        W30406  16.776  16.657  12.688 -0.0701  0.1271 -0.1713
14938W        W30407  10.603  18.754   4.009  0.0419  0.0272 -0.1450
14939W        W30408   2.503   2.031  12.639  0.0852 -0.1440  0.0634
14940W        W30409  15.020  15.733  12.614 -0.0829  0.1834 -0.2623
14941W        W30410  18.425   3.821   1.290 -0.2287 -0.3103 -0.0440
14942W        W30411   8.839  18.617  13.007 -0.1679 -0.2454 -0.0538
14943W        W30412  17.725  16.463   2.210  0.3033 -0.1298 -0.0053
14944W        W30413  13.039  14.875  11.616 -0.1518 -0.3219 -0.3137
14945W        W30414  18.112  18.639  13.989 -0.0046  0.0424 -0.1440
14946W        W30415  12.483   7.510  13.466 -0.0886  0.0173  0.0803
14947W        W30416  17.707  12.567  10.971 -0.0167 -0.1589  0.2193
14948W        W30417   7.955   0.279   3.075  0.2399  0.4034 -0.1108
14949W        W30418   6.345  16.816  11.438 -0.0792 -0.2559  0.1298
14950W        W30419  12.713   7.228  14.640 -0.4057  0.0569 -0.1407
14951W        W30420  16.530  17.202   4.828  0.2043 -0.1699 -0.1079
14952W        W30421  10.131  11.828  12.266  0.1535 -0.0596 -0.1430
14953W        W30422   7.175   1.454  11.107 -0.3218  0.2091  0.3366
14954W        W30423  17.865   2.559  12.551 -0.2863  0.4548  0.2005
14955W        W30424  18.130  14.247   3.397 -0.0198  0.2185 -0.0799
14956W        W30425  12.101   1.859  15.202 -0.3183  0.1291  0.3721
14957W        W30426   9.216  15.805  10.234 -0.0607 -0.2509 -0.2801
14958W        W30427  17.944  10.346   1.938 -0.1309  0.2025  0.2072
14959W        W30428  11.646   2.541  11.928 -0.1689 -0.2942  0.1621
14960W        W30429  13.284   7.110   3.373 -0.1373  0.0017  0.3336
14961W        W30430  16.910   7.554  14.292 -0.0359  0.0479 -0.1204
14962W        W30431  14.323  16.552  13.992  0.1083 -0.0547 -0.2314
14963W        W30432  14.743   1.262   3.049 -0.1405  0.0084  0.1507
14964W        W30433  10.713   4.380  14.489 -0.1635  0.3364  0.0593
14965W        W30434   5.415  16.710  14.860  0.1380 -0.0015 -0.2337
14966W        W30435  16.210   6.127   4.300 -0.1440  0.3271 -0.4182
14967W        W30436  13.710  10.211  11.711  0.3140  0.0341  0.1146
14968W        W30437   5.863  12.369   5.368  0.1035 -0.2481  0.1057
14969W        W30438   4.782   9.423   5.420 -0.2431 -0.1321  0.1291
14970W        W30439   5.659  13.951   2.385 -0.2924  0.0969  0.1116
14971W        W30440  11.145   5.848   3.834  0.0212 -0.3340 -0.1159
14972W        W30441   8.615   8.045   0.311  0.2042 -0.2315  0.1482
14973W        W30442   8.188  16.656  11.661 -0.2374 -0.2823 -0.4627
14974W        W30443  12.912   1.516  13.086 -0.1361  0.1224 -0.0690
14975W        W30444   3.836   7.676   3.128 -0.1050 -0.4574  0.0637
14976W        W30445   0.662  18.229   3.373 -0.0377 -0.0215  0.1135
14977W        W30446   3.154  10.924  12.216 -0.2548  0.1759 -0.3527
14978W        W30447   2.505  11.447  12.494 -0.1989  0.3836 -0.0137
14979W        W30448   3.051   6.385  15.028  0.0520 -0.0949  0.2739
14980W        W30449  15.532  18.445   2.633  0.1328 -0.4153  0.0578
14981W        W30450  10.685  16.944   5.627  0.0166 -0.1063 -0.3576
14982W        W30451  10.807   3.521  12.704  0.2134  0.1981  0.0320
14983W        W30452   5.744   3.975   6.218  0.0139 -0.1683  0.0284
14984W        W30453  14.449   0.660   1.958 -0.0978 -0.0035 -0.2506
14985W        W30454  15.366  15.286  14.403  0.1241 -0.1035 -0.1972
14986W        W30455   2.400   0.984  14.017  0.1659 -0.1602  0.1226
14987W        W30456  14.748  11.116   0.164  0.0580  0.1646 -0.0456
14988W        W30457   4.897   6.497   4.379  0.3330 -0.0338 -0.1307
14989W        W30458  12.635  10.578   9.663  0.2845 -0.1292  0.2508
14990W        W30459  15.053  17.353   4.630 -0.2293  0.4190 -0.1661
14991W        W30460   6.009   7.205   0.289  0.4361 -0.4266  0.0691
14992W        W30461   8.727   2.294   0.375 -0.0254  0.1661  0.0078
14993W        W30462  16.938  14.338  11.587  0.2451 -0.2191 -0.0394
14994W        W30463  18.970  14.105   3.960 -0.0870  0.1004  0.1264
14995W        W30464   0.978  13.834  10.780 -0.2548 -0.0041  0.1868
14996W        W30465   6.218  16.968   4.218  0.1405  0.2291  0.2160
14997W        W30466  10.524  18.244   0.380 -0.1003  0.2067 -0.1783
14998W        W30467   0.382   5.637   2.734 -0.0881  0.1990  0.1203
14999W        W30468   0.463  12.413   1.824  0.0668  0.0155  0.4677
15000W        W30469   1.114   5.767  13.227 -0.2782 -0.0121  0.1503
15001W        W30470   5.616  18.961  13.223  0.2679 -0.0442 -0.2244
15002W        W30471  16.534  17.361   9.993 -0.1065  0.0260  0.0085
15003W        W30472  10.272   9.550   4.536 -0.2021 -0.2286 -0.2581
15004W        W30473  14.755  16.269   0.634 -0.2964 -0.1993  0.3753
15005W        W30474   1.842  18.516  11.983 -0.0715 -0.0417 -0.1421
15006W        W30475  11.512  12.417  15.145  0.1256 -0.0426 -0.4430
15007W        W30476  13.092   5.194  13.573  0.0635 -0.1341 -0.0711
15008W        W30477  13.856   9.292   2.877  0.1902  0.0974 -0.0794
15009W        W30478   7.640  11.894  14.099 -0.1948  0.0071  0.1776
15010W        W30479   5.900  18.431  14.150 -0.0910  0.1139  0.0291
15011W        W30480  11.311   1.241  12.832 -0.0873 -0.0407 -0.1955
15012W        W30481  15.158   3.167  14.793 -0.1754 -0.1096 -0.1986
15013W        W30482   8.053  15.648   0.896  0.0243  0.0290 -0.1374
15014W        W30483   9.408   3.102   5.131  0.1222  0.0663 -0.0363
15015W        W30484   5.683   3.669  13.429 -0.0709 -0.0653  0.3504
15016W        W30485  14.625  10.508  10.353 -0.1725  0.1461  0.1341
15017W        W30486   4.881   8.920   2.591  0.2051 -0.0881 -0.0070
15018W        W30487   6.762   9.343  14.880 -0.1633  0.1737 -0.1281
15019W        W30488  14.924  15.247   4.812  0.1592  0.0193 -0.0392
15020W        W30489   9.639   7.761   2.526 -0.0782  0.1290  0.0666
15021W        W30490   8.055  19.020  10.067 -0.0579 -0.1827 -0.1009
15022W        W30491  13.462   3.994   1.621 -0.2511 -0.0053  0.2126
15023W        W30492  14.786   5.078  13.190 -0.0046 -0.0974  0.1722
15024W        W30493   0.286  14.940   3.804 -0.1435 -0.0623 -0.2968
15025W        W30494   2.549  13.216   2.285  0.2444  0.1084 -0.2183
15026W        W30495   4.752  16.040  14.575  0.1877 -0.0925 -0.1141
15027W        W30496  15.855  14.715  14.123 -0.3603  0.0074  0.0001
15028W        W30497  17.593   2.491  14.354 -0.2360  0.0799 -0.0378
15029W        W30498   5.422  13.428   0.641 -0.1175 -0.2401  0.1310
15030W        W30499  17.742  11.272   0.438  0.2054  0.1815  0.0261
15031W        W30500  18.916  13.193  11.130  0.3070 -0.1967  0.0427
15032W        W30501   8.652  15.982   0.319  0.3303  0.0287  0.1493
15033W        W30502   4.068   8.760   9.843  0.2077 -0.1751  0.2323
15034W        W30503   9.022  16.830   0.138 -0.1181  0.0804  0.0405
15035W        W30504  11.866   9.075   2.735  0.0659  0.0003  0.2349
15036W        W30505   5.011  12.456   1.360  0.0384 -0.0724 -0.1364
15037W        W30506   9.052   1.865   0.244  0.2246 -0.1509 -0.0360
15038W        W30507  19.012  11.601   3.257 -0.0169  0.2583  0.0277
15039W        W30508   7.860   9.446  10.052 -0.1031  0.1164  0.0238
15040W        W30509  16.484  16.481   1.419 -0.3373 -0.0482  0.0304
15041W        W30510   3.807  16.804  14.843  0.1866  0.2983 -0.2501
15042W        W30511   2.215  12.786   0.583  0.5551 -0.0716 -0.3163
15043W        W30512  10.785  10.521  11.269 -0.1371  0.0573  0.0694
15044W        W30513  13.451  16.199  11.852 -0.2342 -0.0575  0.4522
15045W        W30514  17.977  13.601   1.762 -0.0053  0.3957  0.1548
15046W        W30515  15.551   6.038   5.689  0.1981 -0.4005 -0.0640
15047W        W30516  17.706  18.865  12.122 -0.1942 -0.0552 -0.3207
15048W        W30517  14.336   2.149   4.838 -0.2214  0.0980  0.0841
15049W        W30518   2.574  17.127   3.172  0.1388 -0.0594 -0.0050
15050W        W30519   8.058  10.753   0.774  0.4664 -0.0278  0.2479
15051W        W30520  12.281  11.687   3.711 -0.1614 -0.5238 -0.1060
15052W        W30521   5.087  14.229  11.762  0.0309 -0.1945 -0.3043
15053W        W30522   9.575  18.197   0.824 -0.0577 -0.1068 -0.0100
15054W        W30523   2.973  10.824   4.677  0.0814 -0.0526 -0.3539
15055W        W30524   4.241   2.061  11.562 -0.1193  0.1312 -0.0033
15056W        W30525   2.393  15.243   0.225 -0.2872 -0.1482 -0.1753
15057W        W30526  13.827  16.787   4.746 -0.2489  0.2509 -0.0847
15058W        W30527   4.138  13.141  10.949 -0.0033 -0.0651  0.1663
15059W        W30528   3.039  16.917   2.854  0.1322  0.1648 -0.0709
15060W        W30529   1.771   4.417  13.288  0.4980  0.0284 -0.0984
15061W        W30530   9.619  10.813   4.974 -0.0988  0.2644  0.0377
15062W        W30531   9.801   5.565   2.079  0.1367  0.0332  0.1298
15063W        W30532   0.002  14.415  11.061  0.0855 -0.3610 -0.0915
15064W        W30533  12.686   2.949   0.854  0.0133  0.0672 -0.0493
15065W        W30534   0.745   1.782   5.205 -0.1841 -0.0168 -0.1539
15066W        W30535   6.237   2.681   4.371  0.0353 -0.3132  0.0560
15067W        W30536   7.570  13.880  13.679 -0.2555 -0.1481  0.0222
15068W        W30537  10.157  15.848   3.652  0.1881  0.2198 -0.0703
15069W        W30538  14.740  15.964   3.361  0.2933 -0.2194  0.0350
15070W        W30539  15.125  17.480   2.570 -0.0504  0.3531 -0.2434
15071W        W30540   1.642  14.962  12.173 -0.0630 -0.2768 -0.0774
15072W        W30541   6.840   7.103  12.707  0.1339  0.1221  0.0608
15073W        W30542   5.762   5.607  13.112  0.1516  0.1478 -0.4086
15074W        W30543  13.470   5.127   9.988 -0.2608  0.2872  0.0587
15075W        W30544   1.139   4.902   0.446 -0.0145 -0.1894  0.1076
15076W        W30545  12.742  11.630  13.653 -0.1645  0.0092  0.0865
15077W        W30546  13.191  11.744   0.079  0.1196 -0.1357 -0.1137
15078W        W30547  10.451  17.714  10.568 -0.0956  0.3017 -0.1251
15079W        W30548   0.705   3.342   0.681 -0.0456  0.0329  0.2419
15080W        W30549  10.356  16.682  12.139 -0.0619 -0.0617  0.4758
15081W        W30550  14.980  15.171   2.762 -0.0982 -0.0018  0.0743
15082W        W30551  12.476  18.005  12.643 -0.0212 -0.3159 -0.0611
15083W        W30552   3.234   0.525  11.369 -0.1196  0.0518  0.0219
15084W        W30553   1.047  15.677   2.259  0.1310  0.1788 -0.1583
15085W        W30554  11.156   1.181  13.397  0.2068 -0.3264 -0.0250
15086W        W30555   7.762   3.429   5.503 -0.0034  0.3246 -0.0352
15087W        W30556  13.793  12.686   3.610  0.1346  0.0044  0.0666
15088W        W30557   7.472  14.243  14.165  0.1330 -0.2824 -0.0582
15089W        W30558  18.290   3.821   0.305  0.0103 -0.1923 -0.1991
15090W        W30559  17.969  11.841  13.463  0.2944  0.0797  0.0719
15091W        W30560   3.193   4.533   3.567 -0.0552 -0.1417  0.0200
15092W        W30561  17.826   5.117   2.250 -0.0059  0.0627 -0.2355
15093W        W30562  16.224  12.317   5.189 -0.1196  0.0829  0.3040
15094W        W30563   2.739   6.074  13.453 -0.0735 -0.3085  0.2447
15095W        W30564   5.093  18.691   0.451 -0.3181 -0.4836 -0.3044
15096W        W30565   2.371   5.341  12.437 -0.0223 -0.0784  0.3300
15097W        W30566   1.073   7.906  15.227 -0.1735 -0.0716  0.0236
15098W        W30567   0.855  12.678   4.930 -0.3454  0.2450 -0.1905
15099W        W30568   9.933  16.185   4.217 -0.0030  0.3743 -0.2610
15100W        W30569  16.651  13.395   1.267  0.2873 -0.1243 -0.0147
15101W        W30570  18.747   1.010   0.177 -0.2061  0.0968 -0.1730
15102W        W30571   0.324  10.772   2.834  0.2273 -0.3257  0.3932
15103W        W30572   3.395  11.517  12.179 -0.4555  0.1126  0.1094
15104W        W30573   6.861  17.429  12.596 -0.2467 -0.1923 -0.1454
15105W        W30574  17.491  16.576   1.229  0.2716 -0.1695  0.1238
15106W        W30575  14.876  13.062   4.325 -0.0127  0.0722 -0.2778
15107W        W30576  14.121  18.913  13.213  0.0329 -0.2627 -0.0543
15108W        W30577  14.523  16.564   2.201  0.2397  0.0456  0.0423
15109W        W30578  14.901   0.025   2.047 -0.3013 -0.0524 -0.1017
15110W        W30579   0.382  18.912  12.925  0.1798  0.4656 -0.4320
15111W        W30580  15.477   1.628  13.157  0.4408  0.1319 -0.0188
15112W        W30581  14.346   0.725   2.484  0.0206 -0.0169  0.1385
15113W        W30582   0.885   8.431   4.146  0.0317  0.1293 -0.2304
15114W        W30583   8.335  11.651  11.839  0.4763 -0.1712 -0.0757
15115W        W30584  16.029  13.992   4.517 -0.0010 -0.0935  0.0804
15116W        W30585  16.288   6.954   0.877 -0.0013 -0.0510 -0.2203
15117W        W30586  13.133   7.071   2.721  0.1640 -0.2186 -0.0614
15118W        W30587   7.564   7.904  12.192  0.2654  0.1578  0.3934
15119W        W30588   5.797   0.702  12.563 -0.2391  0.1091 -0.1532
15120W        W30589   1.582  14.855  10.326 -0.0077  0.3911  0.0407
15121W        W30590   6.897   5.295  13.365 -0.0066  0.1368 -0.1240
15122W        W30591   5.434  10.360  13.842 -0.0972  0.2508 -0.2671
15123W        W30592   5.947  13.485   4.306 -0.0556 -0.1547  0.2524
15124W        W30593  16.843   2.328   2.174  0.0287  0.0146  0.4295
15125W        W30594   4.838  10.121  14.339 -0.0217  0.1414 -0.0114
15126W        W30595  11.611   4.012  13.490  0.2412 -0.0119  0.3489
15127W        W30596  11.827  10.577  11.607  0.2460 -0.0427 -0.0476
15128W        W30597  11.339   2.700  12.313  0.0348 -0.0753  0.3166
15129W        W30598  15.866   2.879   0.371 -0.1281 -0.3135  0.4378
15130W        W30599   0.198   1.917  12.582 -0.0653  0.5522  0.1707
15131W        W30600  16.820   4.758   0.769  0.0422  0.1405 -0.3774
15132W        W30601   7.724  10.130  12.521  0.3329  0.1733 -0.3967
15133W        W30602  10.151   2.019  13.439  0.0785 -0.0860 -0.2789
15134W        W30603   6.788   9.500   3.822  0.1297  0.1353  0.2158
15135W        W30604  17.380   6.962  14.937  0.0661  0.0635  0.2092
15136W        W30605  10.035  15.535   0.971  0.1221  0.0591 -0.1531
15137W        W30606   3.443   6.380  12.420 -0.0402  0.4661  0.3162
15138W        W30607  17.773   4.593  14.544 -0.3460  0.0502 -0.1919
15139W        W30608  15.400   7.055  14.305 -0.0369 -0.2339 -0.0172
15140W        W30609  17.727  13.027  11.507 -0.0747  0.3330 -0.0003
15141W        W30610   8.788  16.539   0.870  0.0317  0.3764  0.1507
15142W        W30611   7.836   9.559  13.962  0.1979 -0.0719 -0.2971
15143W        W30612   0.334   3.908  12.571 -0.0010 -0.1506 -0.1226
15144W        W30613   7.796  18.476   2.902 -0.0569 -0.2847 -0.1060
15145W        W30614   2.932  15.343   2.932 -0.4858  0.1653  0.2140
15146W        W30615   7.123   0.001   3.961 -0.0326 -0.1006 -0.1480
15147W        W30616   8.806  13.214  11.838 -0.0767 -0.0119 -0.1800
15148W        W30617  17.635   2.178   9.683 -0.0955  0.3087 -0.2564
15149W        W30618  13.934  17.002   4.048  0.2410 -0.1477  0.0695
15150W        W30619  14.038  18.402   1.254  0.0287 -0.2515 -0.0752
15151W        W30620   3.171   8.649   2.138  0.1838 -0.1462  0.0868
15152W        W30621   7.711   6.812   3.512  0.0450 -0.0528  0.1111
15153W        W30622   6.221   6.710  15.363 -0.0854 -0.2297  0.1645
15154W        W30623  14.370   7.832   3.632  0.1142 -0.1711 -0.2188
15155W        W30624   8.240  14.297   3.639  0.1449  0.0096 -0.1812
15156W        W30625   5.429   1.983   4.017 -0.1547 -0.1509 -0.1060
15157W        W30626   4.794  12.583   0.513  0.1179 -0.0614 -0.0302
15158W        W30627   9.122  14.079  13.847 -0.0118 -0.0060  0.0559
15159W        W30628  11.236  12.029   3.493 -0.0446  0.1783  0.0551
15160W        W30629  13.724  18.593   5.783 -0.2199  0.0399 -0.3887
15161W        W30630   3.221  10.779   4.222  0.2981 -0.0568 -0.1309
15162W        W30631  10.322   0.054  11.376 -0.0221 -0.1956  0.1329
15163W        W30632  15.883   3.732  11.046  0.0846 -0.1942  0.1109
15164W        W30633   3.976   6.289  13.575 -0.2293 -0.1980  0.2131
15165W        W30634   9.666  12.389  10.643 -0.2591  0.0159  0.1795
15166W        W30635   5.511   8.937   2.828 -0.0861  0.0937  0.3524
15167W        W30636   2.420   2.467  15.178 -0.1306 -0.2816 -0.0198
15168W        W30637  10.845  14.812   2.302  0.3034  0.0343  0.1972
15169W        W30638  12.441   0.083  11.353  0.2639 -0.2557  0.2131
15170W        W30639   7.407   0.518  11.385  0.1363 -0.4250  0.2668
15171W        W30640   6.030  11.989   2.887  0.3093 -0.0640 -0.1805
15172W        W30641  17.391  14.637  12.401  0.3050  0.2648 -0.0059
15173W        W30642  12.435  16.632  10.227 -0.1010 -0.0053 -0.0461
15174W        W30643   5.820  13.096  15.217 -0.0929  0.0774 -0.3369
15175W        W30644  18.718  10.664   5.052 -0.2256 -0.1893 -0.3836
15176W        W30645  10.365   8.794   5.066  0.2310 -0.0165 -0.1483
15177W        W30646  13.570   2.078  15.090  0.1633 -0.3729  0.3406
15178W        W30647  15.251   9.103   5.041 -0.0937 -0.2325 -0.0652
15179W        W30648  16.105   9.313  12.996 -0.1614 -0.1427 -0.0330
15180W        W30649   4.119   5.299   0.833 -0.0236 -0.0411 -0.1622
15181W        W30650  15.425   6.293  13.363 -0.1305  0.2278 -0.4724
15182W        W30651   5.925   6.015  12.863  0.2139 -0.1012 -0.1357
15183W        W30652  17.024  12.748   4.953 -0.1833 -0.0126 -0.1111
15184W        W30653  16.923  13.493  14.178 -0.0900  0.2701 -0.0355
15185W        W30654  16.476  12.635  13.615 -0.1891 -0.0121  0.1539
15186W        W30655   5.054  13.087   2.325  0.0532 -0.0322 -0.1316
15187W        W30656   6.544  18.198  10.994 -0.4647  0.2860  0.2141
15188W        W30657  18.892   8.746   4.484  0.0721 -0.0395 -0.2375
15189W        W30658  12.947   9.065   9.358  0.3930  0.0854  0.2436
15190W        W30659   4.771   1.264   2.770 -0.0584 -0.1141  0.0973
15191W        W30660  16.848  14.168  15.330 -0.2045 -0.0248 -0.0604
15192W        W30661   1.374  13.120  12.384  0.2723 -0.3189  0.0566
15193W        W30662  10.631  18.548  10.230  0.2917  0.2344  0.0898
15194W        W30663  15.501  15.131   1.695  0.0139  0.1775 -0.1544
15195W        W30664  13.743   7.208   3.485 -0.0050  0.0636 -0.1113
15196W        W30665  14.686   4.055   3.154  0.1672 -0.0210 -0.0512
15197W        W30666   2.350   7.168   4.226  0.1450  0.3507  0.1099
15198W        W30667   4.716  12.955  12.426 -0.1013  0.1531  0.2800
15199W        W30668  11.470  10.117  12.663  0.0389  0.1994  0.1687
15200W        W30669   9.893  11.378   0.916  0.0314 -0.1124  0.0799
15201W        W30670   3.671  12.113  14.919 -0.2373 -0.0558  0.0765
15202W        W30671  10.970  16.446   3.338  0.1898 -0.2850  0.0154
15203W        W30672  11.878   3.244   2.864  0.0420 -0.0832  0.0709
15204W        W30673  10.512   5.904  15.354 -0.0504  0.1177  0.0370
15205W        W30674  16.992   9.938  13.926 -0.2102 -0.0385 -0.1625
15206W        W30675   2.970   6.622   2.680 -0.0838 -0.2632  0.4558
15207W        W30676   9.312  11.165   2.507  0.0639  0.0621  0.0300
15208W        W30677   6.340   8.966  11.353 -0.1824 -0.1845  0.0849
15209W        W30678   2.306   4.321  13.210  0.1751  0.0128 -0.1646
15210W        W30679   1.719  12.124  13.253 -0.1281  0.1518 -0.3317
15211W        W30680   0.438  13.762   4.892 -0.3839  0.0451 -0.2746
15212W        W30681   6.169  15.385  11.639  0.0276 -0.0216 -0.3182
15213W        W30682   9.150   6.725  10.771 -0.1727 -0.2489 -0.1958
15214W        W30683   4.604   7.062   1.406  0.4459  0.1406 -0.3320
15215W        W30684   2.815  16.040   1.574 -0.0587  0.1897  0.0962
15216W        W30685   7.469  15.836   0.355  0.0166 -0.2499 -0.1663
15217W        W30686   5.539  12.481  13.860  0.0146  0.0711 -0.0757
15218W        W30687   8.201  13.136   4.716  0.0682  0.2506 -0.0097
15219W        W30688   6.182   7.752   4.373 -0.2139 -0.1033  0.0447
15220W        W30689   4.716  13.724   1.034  0.3689  0.0919  0.0913
15221W        W30690   0.558   2.620   2.698  0.2952  0.3753  0.0226
15222W        W30691  18.146  12.236   3.321  0.0622 -0.1049 -0.3411
15223W        W30692   7.663   5.088   2.033 -0.2556 -0.3480  0.1235
15224W        W30693   3.573   4.371  11.003 -0.0866 -0.2148 -0.2948
15225W        W30694  11.424   8.709   0.194 -0.3070 -0.0570  0.0252
15226W        W30695   5.408   6.248  10.887 -0.0340 -0.1106  0.0426
15227W        W30696  11.171  12.363   3.885  0.3546 -0.4225 -0.0049
15228W        W30697   2.170   3.735  10.667 -0.0673 -0.0059  0.2854
15229W        W30698   5.000   6.915  12.104  0.0014  0.0214  0.5119
15230W        W30699   4.476   0.707  14.520  0.1571  0.2457  0.0409
15231W        W30700   1.863  12.161  11.555 -0.0060  0.0190 -0.1367
15232W        W30701  17.012   2.647  12.181 -0.1639 -0.0501  0.3215
15233W        W30702   2.674   4.383   4.985  0.1875  0.0263 -0.3850
15234W        W30703   6.242   2.381  13.393 -0.1049  0.1063  0.0459
15235W        W30704  10.722  11.671  11.932 -0.3759  0.0276  0.1355
15236W        W30705  15.783   3.945  13.116  0.4035 -0.1087 -0.1426
15237W        W30706   7.200  18.360  14.957 -0.2732 -0.2699 -0.0354
15238W        W30707   6.047  10.505   0.695  0.2543  0.3627  0.1661
15239W        W30708  18.138  13.606  10.727  0.0758 -0.1133 -0.1923
15240W        W30709   0.939  13.252  10.709  0.2212 -0.1224 -0.2847
15241W        W30710   4.492   6.467   1.499 -0.4570 -0.1745  0.1585
15242W        W30711  12.612  18.284  15.225 -0.6453 -0.0579 -0.1639
15243W        W30712   0.748  11.399  11.202  0.3144  0.0616 -0.0435
15244W        W30713  16.742  12.720  14.635 -0.2009  0.0835 -0.1274
15245W        W30714  11.130   7.633   4.398 -0.0333  0.1645  0.4343
15246W        W30715   1.593   8.889   2.029  0.1397 -0.2804  0.3862
15247W        W30716  13.343   1.874   2.864  0.1799  0.0466  0.2882
15248W        W30717   0.730  14.556  12.197 -0.2623 -0.1284 -0.2726
15249W        W30718   0.168  13.654  12.735 -0.0619 -0.1802 -0.1066
15250W        W30719   1.738   2.307  12.925  0.0714 -0.2155 -0.1060
15251W        W30720   5.090  13.832  14.165 -0.3351  0.1512 -0.0503
15252W        W30721  16.880   5.656  11.712 -0.3426  0.0547  0.1005
15253W        W30722   7.520  17.218   2.602 -0.1229 -0.0334 -0.0216
15254W        W30723   6.628   6.417   3.888 -0.2980  0.0502  0.2557
15255W        W30724   1.213   2.499  15.336 -0.1339 -0.1162  0.2229
15256W        W30725   2.264  17.473   1.476 -0.5629 -0.0971  0.2120
15257W        W30726   7.667  17.895   2.040 -0.2641  0.0352 -0.2101
15258W        W30727   5.610  17.394   3.511 -0.0720 -0.2890  0.0492
15259W        W30728   2.195   5.619   5.629 -0.2066 -0.1348  0.1147
15260W        W30729   0.692   5.447   3.121 -0.1397  0.4494 -0.1272
15261W        W30730   9.990   4.403   0.455 -0.0600 -0.1926  0.0144
15262W        W30731  18.875  14.241   0.907  0.2642 -0.0013  0.0373
15263W        W30732   2.124  15.360   1.644 -0.0362  0.2544 -0.2357
15264W        W30733   8.846   8.052  12.001 -0.1372  0.2137  0.1559
15265W        W30734   1.286   6.866  14.180  0.0981  0.2122 -0.0755
15266W        W30735   0.735   2.679   1.382 -0.2140  0.0419 -0.0871
15267W        W30736  19.002  17.500  14.660 -0.5450 -0.0229  0.0956
15268W        W30737  10.858   4.665  13.675  0.1648 -0.1090  0.2589
15269W        W30738   0.525  17.317  11.991  0.1260  0.1086  0.0674
15270W        W30739   0.182   3.308  10.278 -0.0256  0.3595  0.0550
15271W        W30740   8.735   7.002  14.837  0.3289  0.2511  0.1214
15272W        W30741  10.185  13.167   9.982 -0.0864  0.1419  0.0266
15273W        W30742   6.400  14.324   1.891  0.0998 -0.0386 -0.1735
15274W        W30743   3.183   7.595   2.421  0.0306  0.0918  0.1181
15275W        W30744   4.694  10.098   2.723 -0.2316  0.0666 -0.4200
15276W        W30745  13.728   5.667   4.063  0.0828  0.1261 -0.1489
15277W        W30746  16.040   4.801   4.208  0.1694 -0.1807 -0.2175
15278W        W30747  12.204   2.531   0.875 -0.2465  0.0158 -0.2832
15279W        W30748  17.010  11.174  12.486  0.1047  0.0926  0.1874
15280W        W30749   6.224  17.472   1.976  0.3755 -0.0019 -0.2684
15281W        W30750  17.911   8.674  15.066  0.1036  0.2597  0.1713
15282W        W30751  12.176  18.359  12.489 -0.1033 -0.0023  0.1407
15283W        W30752   3.464  11.121  12.539  0.2423  0.0381 -0.2195
15284W        W30753  13.622  10.082   0.573  0.1401 -0.2597 -0.0043
15285W        W30754  15.052  11.701  14.229 -0.1243  0.2645  0.0346
15286W        W30755   1.373   3.170  11.405  0.3192 -0.0396 -0.1468
15287W        W30756   0.747  17.746  11.839 -0.0568  0.1412 -0.2895
15288W        W30757  11.612   1.380   1.780 -0.4293 -0.1326  0.0310
15289W        W30758  11.020  12.747   1.864 -0.0775 -0.4431 -0.3311
15290W        W30759  10.139  13.451   4.413 -0.2738 -0.1879  0.1182
15291W        W30760   3.346   5.776   4.363 -0.1978 -0.3657  0.1762
15292W        W30761   0.238  15.595   0.419  0.2559  0.2764 -0.0145
15293W        W30762   3.709   4.621   2.322  0.2216  0.0110  0.0079
15294W        W30763   7.143   9.883  15.154  0.5550  0.2494  0.3151
15295W        W30764   0.431  18.663   4.218  0.0005  0.0172 -0.0286
15296W        W30765   0.224  10.025   4.582 -0.3904 -0.1582  0.0416
15297W        W30766  18.951  13.794  14.461 -0.1239 -0.0804  0.1027
15298W        W30767   4.304  10.755  14.634 -0.3604 -0.1029  0.1600
15299W        W30768   8.003  18.011  12.967  0.0211  0.2438 -0.0949
15300W        W30769   2.019  15.000  13.535 -0.0628 -0.0447  0.0039
15301W        W30770  15.595  12.309  13.198 -0.4517 -0.2269 -0.1234
15302W        W30771  11.597  17.122   1.178  0.1076 -0.0726  0.1171
15303W        W30772   1.944   8.030   2.879  0.2333  0.3104 -0.2129
15304W        W30773  14.399   2.318  11.512  0.0549  0.0080  0.1379
15305W        W30774  14.679   5.176  10.662 -0.0541  0.3588 -0.2968
15306W        W30775  12.895   8.069  11.529  0.1009  0.1708  0.4284
15307W        W30776  12.614  18.906  10.899  0.6310  0.0477  0.1116
15308W        W30777   7.239   0.973  10.900  0.3039 -0.2265 -0.1543
15309W        W30778   4.925  14.823   1.213  0.0660 -0.1124  0.2366
15310W        W30779   5.764   8.441   2.487  0.0232 -0.0694 -0.1103
15311W        W30780   8.062   8.266   5.806 -0.3039  0.0558  0.4650
15312W        W30781  17.374   8.252   9.924 -0.3702  0.1280  0.4177
15313W        W30782   6.282   9.427   2.506 -0.2721 -0.2469  0.3048
15314W        W30783   4.083  17.348   0.308  0.0904 -0.2748 -0.1395
15315W        W30784  18.142   9.799  10.987 -0.1376  0.0540 -0.1577
15316W        W30785   4.301  14.045   4.275  0.2000 -0.2341 -0.1696
15317W        W30786  13.609   4.514  10.672  0.1944  0.1285  0.1380
15318W        W30787   7.339   4.594  13.296 -0.1357  0.3501 -0.0047
15319W        W30788   9.961   8.925  10.419 -0.1163 -0.1173  0.5060
15320W        W30789  16.318  13.302   2.784 -0.1316  0.3571  0.1822
15321W        W30790  17.611   0.081   1.606 -0.1061  0.1503 -0.0871
15322W        W30791   0.969  13.367   1.002 -0.2875  0.3353  0.0899
15323W        W30792  11.376   2.003  13.139 -0.0957  0.0808 -0.1997
15324W        W30793  19.008  10.366   2.054  0.0024  0.0562  0.1065
15325W        W30794   6.988   4.488   5.910  0.0125  0.1479 -0.0066
15326W        W30795   3.900  14.036   3.426 -0.0399 -0.2137 -0.1477
15327W        W30796   4.584   6.496   3.515 -0.1548  0.1189 -0.3807
15328W        W30797  17.034   9.365  10.788  0.0450 -0.4848  0.2866
15329W        W30798  13.373   2.135  12.605 -0.3115  0.2939  0.1007
15330W        W30799   7.860  18.083   1.427 -0.1217 -0.2663 -0.1365
15331W        W30800  16.152  17.585   4.172  0.2248 -0.2133 -0.0360
15332W        W30801   2.377   0.245  12.346  0.3066  0.0881  0.1354
15333W        W30802  10.603  12.683   2.586  0.1474 -0.1056 -0.0298
15334W        W30803   9.225   7.563   3.258 -0.2212  0.2876  0.0330
15335W        W30804  12.237  10.061  13.828  0.2400 -0.1053  0.4312
15336W        W30805  12.143   6.702   0.260 -0.1509  0.1588  0.3712
15337W        W30806   7.245   6.576  12.901 -0.3045 -0.1318 -0.1471
15338W        W30807  14.807   5.364  11.116  0.2286  0.0310 -0.3184
15339W        W30808  14.350   9.954   2.651 -0.0642  0.4589  0.1862
15340W        W30809  15.325   5.288  11.013  0.0275 -0.0489 -0.3651
15341W        W30810  18.557   9.156   2.253 -0.3342 -0.0017 -0.0373
15342W        W30811   4.619  11.313   2.001 -0.1908 -0.1899  0.0038
15343W        W30812  12.451   5.621  11.554 -0.1526  0.0808  0.0858
15344W        W30813  13.272  19.004   2.098  0.0064 -0.3483 -0.1688
15345W        W30814  14.927  12.437  12.242 -0.2076  0.1304  0.2134
15346W        W30815  12.401  17.972   1.875  0.1400  0.3105  0.1973
15347W        W30816   3.016   4.634   4.321 -0.1471 -0.2089 -0.0640
15348W        W30817   8.131  17.672  12.566  0.0933 -0.0586 -0.1013
15349W        W30818  13.012  16.758  14.330  0.0925  0.0670  0.0717
15350W        W30819   3.191   9.398  10.113 -0.0918 -0.0516  0.1770
15351W        W30820   2.426  13.970  13.353  0.1158 -0.0768 -0.0422
15352W        W30821   1.205  12.586  13.339  0.2741  0.2441 -0.3550
15353W        W30822   8.188   1.174   2.319  0.0096  0.1374 -0.3006
15354W        W30823  13.794   6.606  14.238  0.2767 -0.1082 -0.0023
15355W        W30824   6.367   9.784  12.603 -0.2087  0.0951  0.0024
15356W        W30825  13.177  15.874  11.106 -0.2796  0.0615  0.1518
15357W        W30826  17.596  11.003   1.197  0.1348 -0.1347  0.1687
15358W        W30827   5.913   6.378  10.410 -0.0175  0.1999 -0.1500
15359W        W30828  15.681   5.528  11.316  0.2095 -0.1686  0.1843
15360W        W30829  15.180   4.983  10.543  0.1394 -0.0772  0.0100
15361W        W30830   4.601  14.906  11.092  0.2272  0.1079  0.0273
15362W        W30831   6.471  15.980   5.005 -0.3234  0.0886 -0.4104
15363W        W30832   4.634   8.110  11.673 -0.1482  0.1535 -0.2074
15364W        W30833   2.357  17.009  13.311 -0.1693 -0.0709  0.0527
15365W        W30834  15.376  13.861   3.251  0.0892  0.0167 -0.2242
15366W        W30835  12.762  15.979   5.195 -0.2818 -0.0549 -0.0707
15367W        W30836   0.493  10.307  14.836 -0.2196  0.0813 -0.1644
15368W        W30837   6.907  12.598  12.023 -0.0829  0.3360  0.0331
15369W        W30838   1.902   9.228   4.325 -0.1027 -0.1381  0.0657
15370W        W30839  17.385  13.457  13.075  0.1280  0.1625 -0.0186
15371W        W30840  18.350   3.592  10.612 -0.2615  0.2883  0.0832
15372W        W30841   6.191   3.771  12.228  0.1598 -0.2877  0.1159
15373W        W30842   6.159  18.808  11.538  0.1131  0.1025  0.1086
15374W        W30843   7.349   4.838   6.034 -0.1961  0.0252  0.3058
15375W        W30844  16.603   3.531   4.049 -0.1815 -0.0267 -0.1724
15376W        W30845  18.697  17.580  11.586  0.2904 -0.0132  0.0960
15377W        W30846  10.062   8.501  12.322 -0.2866  0.1153 -0.1451
15378W        W30847   1.737   3.124   3.214 -0.0279 -0.2295 -0.0604
15379W        W30848  12.672  18.880  13.158  0.1934 -0.2600  0.0339
15380W        W30849  18.415  17.438   4.379  0.0408  0.2368 -0.0493
15381W        W30850  13.783  18.602  13.913 -0.0215 -0.0462 -0.4643
15382W        W30851   0.493  15.124  13.677 -0.1541  0.1182  0.0800
15383W        W30852   8.753  14.418  13.600  0.0925  0.1117  0.2901
15384W        W30853  14.114   6.209  11.121  0.0607 -0.1096  0.0467
15385W        W30854   1.241   4.022   0.376  0.0225  0.0413 -0.0105
15386W        W30855  10.942   6.452  13.155 -0.2425 -0.0491 -0.2855
15387W        W30856   9.883  12.695   0.587 -0.0771  0.0003 -0.0645
15388W        W30857   5.866  18.366  12.343 -0.2181  0.2444 -0.0403
15389W        W30858   7.154  14.960   2.271 -0.2130 -0.0151 -0.0088
15390W        W30859   0.676  15.769   4.592 -0.3292  0.1513 -0.0490
15391W        W30860   9.099  18.085   0.776  0.0779  0.0808 -0.1494
15392W        W30861  15.365   3.197   2.195 -0.0520  0.2665 -0.3735
15393W        W30862   6.241   2.349  11.505  0.0993 -0.1234 -0.3744
15394W        W30863   0.815   0.975   0.799  0.1877  0.0774 -0.0051
15395W        W30864  14.011   4.213   2.362  0.2678  0.1041  0.3073
15396W        W30865   0.098   2.836   3.279 -0.1703 -0.0779  0.1394
15397W        W30866   2.328   1.054  11.539  0.2204  0.1094 -0.1614
15398W        W30867   1.383  12.123   2.920  0.2348 -0.0204 -0.0771
15399W        W30868  15.233   4.543   2.130 -0.0069 -0.2027 -0.0243
15400W        W30869   3.115   1.763  13.380  0.1975 -0.2001 -0.1902
15401W        W30870   4.164   7.242   1.356 -0.2574 -0.4122 -0.1800
15402W        W30871  11.614   2.719  15.106  0.3308 -0.0145 -0.3294
15403W        W30872   6.164   0.569  13.699 -0.1323 -0.0473 -0.0667
15404W        W30873   4.312   8.009  14.704 -0.0282 -0.2960 -0.4502
15405W        W30874  18.085   5.952   3.722 -0.0831 -0.0425 -0.1845
15406W        W30875  11.423  17.262  15.101 -0.2853 -0.0680  0.2562
15407W        W30876   0.275   9.768  11.255  0.0017 -0.2124 -0.0875
15408W        W30877   3.700  16.782  13.510  0.3321 -0.0483 -0.2898
15409W        W30878   9.861  18.371  13.023 -0.0217 -0.2236 -0.0131
15410W        W30879  14.481   3.345   0.606  0.1953 -0.2235  0.4716
15411W        W30880  13.060  18.634  13.436 -0.1628 -0.0175 -0.0944
15412W        W30881   9.063   1.363   2.661  0.2767 -0.2877 -0.0597
15413W        W30882   3.882   7.956  14.420  0.0392 -0.0746  0.2622
15414W        W30883  17.391   6.982  11.419 -0.5216 -0.0515  0.1582
15415W        W30884  14.429   8.828   1.710 -0.1267 -0.1106  0.1316
15416W        W30885   1.283   0.107   0.439  0.1590 -0.0441  0.1300
15417W        W30886  15.960   8.957  13.304  0.0895  0.2594  0.2080
15418W        W30887  13.061  17.202   9.938 -0.1641  0.2523  0.1806
15419W        W30888   1.896   3.447   0.309 -0.1815 -0.0022  0.1869
15420W        W30889   0.129   5.560   1.213  0.0454  0.3866 -0.1589
15421W        W30890   1.369  10.630  12.080  0.3071 -0.0628 -0.1587
15422W        W30891  19.002  16.273  10.016  0.4063 -0.2692  0.1255
15423W        W30892  14.931  10.043   1.955  0.0170  0.6648  0.0505
15424W        W30893  15.870   9.776  13.041  0.5019 -0.2175 -0.2100
15425W        W30894   5.231   4.389   4.268 -0.1853  0.3848  0.1181
15426W        W30895  12.326  13.910   2.825 -0.0103  0.0523  0.2470
15427W        W30896   0.999  16.884  14.032  0.0401  0.1945 -0.5249
15428W        W30897   2.383   9.333   0.109  0.1662 -0.0461 -0.0235
15429W        W30898  10.079   9.418  10.482  0.2676 -0.2167  0.0260
15430W        W30899  14.111   3.889  12.597 -0.4892 -0.5151  0.3068
15431W        W30900  12.731  12.853  15.077 -0.0964  0.1527 -0.0636
15432W        W30901  13.059   3.198  14.905  0.0277 -0.3076 -0.0866
15433W        W30902  10.119   0.821  13.381 -0.1114 -0.0523  0.2130
15434W        W30903   4.056   2.778  13.956 -0.1232 -0.0514 -0.0859
15435W        W30904   6.121   9.958   5.931  0.1239 -0.0556  0.0182
15436W        W30905   4.297  18.414  15.345  0.2761  0.0073 -0.2756
15437W        W30906   3.661   8.039  10.360 -0.3401 -0.0867 -0.2571
15438W        W30907  18.082  12.221  13.014  0.4766  0.0806 -0.0700
15439W        W30908   7.977   0.887   3.413  0.0283 -0.0363  0.0026
15440W        W30909   8.812  16.152   5.097 -0.1580  0.0144  0.1911
15441W        W30910  16.790  14.992   1.603 -0.0659  0.1584 -0.0168
15442W        W30911   4.437   7.574  13.324  0.1259 -0.0461 -0.1892
15443W        W30912  11.154  14.173   3.412  0.2588 -0.0159  0.0009
15444W        W30913   7.640   5.497   4.823 -0.1963  0.0887  0.1646
15445W        W30914   5.754   0.908   5.413 -0.2019  0.1751  0.4308
15446W        W30915   4.192  18.983   0.233 -0.1980 -0.1485  0.3324
15447W        W30916   5.766   5.983   1.185  0.1056  0.0286  0.3612
15448W        W30917   3.370   0.034   2.588 -0.1256 -0.0837 -0.2261
15449W        W30918  13.580  18.118  12.259 -0.2414  0.0709 -0.2168
15450W        W30919   2.186  10.160   1.727 -0.3359 -0.3155 -0.1950
15451W        W30920   8.642   3.412   0.288 -0.0075  0.1116 -0.3642
15452W        W30921  15.937   1.777   2.876 -0.5581 -0.0123 -0.0325
15453W        W30922   8.636   2.906  12.508 -0.3203  0.1115 -0.3791
15454W        W30923  17.701  14.110  14.172  0.1468 -0.1155 -0.3070
15455W        W30924  12.668  13.183   4.830 -0.1493 -0.0964 -0.2828
15456W        W30925  10.260   7.136  12.966 -0.0634 -0.0771  0.1598
15457W        W30926   9.538   0.998   0.664  0.1785 -0.0076  0.1837
15458W        W30927  15.833   6.821  14.312 -0.0048 -0.0413  0.1350
15459W        W30928   8.944  18.297   5.222 -0.0414 -0.0680  0.0556
15460W        W30929   9.182   1.460   4.776 -0.0189 -0.0061  0.1223
15461W        W30930  17.869   1.929  11.181 -0.0631 -0.0681  0.3164
15462W        W30931   0.479  11.505   2.156  0.0236  0.2900  0.2456
15463W        W30932  10.755  18.029  12.007 -0.0468 -0.0580 -0.0078
15464W        W30933   3.107   7.386  12.636 -0.0877 -0.1877  0.0400
15465W        W30934   9.693   8.174  12.286 -0.2598  0.0590 -0.2688
15466W        W30935   7.852  11.974   3.001 -0.0254  0.0956 -0.1192
15467W        W30936  16.530   2.007   1.366 -0.0329 -0.1954 -0.0768
15468W        W30937   9.154  17.355   0.611  0.0052  0.1150 -0.2615
15469W        W30938   6.206   5.575  12.481  0.0398 -0.1390  0.3261
15470W        W30939   4.841  14.198   0.944 -0.0492  0.7783  0.5968
15471W        W30940  13.424  18.332   1.914 -0.1849 -0.0033  0.2026
15472W        W30941  15.692   0.200   2.289 -0.3596  0.0294 -0.3115
15473W        W30942   7.426   7.433   4.914  0.0699  0.0237 -0.2699
15474W        W30943  11.520   1.180   3.809  0.0135 -0.1112  0.3117
15475W        W30944  15.665   8.799   5.015  0.2994 -0.1914 -0.0706
15476W        W30945  14.861   7.623   2.280 -0.1087  0.0216  0.1952
15477W        W30946  16.947  17.619   1.405  0.0949 -0.1372 -0.1485
15478W        W30947   6.098  13.711   2.174  0.0094 -0.2569  0.2274
15479W        W30948   0.950   4.805  15.230  0.1147 -0.1634 -0.3827
15480W        W30949   4.741  13.446   2.152  0.2580 -0.2854 -0.0650
15481W        W30950   0.607  13.643   0.742 -0.1776 -0.3049  0.2299
15482W        W30951  10.576  12.848   1.654  0.3078 -0.0649  0.2350
15483W        W30952   8.281  16.852  14.127  0.1039  0.2295 -0.4414
15484W        W30953   2.313  15.504  11.114 -0.0523  0.2820 -0.3416
15485W        W30954  10.059   5.219  14.046 -0.1556  0.0153 -0.0026
15486W        W30955  13.027  11.792  12.478  0.1316  0.0274 -0.0070
15487W        W30956  13.163   8.775   2.899  0.2532  0.0451 -0.2254
15488W        W30957   2.306  14.285   4.275  0.2264 -0.1162  0.0848
15489W        W30958   0.052  15.200  14.429 -0.0381  0.0072 -0.0940
15490W        W30959  11.219  14.228   4.853 -0.0274  0.2062 -0.0143
15491W        W30960   0.219   1.298   0.398 -0.0005 -0.1261  0.1120
15492W        W30961   1.453  15.788  12.014 -0.1494  0.0763 -0.0633
15493W        W30962   8.650  17.949   5.074  0.2492  0.4603  0.0299
15494W        W30963   2.691   8.324  11.597  0.1492  0.4255 -0.0372
15495W        W30964   5.369  14.687  13.754  0.2747 -0.3922  0.0699
15496W        W30965   6.761   9.288   4.995  0.0927  0.0247 -0.1007
15497W        W30966   3.216   5.726   3.717  0.3115 -0.2917 -0.4213
15498W        W30967  16.538   9.121   1.439 -0.1072  0.3829  0.1338
15499W        W30968  14.058  18.222   0.238  0.0890 -0.0112 -0.0183
15500W        W30969  13.901  12.163   0.030 -0.0716 -0.0708 -0.1464
15501W        W30970   7.860   9.259  13.059  0.1465  0.2270 -0.1609
15502W        W30971   9.787  16.212   0.689 -0.1458  0.0796  0.1991
15503W        W30972  18.188  14.754   2.819  0.1341  0.1056  0.1776
15504W        W30973   2.712   7.113   4.699  0.3948  0.2568  0.2334
15505W        W30974   9.520   5.099   1.879 -0.0083  0.0208  0.0267
15506W        W30975  13.844  18.255   5.465  0.0174  0.2267  0.2753
15507W        W30976   2.207   4.396  13.779 -0.0547 -0.1234 -0.1742
15508W        W30977  14.163   7.225   5.368  0.1897  0.2122  0.1877
15509W        W30978   5.216  13.008  11.565 -0.2390  0.0265  0.0413
15510W        W30979  12.556  16.494   1.766 -0.1716  0.1095 -0.1997
15511W        W30980  13.043   1.547   2.414  0.0258 -0.1306 -0.1916
15512W        W30981   9.412   3.153   3.231 -0.0260 -0.0918 -0.0992
15513W        W30982   6.119   6.398   4.197 -0.1276 -0.0361  0.0251
15514W        W30983  17.422   2.917   0.694  0.0179  0.2443 -0.0650
15515W        W30984  16.050   5.364  14.184  0.0067 -0.2760 -0.0855
15516W        W30985   5.444   5.673   4.635 -0.0748  0.3957  0.0521
15517W        W30986  17.695   1.991  11.677  0.4234 -0.2010 -0.1986
15518W        W30987   2.778  14.599  10.687 -0.1291 -0.1705  0.1019
15519W        W30988   4.882  13.105   4.910 -0.1738 -0.0199 -0.2754
15520W        W30989   3.949  10.556   5.162 -0.0279  0.0904 -0.3173
15521W        W30990   2.320  17.495   4.471  0.1038  0.2912 -0.0713
15522W        W30991   9.710  10.395   2.268  0.1697 -0.3082 -0.2508
15523W        W30992  12.886  17.521  12.412  0.2172 -0.2506  0.1237
15524W        W30993  12.513  18.104   4.810  0.1346  0.2080 -0.0332
15525W        W30994  16.001   6.504   3.880 -0.0153 -0.0731  0.0539
15526W        W30995   9.269   5.435   0.390 -0.0070  0.2385  0.3366
15527W        W30996   4.313  17.997  12.215 -0.1319  0.3003 -0.0402
15528W        W30997   2.407   7.833  15.211 -0.1108 -0.0156  0.0944
15529W        W30998  15.888  12.164   0.779  0.2369  0.3721 -0.1886
15530W        W30999   2.512  15.982   1.190  0.3436  0.1451  0.3243
15531W        W31000   9.812   9.596   9.629 -0.1284  0.2089 -0.3497
15532W        W31001  14.833   7.770  10.490 -0.0486 -0.0028  0.1341
15533W        W31002  15.243  18.277   9.933 -0.3763 -0.1174  0.2280
15534W        W31003   8.880  18.562   6.107 -0.2058  0.0290 -0.2283
15535W        W31004   1.439   5.095  15.017 -0.0852 -0.0934 -0.0592
15536W        W31005   4.181   1.910   4.274 -0.1317  0.1781  0.1289
15537W        W31006   2.625  18.970  11.014 -0.0093  0.1124 -0.2870
15538W        W31007   6.660   8.164  14.438 -0.0990  0.4535 -0.1949
15539W        W31008   9.463  13.356  10.447 -0.1516 -0.0528 -0.2205
15540W        W31009   8.661  11.909  12.073 -0.1363  0.0142 -0.3005
15541W        W31010   4.674  18.486   3.659 -0.0446 -0.2477  0.2705
15542W        W31011   5.813   9.780  12.652 -0.0522  0.2903  0.0824
15543W        W31012   7.393   9.985   3.617  0.1406  0.0084  0.0894
15544W        W31013  16.504  16.249  11.922  0.0325  0.1268  0.5292
15545W        W31014   4.010   2.631   3.802  0.1704  0.0181  0.5110
15546W        W31015  17.515  11.559  13.465 -0.0920  0.0526 -0.0251
15547W        W31016   3.352   2.539  12.828  0.2424 -0.0281 -0.2082
15548W        W31017   8.809  15.333  10.857  0.0596 -0.3172  0.5778
15549W        W31018  13.243   4.588  11.017  0.3275 -0.1145  0.2111
15550W        W31019   9.646  13.375  12.768 -0.1123  0.1254  0.1384
15551W        W31020  16.505   1.661   2.874 -0.0029  0.0263 -0.0159
15552W        W31021  17.229  14.858  15.112  0.2308 -0.1287  0.3096
15553W        W31022   8.316  12.946  11.645 -0.0980  0.3039  0.0458
15554W        W31023  15.665  17.548   3.879  0.0665 -0.2222  0.2089
15555W        W31024   1.405   4.889   4.583 -0.2863 -0.1456 -0.1139
15556W        W31025  11.641   5.719  13.500 -0.2609 -0.1727  0.1636
15557W        W31026  13.903  14.597  14.814  0.0969  0.3464  0.1683
15558W        W31027   0.573  16.402  11.072 -0.1455 -0.0898 -0.0514
15559W        W31028   6.509  14.943   1.536  0.0566 -0.0804  0.2999
15560W        W31029   4.694  17.224  14.962 -0.2542 -0.2884 -0.2477
15561W        W31030  16.889  16.942  13.245  0.1006 -0.0017  0.1232
15562W        W31031  14.624   9.473   5.207 -0.0509  0.0848  0.3500
15563W        W31032   0.938  13.998   4.455  0.0400  0.1207 -0.0479
15564W        W31033  10.334  12.081   0.120  0.2934 -0.0645  0.1081
15565W        W31034  11.778  11.468  11.082  0.4470 -0.0832  0.2183
15566W        W31035  16.517  11.285   4.280 -0.0461 -0.0253  0.0028
15567W        W31036  17.996   4.744  12.154 -0.0124 -0.0518 -0.0076
15568W        W31037  17.357   7.957   2.235 -0.2119  0.0043  0.1616
15569W        W31038  17.736   6.112   3.023  0.0775 -0.1461 -0.0765
15570W        W31039  17.646  13.761  10.858 -0.1953 -0.1596  0.4100
15571W        W31040   5.378  13.654  11.887  0.2458  0.1053  0.2369
15572W        W31041   4.606  12.660   4.656  0.1305 -0.2210 -0.1292
15573W        W31042  15.781  19.027   1.512  0.1095 -0.0834 -0.0458
15574W        W31043   3.052  16.577   0.648  0.1812  0.0905 -0.0113
15575W        W31044   8.215   6.521  10.579 -0.1816  0.0088  0.1671
15576W        W31045  14.228   1.504   1.749  0.0846 -0.1685 -0.0912
15577W        W31046   4.611   1.381   1.473 -0.2683 -0.0518 -0.0230
15578W        W31047   6.834   9.681   5.434  0.3396 -0.0321 -0.0978
15579W        W31048  17.838   2.574   4.220 -0.1886  0.0555  0.1266
15580W        W31049   1.961  13.283  13.142 -0.2448 -0.1834 -0.0360
15581W        W31050  13.493   4.517   0.072 -0.2039 -0.3080 -0.2576
15582W        W31051  13.926   0.756   2.754 -0.0066  0.0728 -0.2827
15583W        W31052   4.893   8.764  13.929 -0.4047  0.1906  0.0226
15584W        W31053  16.307   7.337  10.272  0.1707 -0.1428  0.4538
15585W        W31054   7.632   5.957   4.754 -0.0873 -0.2922 -0.3657
15586W        W31055   4.327   4.035   6.024 -0.0106  0.1470  0.2208
15587W        W31056  10.313  17.578  14.475 -0.2125  0.0917 -0.0672
15588W        W31057  18.941  11.717   4.825  0.1682 -0.3161  0.1881
15589W        W31058  18.103   5.436   2.611 -0.0899  0.2363 -0.0476
15590W        W31059   2.220  14.865   3.920  0.1348  0.1382 -0.0584
15591W        W31060  15.117  12.183   5.374 -0.0785  0.0352 -0.1418
15592W        W31061  12.832   0.337   2.141 -0.2206  0.1999 -0.1254
15593W        W31062  16.125  17.444   0.586 -0.3576 -0.1703 -0.0477
15594W        W31063   1.010  14.741  13.461  0.2041 -0.0137  0.2879
15595W        W31064  18.120  10.628  14.862 -0.1566 -0.1460 -0.4604
15596W        W31065   8.746  14.278  12.378 -0.0634  0.2083 -0.0060
15597W        W31066   6.732  17.727   4.181  0.0288  0.2342 -0.0120
15598W        W31067   0.400   2.545  14.988 -0.0753 -0.1132  0.3053
15599W        W31068  17.425   7.432  11.609 -0.2457 -0.0315 -0.2400
15600W        W31069   4.200   5.075   3.165 -0.0623  0.1545  0.0237
15601W        W31070   4.961  18.087   2.889 -0.0509 -0.1913 -0.0652
15602W        W31071   2.798   2.721   2.804 -0.1463  0.0772  0.1800
15603W        W31072  11.949   6.594  11.425  0.2774  0.0080  0.1893
15604W        W31073   4.334  16.724  11.087  0.1998  0.2944 -0.2225
15605W        W31074   1.158   9.123  14.442 -0.2258  0.1337  0.0014
15606W        W31075  13.550   8.479   0.367 -0.7032 -0.0444 -0.0814
15607W        W31076  16.050   1.577   3.321  0.3307 -0.1838 -0.3464
15608W        W31077   3.399   4.666   5.418  0.0742 -0.2633  0.0780
15609W        W31078   5.170  18.116  12.413 -0.1477 -0.6272 -0.0816
15610W        W31079   9.409   4.796   4.057  0.0433 -0.0886  0.1308
15611W        W31080   8.205   7.055   0.905  0.1770  0.1740  0.0297
15612W        W31081   9.695   2.013  15.041  0.0244  0.0176 -0.0509
15613W        W31082  16.698   4.876  13.606 -0.0477  0.2825  0.1608
15614W        W31083   0.013   7.916   0.673 -0.0421  0.5411  0.0838
15615W        W31084   0.665   6.305  12.738 -0.1670 -0.0883 -0.1281
15616W        W31085  13.038   7.754  12.591  0.0956  0.0880 -0.0711
15617W        W31086   0.330   2.155  13.103  0.2045 -0.1255  0.0169
15618W        W31087   7.322  15.397  13.744  0.0792 -0.2070 -0.0622
15619W        W31088  16.883  13.896   5.078  0.0403  0.0308  0.2131
15620W        W31089  13.192   7.264   2.277  0.0387  0.1899 -0.0139
15621W        W31090  12.578   6.509  13.930  0.2023 -0.3787 -0.3073
15622W        W31091  10.706   1.436  15.313  0.0829 -0.1296 -0.0471
15623W        W31092   8.696   8.591  10.592 -0.2474  0.1710  0.1813
15624W        W31093  13.700   5.001   3.499  0.1811 -0.2747 -0.1946
15625W        W31094   0.407   0.220   4.924 -0.1007  0.1495 -0.3923
15626W        W31095   3.985   9.987  10.855  0.2785 -0.1863 -0.0791
15627W        W31096  12.607  15.123   3.334 -0.0431  0.2354 -0.0159
15628W        W31097   2.679   2.916   5.101  0.1101 -0.1807  0.1857
15629W        W31098   5.577  17.590   2.890 -0.1774  0.0704 -0.4358
15630W        W31099  10.624   8.461  12.198 -0.0657 -0.1295  0.0317
15631W        W31100  15.720  14.183   0.676 -0.1723 -0.1893  0.0312
15632W        W31101   6.194  10.293  11.349  0.0313 -0.3236  0.0210
15633W        W31102   8.862   9.393  12.674 -0.1541  0.4621  0.1472
15634W        W31103  10.531  11.319  14.969  0.0036  0.1445 -0.0074
15635W        W31104   7.472   2.092   5.806 -0.3989 -0.2249 -0.0397
15636W        W31105   5.098  14.445   3.288 -0.2584  0.1381  0.4434
15637W        W31106  11.346   8.427  12.956 -0.1519 -0.1550 -0.0641
15638W        W31107  10.056   9.985   2.216  0.0793  0.0476 -0.1905
15639W        W31108   7.956   8.862   4.029  0.0969  0.0921 -0.0991
15640W        W31109  13.347   0.010  14.322  0.1771  0.0062  0.4178
15641W        W31110   0.955  18.468   0.762 -0.3087  0.0158  0.0046
15642W        W31111   2.282   4.199  11.436 -0.1307 -0.0950 -0.4856
15643W        W31112   3.322   9.485   1.704  0.3119 -0.1482 -0.1726
15644W        W31113   6.579  10.095   1.443 -0.2183 -0.0821 -0.0643
15645W        W31114   0.864  15.494  13.805 -0.0503 -0.0769 -0.0073
15646W        W31115  18.965  18.722   4.093 -0.0549 -0.0126  0.1330
15647W        W31116   5.064  15.230  11.122  0.2351  0.2230 -0.2861
15648W        W31117   5.860   0.363   4.835  0.2162  0.1833 -0.1525
15649W        W31118  12.291  15.708   0.052 -0.2263 -0.3843  0.1572
15650W        W31119  12.080   5.600   4.872  0.0425  0.1553  0.4293
15651W        W31120  15.928   7.892   0.101 -0.0398  0.0542  0.1797
15652W        W31121  17.866  17.815  11.934 -0.1793 -0.0559 -0.1680
15653W        W31122   6.295   2.865  11.768 -0.0788  0.1669 -0.4459
15654W        W31123   8.965  15.572  12.139 -0.0665  0.2471  0.1652
15655W        W31124  10.500  15.942   1.401 -0.1504  0.1236  0.0272
15656W        W31125  18.876   3.688   0.945 -0.0917 -0.3658 -0.0379
15657W        W31126   1.907   8.811   4.955 -0.3097 -0.0374 -0.3593
15658W        W31127   7.819  16.810  10.880  0.0287  0.0962 -0.0483
15659W        W31128   4.182   0.234  11.797 -0.1943 -0.0303 -0.1049
15660W        W31129   3.162   3.387  11.931 -0.0103 -0.0434 -0.2423
15661W        W31130  14.886   6.343   5.024 -0.1880 -0.1882 -0.2122
15662W        W31131   1.290   5.270   3.794  0.1403  0.0290 -0.1595
15663W        W31132   9.407   6.323  13.690 -0.1171  0.3036  0.0205
15664W        W31133  18.305  15.082  11.896  0.1592 -0.0603  0.2158
15665W        W31134   6.808  11.679  11.146  0.2017  0.1042  0.1087
15666W        W31135  13.263  15.085   4.963 -0.1260 -0.0660 -0.3155
15667W        W31136  18.247   9.933   3.387 -0.0516  0.2871  0.2695
15668W        W31137  17.113   1.003   4.194  0.0157 -0.0707  0.3184
15669W        W31138   1.821   7.136   4.666 -0.0713  0.4918  0.0380
15670W        W31139  16.716   3.471   9.972  0.2243 -0.2694 -0.0634
15671W        W31140  12.086  13.815  10.689 -0.0139  0.1308  0.0550
15672W        W31141  13.582  15.490  11.199  0.0114  0.0801  0.0620
15673W        W31142   4.930   7.742   1.045 -0.2633  0.0514 -0.2349
15674W        W31143  12.527   1.535   3.434  0.0119 -0.2368  0.2804
15675W        W31144  15.580   4.201   0.198 -0.1759 -0.1276 -0.1240
15676W        W31145   2.610   5.253  11.162 -0.0782 -0.0918 -0.1937
15677W        W31146   2.723  17.513  11.099  0.3163 -0.2082 -0.4387
15678W        W31147   8.348  11.654  11.010  0.6491  0.1472 -0.1956
15679W        W31148   8.929  12.933   5.970 -0.3185  0.0092 -0.1076
15680W        W31149  18.680   5.069   2.193  0.0454 -0.0616 -0.0182
15681W        W31150  16.587  17.576   0.538  0.0172 -0.2532 -0.0322
15682W        W31151   2.267  15.730   2.359 -0.2069  0.3101  0.1435
15683W        W31152  16.034   7.114  12.093 -0.0843  0.1537  0.3171
15684W        W31153   2.964  17.225  13.269 -0.1198 -0.2651  0.3123
15685W        W31154  16.703   4.354   3.416 -0.1341  0.1056 -0.0342
15686W        W31155  17.105   3.602   0.109 -0.0495  0.1600  0.0173
15687W        W31156  18.207   1.064   1.147  0.2450  0.2777 -0.4089
15688W        W31157  11.808   8.158   3.871  0.2071 -0.1805  0.1309
15689W        W31158   7.143  16.087   4.900  0.0534  0.1636 -0.1850
15690W        W31159  17.435  13.249   4.496  0.0231  0.3829 -0.2005
15691W        W31160   2.161   9.720   1.946 -0.1260  0.0311 -0.2306
15692W        W31161   9.573  15.485  14.620  0.0358 -0.2764 -0.2557
15693W        W31162  11.331   9.214  12.131 -0.0093  0.1348  0.1029
15694W        W31163   8.771  11.579   3.742  0.1375  0.0396  0.0260
15695W        W31164   8.427  18.982  12.358  0.1176 -0.0062 -0.0517
15696W        W31165   5.184   5.875   3.067 -0.1708  0.0181 -0.1006
15697W        W31166  11.106  15.796  12.853 -0.1987  0.2621 -0.1416
15698W        W31167   8.295   9.876   2.390  0.1620 -0.1063  0.1899
15699W        W31168   3.420  15.969   1.997 -0.1645  0.2921 -0.0526
15700W        W31169   4.144  13.582  11.980  0.0132  0.3148 -0.0140
15701W        W31170   4.889   4.378  12.357  0.2759 -0.0483  0.2226
15702W        W31171   4.741  12.913  15.057 -0.3114  0.1607 -0.0669
15703W        W31172   9.958  18.711  12.704  0.1664 -0.0667  0.2619
15704W        W31173  13.538   8.204  13.984  0.0216 -0.0112 -0.1195
15705W        W31174  18.383  18.751   5.463 -0.0407  0.0621  0.0879
15706W        W31175  13.423  15.132  13.548 -0.1898  0.0132  0.2193
15707W        W31176   9.170   2.551   0.458 -0.0529  0.0663 -0.1694
15708W        W31177  15.657   4.630  11.558 -0.3056  0.1501 -0.1911
15709W        W31178  14.102   1.528  12.943  0.3366  0.1580 -0.0728
15710W        W31179   9.644   0.594   2.701 -0.0284 -0.1051 -0.0737
15711W        W31180   1.573  18.992  14.551 -0.2765 -0.0148  0.1173
15712W        W31181   2.025  12.348  13.615 -0.0438 -0.1561  0.1210
15713W        W31182  18.499  15.018  10.202  0.1524 -0.1441  0.2268
15714W        W31183   1.142   6.365   3.923  0.1700 -0.1610 -0.2981
15715W        W31184   6.159   8.128   5.405  0.2121 -0.1155  0.0068
15716W        W31185  15.983   3.635   1.398  0.0401  0.0188 -0.3429
15717W        W31186   9.846   6.549   2.225  0.0613 -0.3157 -0.0525
15718W        W31187   9.515   1.724   3.435 -0.0000  0.1234  0.0179
15719W        W31188   1.006   8.372   0.063 -0.1778 -0.0037  0.1572
15720W        W31189   3.281  17.480   1.260  0.0858  0.0143 -0.2201
15721W        W31190  16.219   8.582  11.839 -0.2696 -0.0775 -0.1945
15722W        W31191  10.256  14.770   0.829 -0.1162  0.1518 -0.1841
15723W        W31192   6.533  16.463   0.874 -0.0585  0.3001 -0.2289
15724W        W31193   3.889   0.133   3.880 -0.1541  0.5068 -0.0886
15725W        W31194   9.134   2.292  10.801 -0.1325  0.0192  0.1086
15726W        W31195   7.563  16.640  13.113  0.3217  0.0130 -0.1625
15727W        W31196   1.443   3.465   3.468  0.1496  0.0355 -0.1248
15728W        W31197   3.718   1.624  13.468  0.0253  0.1706 -0.0298
15729W        W31198  14.884  17.347  12.732 -0.2064 -0.2095  0.1124
15730W        W31199  10.406   6.636   4.730  0.0446 -0.1673 -0.1250
15731W        W31200  16.072  13.957   0.937 -0.4036 -0.0252  0.1796
15732W        W31201   4.062  13.334  13.106 -0.2637  0.0174 -0.2389
15733W        W31202  13.197   3.772   4.190 -0.3334  0.0756  0.2044
15734W        W31203   0.093  13.154  12.819 -0.3035 -0.2259  0.0952
15735W        W31204   0.732   2.508  13.195  0.0992  0.0556  0.1088
15736W        W31205   6.060  18.314  11.376 -0.1985 -0.0147  0.1071
15737W        W31206  13.920  12.668  14.657 -0.2013 -0.2270  0.0841
15738W        W31207   6.765   8.308   0.276  0.2759  0.0575  0.3329
15739W        W31208  14.554  12.101   0.279 -0.2486 -0.0014 -0.1333
15740W        W31209   9.505  16.741  12.090  0.2052  0.0802 -0.4069
15741W        W31210   8.070   1.503  11.541 -0.2128 -0.2292  0.1935
15742W        W31211   3.098  17.232   3.286 -0.1815  0.0356 -0.2397
15743W        W31212   2.574   4.800  14.149  0.1035  0.0352  0.6054
15744W        W31213   4.276   7.974  12.054 -0.1001  0.0161 -0.0800
15745W        W31214   9.441  10.516   0.892  0.3640  0.4506  0.3056
15746W        W31215  16.579   8.586  12.945  0.1442  0.0062 -0.1380
15747W        W31216   7.966  11.431  10.736 -0.3627  0.1496 -0.2199
15748W        W31217  11.559  17.211  14.304  0.1645  0.0521  0.1225
15749W        W31218   4.594  16.758   2.471  0.0678 -0.1323 -0.0112
15750W        W31219  13.614   5.048   1.278 -0.0666 -0.0681 -0.0682
15751W        W31220  15.557  15.053  12.956  0.2209  0.0532 -0.0650
15752W        W31221   7.323  12.106  14.444 -0.3272 -0.3009 -0.2920
15753W        W31222  16.788   9.297   4.502 -0.2216 -0.1742  0.0231
15754W        W31223  11.751   2.813  12.616  0.0637 -0.0911 -0.2884
15755W        W31224  10.797  15.564  14.452 -0.0127  0.1337 -0.2075
15756W        W31225   6.899  12.477   4.169 -0.0948 -0.0083 -0.1622
15757W        W31226  12.695  14.178  11.179 -0.0044 -0.1586  0.0052
15758W        W31227   9.410  17.820   1.093 -0.2675  0.5203  0.1649
15759W        W31228   5.192  11.392  10.338  0.0220 -0.2991  0.0842
15760W        W31229   6.364   8.413   9.747 -0.2325  0.2279  0.2927
15761W        W31230   4.036  13.700   0.586  0.1613  0.4072 -0.1208
15762W        W31231   1.062   9.586  15.183  0.1582  0.0230  0.3123
15763W        W31232   4.467  12.634  10.622 -0.3912 -0.2290  0.5574
15764W        W31233  14.525   5.839   1.608 -0.0047  0.0750 -0.0806
15765W        W31234  12.799  16.088   1.581 -0.0368  0.2461  0.2943
15766W        W31235  16.621   2.764   4.263 -0.2888 -0.0527  0.1296
15767W        W31236   8.962  10.503  15.204  0.3254 -0.2062 -0.1816
15768W        W31237  15.755   3.506   2.255 -0.1544 -0.2258 -0.1180
15769W        W31238   5.917  10.731  11.524  0.2800  0.1527  0.0498
15770W        W31239   1.334   8.562  12.617  0.2036 -0.1353 -0.1269
15771W        W31240   7.900   6.240   2.331 -0.1340  0.1219 -0.1748
15772W        W31241  16.450   6.561   3.499 -0.0825 -0.3238 -0.0376
15773W        W31242   6.879  10.635   4.498  0.0618  0.1019  0.1611
15774W        W31243  16.147   9.446   3.376  0.1564 -0.1956 -0.0550
15775W        W31244  18.067  13.230   3.376  0.1076  0.4722  0.0464
15776W        W31245   6.409  17.712  12.599  0.4574  0.0477 -0.0598
15777W        W31246  17.005   5.683  14.608  0.1239 -0.1083  0.1102
15778W        W31247   7.756  16.146  13.265  0.0731 -0.1317  0.0263
15779W        W31248  18.828   2.259  12.444  0.1474 -0.1108 -0.1054
15780W        W31249   3.432  12.407   3.129 -0.1222  0.0625  0.0812
15781W        W31250   8.711   3.505  11.487  0.1043  0.0702 -0.1531
15782W        W31251  14.639  10.431   5.677  0.1000 -0.3491 -0.0610
15783W        W31252  10.884  13.798   1.584  0.2730 -0.0932 -0.3117
15784W        W31253   7.969  17.285   2.965 -0.1704 -0.0535 -0.3434
15785W        W31254  10.592  13.971   2.485 -0.3171  0.1394 -0.1538
15786W        W31255   3.773   3.183   1.361 -0.0751  0.1042 -0.1153
15787W        W31256   9.822   1.929  11.232 -0.1946  0.2062 -0.1023
15788W        W31257   2.880  17.251   4.455  0.1350  0.0588 -0.2104
15789W        W31258   9.963   3.269   4.592 -0.0851  0.0093  0.1521
15790W        W31259   2.866  16.272  12.492  0.1979  0.2782 -0.1838
15791W        W31260  11.881   7.757   4.177 -0.0583 -0.1350  0.1019
15792W        W31261  16.943  10.385   5.647  0.0672  0.0720  0.2469
15793W        W31262  15.600   5.290  10.491  0.1667 -0.2071 -0.0623
15794W        W31263   6.942   4.025   5.144  0.0148 -0.0915  0.3517
15795W        W31264   5.399   5.050   1.837 -0.2385 -0.2543  0.1000
15796W        W31265   4.942   3.936  15.271 -0.0828  0.1994  0.5488
15797W        W31266   0.172  12.550   3.185 -0.0079 -0.0474 -0.0191
15798W        W31267   7.328  19.028   1.808  0.0650  0.2972 -0.2628
15799W        W31268   6.891   9.645   1.107 -0.1983  0.3590  0.0210
15800W        W31269  10.661   4.855   0.247  0.5407 -0.1101  0.2460
15801W        W31270  14.732  12.729   1.712  0.2086  0.0580 -0.0746
15802W        W31271   1.023  17.963   2.049 -0.1663  0.3508  0.1093
15803W        W31272  12.984  13.989  15.190 -0.0876 -0.0115  0.1492
15804W        W31273  12.618  16.388   0.197  0.2395 -0.0074 -0.2242
15805W        W31274   5.216  12.916   1.443 -0.1246 -0.1418  0.1535
15806W        W31275   9.561   1.821   4.717  0.1023  0.2156  0.1127
15807W        W31276  18.670  13.716  10.213  0.0107  0.1054  0.0551
15808W        W31277  16.048   2.034   5.052 -0.0179 -0.0583  0.0623
15809W        W31278   7.043   6.959  13.189 -0.1163 -0.0105  0.0059
15810W        W31279  17.724   9.805  13.203  0.1836  0.0575  0.2577
15811W        W31280  13.748   1.997  10.444 -0.2283  0.2806  0.1917
15812W        W31281   1.150  16.704   2.123  0.1604 -0.0642  0.0605
15813W        W31282  17.787  16.276  14.663  0.2577  0.0563  0.0891
15814W        W31283   5.326  14.018  12.216 -0.0208  0.3292 -0.2876
15815W        W31284   4.217  10.226   0.706  0.3702 -0.0524 -0.0285
15816W        W31285   6.077   8.181  13.097  0.2805 -0.0127 -0.0866
15817W        W31286   8.752   2.194  15.271  0.0603  0.1693 -0.0814
15818W        W31287   3.457  15.318   5.738 -0.2489 -0.4638 -0.1606
15819W        W31288   8.717   9.714   5.636 -0.1026  0.0985 -0.1187
15820W        W31289  16.462   8.032   0.486  0.1640  0.0420 -0.1549
15821W        W31290   0.350  17.785   1.261 -0.0599 -0.0576  0.2770
15822W        W31291   0.809   2.642  12.236 -0.3979  0.0529  0.1583
15823W        W31292   2.309  13.857  12.832 -0.2988  0.2741 -0.1205
15824W        W31293  10.252  18.064  13.449  0.2308 -0.0408 -0.4485
15825W        W31294  10.596  16.087   4.757  0.0164  0.0606  0.0214
15826W        W31295   5.554   1.044  13.107  0.0468 -0.1863 -0.2013
15827W        W31296   6.258  14.684   0.573  0.2382  0.0640  0.2249
15828W        W31297  10.212   8.700   0.001  0.0333  0.0429  0.0572
15829W        W31298  11.226   9.841  15.156  0.1792  0.0840  0.0942
15830W        W31299   7.946   1.725   5.444 -0.4093 -0.0029 -0.0146
15831W        W31300  18.484  13.896   2.262  0.0439 -0.1562 -0.1050
15832W        W31301   9.067  16.405   0.424  0.1400  0.0918  0.4183
15833W        W31302   4.772  10.881  13.160  0.0351  0.1945 -0.2353
15834W        W31303  13.386   6.293  15.290  0.1342  0.2260 -0.0875
15835W        W31304  18.298   3.770   3.277  0.0103 -0.2197 -0.1468
15836W        W31305  18.102  12.304   0.457 -0.0432 -0.2339 -0.1145
15837W        W31306   7.589   5.691   2.887 -0.0885 -0.2879  0.1449
15838W        W31307  12.199   3.250  14.529  0.1875  0.4725  0.0028
15839W        W31308   6.905  15.652   3.570  0.2725 -0.1305  0.0464
15840W        W31309   9.639  14.878  13.851 -0.0250 -0.2443 -0.2020
15841W        W31310  11.769  16.776   0.784 -0.3345  0.1566 -0.3370
15842W        W31311   9.766   5.454   0.177 -0.0173 -0.0808  0.1935
15843W        W31312   1.063   2.293   4.451  0.0005 -0.1383 -0.3278
15844W        W31313  17.906   0.724  14.021  0.0197 -0.1781 -0.1671
15845W        W31314  15.111  11.232   1.585  0.2095  0.0194  0.0553
15846W        W31315   1.165  16.043   4.603 -0.1171 -0.3102  0.2054
15847W        W31316   3.460   5.501  11.454  0.0895 -0.2101  0.1956
15848W        W31317  13.656  15.095  14.928 -0.0294 -0.4486 -0.0556
15849W        W31318   3.125  15.622  10.913  0.2086 -0.1280  0.0555
15850W        W31319  12.407  13.014   2.792 -0.3138 -0.3634 -0.3241
15851W        W31320   9.972   2.951   4.106 -0.1640 -0.4139 -0.1103
15852W        W31321  18.851   5.700  13.183 -0.5196  0.1675  0.0627
15853W        W31322  18.451  12.766   5.266 -0.0181  0.0783  0.2172
15854W        W31323  18.275   4.143  14.722 -0.2643 -0.0100  0.1289
15855W        W31324  15.695   7.437  12.880 -0.3256  0.1844  0.0018
15856W        W31325   4.102  16.372   0.879 -0.3503  0.1883 -0.1402
15857W        W31326   8.879  10.458   3.310  0.0671  0.1029 -0.0872
15858W        W31327   2.067   6.011   2.392 -0.4559 -0.0890 -0.1919
15859W        W31328   2.564   1.022  12.828  0.4089  0.0894 -0.0935
15860W        W31329  12.134  11.717   0.124  0.2548  0.0479 -0.0080
15861W        W31330  16.158   2.749   0.750 -0.1042 -0.1189 -0.1623
15862W        W31331   1.574   4.082  11.120 -0.1885 -0.0204  0.0360
15863W        W31332   5.190  11.434   4.160  0.0413 -0.1124 -0.2688
15864W        W31333   1.181   6.015  12.302 -0.0257 -0.1022  0.2504
15865W        W31334   9.741  14.054   3.022 -0.0716  0.1082 -0.1005
15866W        W31335   2.986   1.937   0.287  0.0345  0.0926 -0.0936
15867W        W31336  15.339   5.751  13.645 -0.0940 -0.1044  0.2580
15868W        W31337   7.633  13.242   9.559  0.0180  0.0083 -0.5233
15869W        W31338  13.072   4.456   0.236  0.0405  0.2012 -0.0856
15870W        W31339  15.110  16.354   1.287 -0.2102  0.0400 -0.0749
15871W        W31340  18.853   8.301   2.811  0.0851 -0.1304  0.0059
15872W        W31341   8.508   8.626   3.313  0.0740  0.0312 -0.0984
15873W        W31342   4.858   1.192  10.136 -0.2800  0.0320  0.2732
15874W        W31343   5.671   6.190  14.957  0.2158 -0.4144  0.1782
15875W        W31344   6.875  17.126  11.437 -0.3758 -0.3643 -0.1684
15876W        W31345  15.046   7.497  13.583  0.1170 -0.0972  0.0059
15877W        W31346  18.123  10.044  10.113  0.1720 -0.0840 -0.0440
15878W        W31347  16.302   5.333  12.884  0.0672 -0.0154  0.0461
15879W        W31348   2.554   6.413   3.098 -0.0122 -0.0171 -0.0084
15880W        W31349  13.295   6.971  11.523 -0.1260  0.0093  0.4807
15881W        W31350  17.189  13.458  15.104  0.0636  0.1747 -0.0238
15882W        W31351  18.591   0.849   4.353 -0.4432  0.1322  0.0490
15883W        W31352  12.990   2.352  15.157 -0.0356  0.1001 -0.4122
15884W        W31353  18.011  13.067   4.784  0.2635  0.0802  0.2168
15885W        W31354   2.021   3.869  11.177 -0.0698  0.2696  0.1605
15886W        W31355   4.256   3.954   3.930  0.0671  0.1297 -0.3167
15887W        W31356   5.413   8.628   1.775 -0.0632  0.2134  0.0770
15888W        W31357   5.828  11.485  13.944 -0.0380  0.1866 -0.1264
15889W        W31358  10.586   3.789   0.857  0.0883 -0.2012  0.0690
15890W        W31359   6.090   1.200   0.167  0.3133 -0.1566 -0.1390
15891W        W31360   6.462  12.447   1.348  0.0809 -0.1312 -0.1721
15892W        W31361   6.609   4.129   2.246 -0.0195  0.2945 -0.0842
15893W        W31362  18.172  16.250  14.279 -0.2343 -0.0183 -0.2511
15894W        W31363   0.041   6.233   2.950  0.2658  0.1392 -0.0682
15895W        W31364  12.688  12.550   5.082  0.0580  0.0981  0.0790
15896W        W31365  15.492   2.540   2.585  0.3110  0.1596  0.2152
15897W        W31366  17.361   8.851   2.075  0.1000 -0.1865  0.1120
15898W        W31367   9.848   9.352   9.149  0.2962  0.0188 -0.0590
15899W        W31368  14.244  17.036   0.402  0.0264 -0.0073  0.1126
15900W        W31369   3.559  16.096   4.030  0.0948  0.1033 -0.0264
15901W        W31370   1.980   5.946   1.877 -0.2659  0.1005  0.1839
15902W        W31371  14.802  10.207  15.124 -0.0949 -0.1622  0.0629
15903W        W31372   7.243   7.199  10.567 -0.1706  0.4043  0.1452
15904W        W31373  18.135  10.532  11.906  0.1439 -0.0405  0.0929
15905W        W31374  15.623  10.715   0.135 -0.1050 -0.0114  0.3602
15906W        W31375  13.401   4.864  11.841  0.0546  0.1117 -0.1446
15907W        W31376  18.787  13.946   1.308 -0.1127  0.1889 -0.0166
15908W        W31377  14.390   2.096  12.240 -0.1913  0.2460 -0.2394
15909W        W31378  16.144   8.236   5.724 -0.1540 -0.0271 -0.4202
15910W        W31379  14.532   8.680  10.397 -0.3137 -0.1181  0.0287
15911W        W31380   0.753  10.535  15.296 -0.0133 -0.0836  0.2252
15912W        W31381  16.728   8.559   2.086 -0.3860 -0.1176  0.4149
15913W        W31382   2.449   5.195   3.478  0.3142 -0.1366 -0.0319
15914W        W31383   5.366   4.921  10.898  0.0698  0.4822 -0.0201
15915W        W31384  13.328  15.035   2.741  0.3293  0.0325  0.0096
15916W        W31385   9.079  14.888   3.099  0.0474 -0.0239 -0.0747
15917W        W31386   2.664  17.600  14.705 -0.2449  0.0137  0.2588
15918W        W31387   1.502  16.621  12.563  0.0485 -0.0362 -0.1155
15919W        W31388   9.434  18.854  12.379 -0.2866  0.0942 -0.1765
15920W        W31389   5.143  12.636   0.915  0.2193  0.0353 -0.0097
15921W        W31390   2.584  17.947  11.433  0.2143 -0.2277 -0.2039
15922W        W31391   1.095   6.180  11.769 -0.0448 -0.1839 -0.0495
15923W        W31392   0.415  15.475   1.047 -0.3492 -0.1788  0.0814
15924W        W31393  15.206   1.862   1.473  0.0878  0.0069  0.0795
15925W        W31394   8.605   0.024   4.772 -0.1536 -0.4727 -0.2493
15926W        W31395  17.511   5.575  14.697  0.0480  0.1013 -0.1973
15927W        W31396   3.271   4.709  12.311  0.0590 -0.0749 -0.2085
15928W        W31397   3.171   0.465  11.907 -0.0021 -0.1874 -0.2067
15929W        W31398  12.108  17.912  10.603 -0.0820 -0.1901  0.2600
15930W        W31399   3.491   3.725   4.418 -0.0313  0.0306 -0.2578
15931W        W31400  17.457   6.383  14.167  0.0986 -0.2730  0.1582
15932W        W31401  18.697   0.943   2.829 -0.0412  0.2363  0.2764
15933W        W31402  15.755   0.811  14.717  0.1987  0.0705 -0.0894
15934W        W31403  11.608   2.630   0.948 -0.1024  0.3075  0.3055
15935W        W31404   9.754   2.056  13.748  0.2343 -0.0594  0.0677
15936W        W31405  16.454  11.260   1.415  0.1959 -0.3472 -0.0389
15937W        W31406  13.521  18.757  10.174 -0.3112  0.1593  0.1368
15938W        W31407   1.133   8.236   1.985  0.0666  0.3587  0.0998
15939W        W31408  15.538   5.600   3.618  0.2276 -0.3402  0.2404
15940W        W31409   3.451  10.113   0.560 -0.1601  0.1009 -0.1507
15941W        W31410  16.578  12.280   0.364 -0.1946 -0.1837  0.1779
15942W        W31411  11.784  11.237   1.113  0.1430  0.1102 -0.1000
15943W        W31412  12.712  14.154   3.558 -0.1100 -0.0236 -0.1855
15944W        W31413  15.231   9.387  14.440  0.2055 -0.1407  0.0876
15945W        W31414  10.894  17.831  11.528  0.1127 -0.0634  0.1628
15946W        W31415   5.450  16.191  11.758 -0.1635 -0.0061 -0.2119
15947W        W31416  12.784  15.928   0.259  0.1282 -0.1574  0.1917
15948W        W31417  11.459  11.894  11.176 -0.0783  0.1845 -0.0092
15949W        W31418   5.702  13.970   0.765 -0.1962 -0.0821  0.1916
15950W        W31419   1.879  10.601   4.332  0.0214 -0.3087 -0.1694
15951W        W31420  16.916   7.320   3.002 -0.2800  0.2756 -0.2670
15952W        W31421   5.721  13.697  10.548  0.0919 -0.1299 -0.0904
15953W        W31422   3.159   7.715   1.922  0.3152 -0.1130 -0.2936
15954W        W31423   0.242   6.527  12.677 -0.2865  0.4267  0.0386
15955W        W31424   7.011  18.027  10.114  0.0082  0.1466 -0.0361
15956W        W31425   6.905  15.043   1.829 -0.2065  0.2305 -0.0217
15957W        W31426  12.987   7.409  15.320 -0.1295  0.2939  0.2264
15958W        W31427  10.840  11.404  13.668  0.1032  0.2954  0.2844
15959W        W31428  15.510  17.754  11.567 -0.0908  0.0968 -0.0432
15960W        W31429  16.912   6.920  12.169  0.1877 -0.1510  0.2274
15961W        W31430  12.889   8.135   4.731 -0.2208 -0.1205  0.1211
15962W        W31431  14.128  17.339   1.013 -0.1870  0.3063 -0.2242
15963W        W31432  11.568  12.108  14.634  0.2230  0.0617  0.3050
15964W        W31433   6.597   6.234  13.067  0.0530  0.0836 -0.1837
15965W        W31434  13.168  10.351   0.508  0.2184 -0.0409  0.2892
15966W        W31435   1.575  16.680   2.531  0.0570 -0.1455 -0.1281
15967W        W31436  11.833  13.951   0.356 -0.2514  0.0007  0.0427
15968W        W31437  12.773   9.867   3.447 -0.3032  0.0849 -0.1061
15969W        W31438  13.094   0.207   3.049  0.1062 -0.1582 -0.1571
15970W        W31439  13.919  16.343  10.913 -0.0564  0.2278 -0.1743
15971W        W31440  11.705   3.730  12.524  0.1033  0.0059  0.0709
15972W        W31441  15.607   5.286  12.268 -0.3154  0.0272  0.0265
15973W        W31442   4.346   6.763  12.959 -0.2359 -0.0775  0.1904
15974W        W31443  12.991  16.489   1.205 -0.1049  0.4561  0.4597
15975W        W31444   7.019  12.291  11.640  0.0808 -0.3771 -0.0755
15976W        W31445   2.032   2.261   1.625  0.0074 -0.1938  0.1152
15977W        W31446  10.713  12.214   2.642  0.1154  0.0325  0.2517
15978W        W31447   4.484   3.520   3.958  0.1267  0.1263 -0.0275
15979W        W31448  15.076   7.323  13.128 -0.0418 -0.3032 -0.0442
15980W        W31449   9.795   0.117  11.171  0.2321 -0.2904 -0.0602
15981W        W31450   1.624   0.053   1.373  0.2089  0.1989 -0.1785
15982W        W31451   8.399   7.884  15.241  0.0885  0.0417 -0.0705
15983W        W31452  10.702   5.899  14.136 -0.0628 -0.2002  0.0077
15984W        W31453  10.306  12.592   3.393  0.0399 -0.3531  0.0822
15985W        W31454  19.030  17.177   2.015 -0.0740 -0.1009 -0.3912
15986W        W31455   7.159   0.955  11.958 -0.2494  0.1841 -0.2452
15987W        W31456   0.752   9.077  12.449  0.0528 -0.0432  0.2501
15988W        W31457   7.933  16.319   4.184 -0.2176  0.1925  0.0647
15989W        W31458   8.687   2.104  13.070  0.0432 -0.1497  0.1626
15990W        W31459  16.534  15.821   2.959  0.0690  0.2013  0.0255
15991W        W31460   5.496  12.032  12.683  0.1464 -0.0017  0.0494
15992W        W31461   5.167   2.630  12.614  0.1483  0.2664  0.3294
15993W        W31462   9.738   1.338  10.777  0.0590 -0.3460 -0.0552
15994W        W31463   0.775   7.333  11.226  0.0972 -0.1384  0.2101
15995W        W31464   9.269   0.396  14.435 -0.3189 -0.1165  0.0059
15996W        W31465  10.376  18.377   2.205 -0.1444 -0.1625 -0.0490
15997W        W31466   8.656   6.608   2.003 -0.0985  0.1218 -0.1217
15998W        W31467   4.425  17.585  14.781  0.0754  0.0951 -0.2203
15999W        W31468  14.188  11.506   1.647 -0.2439 -0.1113 -0.1043
16000W        W31469  18.468   6.448  13.625  0.1288  0.0606  0.0087
16001W        W31470   5.064  15.842   5.089 -0.3040 -0.0878  0.1690
16002W        W31471  18.242  11.125   1.962  0.4067  0.2868 -0.0737
16003W        W31472   8.751  18.207   1.846 -0.2485  0.2261  0.1618
16004W        W31473   7.635  15.729   2.543 -0.1095  0.1054 -0.0814
16005W        W31474  10.409   7.050   4.413 -0.2040  0.1901 -0.0093
16006W        W31475  16.993   1.649  12.252  0.2226 -0.0118 -0.3109
16007W        W31476   6.124  13.727  14.019  0.1675  0.2885  0.5099
16008W        W31477  11.862   3.659   4.474  0.1174  0.1458  0.0212
16009W        W31478  12.380  10.484   0.623  0.1896  0.0454  0.2072
16010W        W31479   2.677  10.439   0.916 -0.1645  0.2752 -0.0875
16011W        W31480   2.739   7.697  14.722  0.2433  0.1805 -0.1633
16012W        W31481   5.424  17.568  10.623  0.0038 -0.2073 -0.0712
16013W        W31482   2.734  11.612   2.425  0.2097  0.1549  0.3126
16014W        W31483   9.108   0.361   1.880  0.0647 -0.2212  0.2489
16015W        W31484   1.057   9.758   0.548  0.0717 -0.3780 -0.2422
16016W        W31485  10.262  13.898   3.649 -0.1221 -0.1728 -0.1852
16017W        W31486   7.822  16.052  11.491 -0.0230  0.1228 -0.0025
16018W        W31487   1.814   9.453   0.061  0.0834  0.0703  0.1765
16019W        W31488   0.182   3.166  10.924 -0.0991 -0.0942 -0.1058
16020W        W31489   9.182  12.136   2.387 -0.1125  0.0438 -0.0919
16021W        W31490  12.272   1.285  14.201  0.0256 -0.0854  0.0265
16022W        W31491   2.286   3.221   1.175 -0.1894  0.3242 -0.2893
16023W        W31492  17.983  11.115   0.855  0.1770 -0.0888  0.0988
16024W        W31493   1.320  13.129   2.378  0.0070 -0.3355 -0.2921
16025W        W31494  12.496   3.844  14.029 -0.0988  0.0238 -0.3199
16026W        W31495   9.406  16.790   2.796  0.0377 -0.0904  0.0550
16027W        W31496  16.603  18.298  10.431 -0.1758 -0.2858 -0.4188
16028W        W31497   1.965  17.614   4.762 -0.0344  0.2122  0.1966
16029W        W31498  14.351   5.399  12.107 -0.1371  0.1180 -0.1655
16030W        W31499   7.086  10.401   3.544  0.1505 -0.2289 -0.1813
16031W        W31500  13.614   9.950   1.943  0.0140  0.0062  0.1232
16032W        W31501   7.223  14.900   0.469  0.2284 -0.1679 -0.1179
16033W        W31502   9.692   8.228  11.796 -0.0921 -0.1364 -0.3996
16034W        W31503   8.410  11.281   1.691 -0.0069  0.0431  0.0350
16035W        W31504   7.911  18.721   1.920  0.0583 -0.0459  0.1794
16036W        W31505   8.921   6.019  13.807  0.0172 -0.0519  0.2164
16037W        W31506  17.603  14.268  12.961 -0.0092 -0.0143 -0.3770
16038W        W31507  15.742  11.118   0.526 -0.1779  0.1366  0.0868
16039W        W31508  14.486  13.539   0.178 -0.1077 -0.0589  0.2001
16040W        W31509  14.446  17.809   5.817 -0.1514  0.0312 -0.2375
16041W        W31510   5.803  12.838   3.853  0.0605  0.1643 -0.3460
16042W        W31511   3.465  10.637   3.724 -0.0305  0.2078 -0.4270
16043W        W31512  17.921  10.125   9.644  0.1444  0.2911  0.4356
16044W        W31513  17.200  17.341   3.529 -0.2507  0.4091  0.2771
16045W        W31514   8.008   5.823   0.720  0.0975 -0.0207 -0.0405
16046W        W31515   9.199   4.051   2.992 -0.1974  0.1175  0.1447
16047W        W31516   2.894   8.926  14.109  0.0032  0.0968 -0.3384
16048W        W31517  10.735  12.550  12.495 -0.1503  0.0541  0.0178
16049W        W31518  12.383   1.804   3.875  0.2638 -0.1030  0.2328
16050W        W31519  11.551  13.349  14.908  0.0896  0.0577 -0.2207
16051W        W31520   0.041  13.995  10.714 -0.1216 -0.1351 -0.0998
16052W        W31521   0.763  14.435   0.465  0.3036 -0.1258  0.0887
16053W        W31522  11.434  15.506  11.128 -0.0813 -0.1071 -0.0028
16054W        W31523   7.943   2.707   3.096  0.1909 -0.0550  0.1940
16055W        W31524  18.423   5.455  10.520  0.1250  0.3457 -0.3438
16056W        W31525   4.593   4.511   5.202 -0.0916 -0.0988  0.1211
16057W        W31526  12.602  13.833  10.485 -0.1751  0.0702  0.0285
16058W        W31527  18.474   4.351  13.503  0.1622 -0.0149 -0.1380
16059W        W31528  13.020   4.067  15.300 -0.0277 -0.0220  0.2897
16060W        W31529  13.290   7.615   0.314  0.2626  0.1744 -0.2318
16061W        W31530   0.970   9.425   1.492 -0.2308  0.1701 -0.0190
16062W        W31531  13.337   3.346   1.522  0.1537  0.0112 -0.0578
16063W        W31532   6.230   2.995   1.431  0.1219  0.1354  0.0731
16064W        W31533   4.969  18.161   1.683  0.1164 -0.2036 -0.2728
16065W        W31534   0.584   9.543   1.778  0.0587 -0.1481  0.1045
16066W        W31535   8.411  11.780  13.145  0.0324  0.0256 -0.0235
16067W        W31536   0.419  11.041  14.412  0.1264  0.3202 -0.2018
16068W        W31537  16.728  13.910  11.663 -0.0204 -0.1213 -0.0005
16069W        W31538  11.691  10.587  10.642  0.1330 -0.0758 -0.1861
16070W        W31539  12.478   9.928  11.452 -0.0333 -0.2066  0.0059
16071W        W31540   9.139  14.181  12.862  0.0611  0.0230  0.2828
16072W        W31541   2.738  16.530   1.057  0.2746 -0.0283  0.1871
16073W        W31542  18.820  13.646  11.369 -0.1140 -0.0847 -0.3366
16074W        W31543  15.903   5.169  10.990  0.0125  0.1240 -0.0125
16075W        W31544  13.356   7.916   4.406  0.1950 -0.0316 -0.0663
16076W        W31545   1.093  12.109  13.995 -0.2795 -0.0476 -0.0654
16077W        W31546  18.003  14.966  15.192  0.1873  0.0176 -0.1163
16078W        W31547  16.182  17.460  12.374 -0.2607 -0.2064  0.1208
16079W        W31548  12.191  15.853   4.567  0.0239 -0.2753  0.2205
16080W        W31549   6.348   5.589   3.229 -0.1702 -0.0737 -0.0919
16081W        W31550  17.574  13.518  11.554 -0.0015  0.3541 -0.2930
16082W        W31551   5.856  17.171   3.862 -0.1744  0.1005  0.1148
16083W        W31552  15.972  16.520   0.552  0.1910  0.1859 -0.1153
16084W        W31553  15.121   6.696  15.077 -0.0712  0.0075 -0.1764
16085W        W31554   2.546  14.658   4.826 -0.1768  0.1508 -0.1627
16086W        W31555   1.918  15.743  10.641 -0.1394 -0.1130 -0.0733
16087W        W31556   2.533  16.319   0.194  0.2665 -0.0634 -0.0801
16088W        W31557   2.270   3.284   0.069  0.1365  0.5332 -0.0266
16089W        W31558   0.907   4.146  11.338  0.2218  0.0192  0.0844
16090W        W31559   5.163   7.164  11.694  0.2156 -0.0808 -0.0033
16091W        W31560  10.069   0.149  13.347  0.1182 -0.0242 -0.1406
16092W        W31561  17.999  17.782   0.979  0.1357 -0.0089  0.0755
16093W        W31562  12.285  14.361  10.410  0.0942 -0.3056 -0.4501
16094W        W31563  11.924   5.689   2.055 -0.1544 -0.0713  0.0464
16095W        W31564  17.219   4.404   3.382 -0.0296  0.0859  0.1644
16096W        W31565   0.232   2.147   4.778 -0.2194 -0.0257  0.0095
16097W        W31566  13.555   8.658   1.919 -0.2089 -0.0531  0.0187
16098W        W31567  17.693   8.487  11.978  0.1031 -0.0664 -0.2454
16099W        W31568  16.019   0.810   1.371  0.1477  0.0569 -0.3156
16100W        W31569   7.211   4.034   2.957  0.2546  0.1815  0.4872
16101W        W31570  13.210   7.130   1.508  0.2941 -0.2741  0.2885
16102W        W31571   9.996   9.822   2.717  0.1617  0.2176 -0.2904
16103W        W31572   6.556  17.564  14.009 -0.0779 -0.0978  0.4066
16104W        W31573  16.174   9.424  14.501  0.2140  0.3156 -0.1564
16105W        W31574  10.070   6.086   9.764 -0.1379  0.1128  0.3454
16106W        W31575   8.104  14.247   2.636  0.0232  0.2514  0.1261
16107W        W31576   8.902  11.344   1.801  0.2198 -0.0314  0.0052
16108W        W31577   0.859   3.555  12.194 -0.0588  0.1234  0.1406
16109W        W31578   3.188   9.259   4.923 -0.0797  0.0583 -0.0649
16110W        W31579  18.716  18.204   3.020  0.2158 -0.0333 -0.0615
16111W        W31580  14.518   4.170  10.518  0.0129  0.1768 -0.0076
16112W        W31581   6.522  12.674  14.192 -0.1110 -0.1512 -0.0037
16113W        W31582   4.858   8.898   5.028 -0.2762  0.0164 -0.1218
16114W        W31583   2.578   3.587   4.538 -0.2805  0.1638 -0.0801
16115W        W31584  18.151   7.971   0.061 -0.0078  0.1211  0.3805
16116W        W31585  15.873  16.203   3.529  0.2297 -0.0559 -0.1457
16117W        W31586  10.078   8.218   0.133 -0.1623  0.0090 -0.5319
16118W        W31587   3.350   9.884  14.664  0.0146  0.1272 -0.2608
16119W        W31588   2.700   4.720   3.329 -0.0621  0.1352  0.2281
16120W        W31589  18.560   4.140   4.188  0.1414 -0.1712  0.0092
16121W        W31590   9.292  12.593   1.338  0.2840  0.0924 -0.2377
16122W        W31591   9.931   9.744  11.792 -0.0408  0.0089  0.0672
16123W        W31592  16.985  18.114   3.230 -0.1721 -0.4184  0.1658
16124W        W31593   7.352   4.571  14.327 -0.0060 -0.0400  0.0596
16125W        W31594   2.189  12.654   1.273  0.0443 -0.1951 -0.0578
16126W        W31595  11.851  12.329  10.424 -0.0684  0.0570  0.2619
16127W        W31596   2.589  10.517   3.242  0.3444 -0.4019 -0.0608
16128W        W31597  16.266  12.732  10.399  0.1131  0.0115 -0.1023
16129W        W31598   0.213   4.536   1.986  0.2141  0.0113  0.1650
16130W        W31599   9.826   1.728   4.303  0.1606  0.0052  0.0767
16131W        W31600  10.147   9.471  14.118 -0.1435  0.1513 -0.1474
16132W        W31601   1.444   0.222   5.001  0.4501  0.3461  0.1614
16133W        W31602  12.057   2.589   5.374  0.1211 -0.2737  0.2790
16134W        W31603  17.372   7.475   5.377 -0.0158  0.0200 -0.0165
16135W        W31604   7.607  16.642   1.521 -0.0400  0.1861  0.3570
16136W        W31605   0.930  11.597  13.867  0.1521  0.0194  0.0671
16137W        W31606   1.608   9.214  12.249 -0.2388 -0.1169 -0.0579
16138W        W31607  16.876   4.229   5.069 -0.1127 -0.1578 -0.0472
16139W        W31608   5.111  17.812   4.213 -0.0581 -0.4243 -0.0760
16140W        W31609  14.847  14.798   2.330 -0.4640  0.1255 -0.1540
16141W        W31610  14.501   1.406   0.230  0.1709 -0.1388  0.2613
16142W        W31611   9.534   1.802  11.700 -0.1062 -0.1816 -0.0560
16143W        W31612   4.134  16.796  13.689 -0.0415 -0.0439 -0.3881
16144W        W31613   1.164  11.623   4.227 -0.1713 -0.1155  0.4061
16145W        W31614   5.419   6.257  11.441  0.1169  0.0611  0.0746
16146W        W31615  18.990   2.390   3.077 -0.1756  0.1043  0.2002
16147W        W31616   7.768   7.952  11.701  0.1139 -0.1113  0.1114
16148W        W31617  11.534   0.577   3.478  0.4362  0.0780  0.1669
16149W        W31618   1.623   5.036   1.830 -0.2374 -0.1868  0.1163
16150W        W31619  17.102   7.252   5.759 -0.0612  0.0023 -0.2122
16151W        W31620   5.225   0.357  13.297 -0.2474  0.2466 -0.0454
16152W        W31621  17.377   5.287   3.453  0.0933 -0.2010  0.0034
16153W        W31622  12.793  15.769   4.712 -0.2950  0.3396 -0.4702
16154W        W31623   8.664   3.113  14.814 -0.1884 -0.2084  0.1934
16155W        W31624  16.395   7.944   2.595 -0.1032  0.0856 -0.1063
16156W        W31625   6.845   9.140   3.300  0.0688 -0.2521  0.2724
16157W        W31626   1.641  14.710   0.356 -0.0775  0.0585 -0.1476
16158W        W31627   8.130  12.739  12.223 -0.1692 -0.0943 -0.0831
16159W        W31628   0.144   8.396   5.535 -0.0509 -0.2170 -0.3241
16160W        W31629   1.367   8.180   5.412 -0.0804  0.3032  0.0367
16161W        W31630  12.506   1.658  13.873  0.1468 -0.2273  0.3432
16162W        W31631  17.989  18.028   4.841 -0.1833 -0.3670 -0.0459
16163W        W31632   9.556   4.650  15.202 -0.1338 -0.0584 -0.1998
16164W        W31633  10.827  18.722   0.295 -0.0616  0.0913  0.0270
16165W        W31634  13.577   0.355   2.262 -0.0253  0.2376 -0.1830
16166W        W31635   1.897  13.584   5.010 -0.2178 -0.0830 -0.2142
16167W        W31636   4.916   8.294  14.065 -0.0045  0.1811 -0.1874
16168W        W31637  12.178   7.428  13.859 -0.1668  0.3310 -0.0355
16169W        W31638   3.610   8.636  12.494 -0.2478  0.1072  0.0527
16170W        W31639   1.584  11.756  11.447 -0.0764  0.1492 -0.1768
16171W        W31640  11.931  17.871   1.541  0.0810 -0.3143 -0.0451
16172W        W31641  11.337  14.386  14.642 -0.4319 -0.0033 -0.4514
16173W        W31642  16.664  18.323   0.723  0.3685  0.3566 -0.0405
16174W        W31643   8.064  11.616  12.809  0.2345 -0.0964  0.1739
16175W        W31644   9.114  11.130   1.197 -0.2540  0.0036  0.1334
16176W        W31645   0.848  13.457  10.236 -0.1402 -0.3089 -0.3129
16177W        W31646   5.074   7.685  15.321  0.1239  0.0727 -0.0075
16178W        W31647   8.855  13.438   0.044  0.0406 -0.0096 -0.0613
16179W        W31648   6.796   9.306  11.465 -0.1257 -0.0214  0.0805
16180W        W31649  10.500  13.405   1.623 -0.6093  0.0953 -0.0801
16181W        W31650  18.875  17.698  13.383  0.1300 -0.0587 -0.1543
16182W        W31651   4.807   2.973   3.127 -0.0892 -0.3403 -0.0860
16183W        W31652  13.376   3.498  10.834 -0.2036  0.1144  0.3449
16184W        W31653  10.680  12.652  11.986 -0.0365  0.0572 -0.1961
16185W        W31654  14.088  17.618  11.200  0.0812 -0.2736 -0.1855
16186W        W31655  13.604  14.901  14.368 -0.2201  0.0811  0.1653
16187W        W31656  14.830  13.797  14.331 -0.0436  0.1060 -0.1937
16188W        W31657   4.790   1.754   2.629  0.1515 -0.3482 -0.1570
16189W        W31658  12.086  18.622  11.899  0.2140 -0.0709  0.0305
16190W        W31659   5.437  10.260  12.654 -0.1506 -0.0042  0.0665
16191W        W31660   5.938   1.967  13.416 -0.1363 -0.1664 -0.1858
16192W        W31661  13.507  16.894   3.666 -0.1862 -0.1233 -0.0838
16193W        W31662   8.279   7.063   4.556 -0.2488  0.1715  0.0438
16194W        W31663  11.436  13.637   2.311  0.2099 -0.0087  0.0391
16195W        W31664   8.004   7.095  11.625  0.0315 -0.1168 -0.4172
16196W        W31665   8.711   7.045   1.687 -0.1451  0.2068 -0.1858
16197W        W31666   2.696   1.759  13.696 -0.0068  0.1467 -0.0131
16198W        W31667   5.379   2.794   0.401 -0.0808  0.1611  0.1634
16199W        W31668   3.682  17.836   1.576 -0.1355  0.1057 -0.0342
16200W        W31669   5.272   9.076   0.410 -0.2515  0.0260 -0.0029
16201W        W31670  18.210   5.840  13.918 -0.1130  0.2016  0.0800
16202W        W31671  13.847  17.758  12.556 -0.0494 -0.2483 -0.1862
16203W        W31672  16.330   2.826  14.796  0.1080  0.0957 -0.1484
16204W        W31673   6.362  11.595  11.357  0.3506 -0.4068  0.2190
16205W        W31674   7.460  17.098   1.340  0.0906 -0.1395 -0.0754
16206W        W31675   5.370  18.346   3.411  0.2144 -0.1748  0.3717
16207W        W31676   0.434  10.365  11.978 -0.2808 -0.1620  0.1060
16208W        W31677  15.846   5.592  10.749 -0.2138  0.2350 -0.1097
16209W        W31678   5.260  13.100   4.534  0.4751  0.1449 -0.2422
16210W        W31679   1.761   8.690   4.034 -0.0531  0.0342 -0.0099
16211W        W31680  18.209   6.182  14.239 -0.0285  0.2531  0.0348
16212W        W31681   2.935  18.754  14.921  0.4025  0.4964 -0.2185
16213W        W31682   0.581   6.170  14.217 -0.2129  0.1153 -0.0828
16214W        W31683   2.964   6.627   5.064  0.1332  0.2040 -0.0231
16215W        W31684  13.196  17.386   1.487 -0.0471  0.0263  0.1053
16216W        W31685  17.084  11.286   2.956  0.1358  0.0893  0.1122
16217W        W31686   1.059   3.065   1.471 -0.2538  0.1412  0.1483
16218W        W31687   2.359  13.033   1.700 -0.0990  0.0414  0.2515
16219W        W31688   8.066   1.672   1.242 -0.1358  0.1593 -0.2660
16220W        W31689  15.287  14.237   0.963 -0.1492 -0.0915  0.1008
16221W        W31690  11.227  15.459   1.549 -0.0192 -0.4032  0.1708
16222W        W31691  11.028  15.803   9.877 -0.1389 -0.3428  0.2962
16223W        W31692  19.036   8.240   4.668 -0.0714 -0.2297 -0.2237
16224W        W31693  13.269  12.759   2.057  0.1011  0.0503  0.0071
16225W        W31694  17.831  18.662   3.553 -0.0631 -0.1144  0.1885
16226W        W31695  18.448  18.107   5.064  0.1273  0.2309  0.1966
16227W        W31696  10.117   9.024  12.106 -0.2195 -0.0352  0.0025
16228W        W31697   6.881   8.705   1.503  0.2237 -0.2559  0.4135
16229W        W31698   2.674  13.958   4.236 -0.2535 -0.3762  0.0197
16230W        W31699   1.920   6.192  12.860 -0.3453  0.2168 -0.0479
16231W        W31700   0.793   1.310   2.503 -0.2433 -0.0650  0.1367
16232W        W31701  18.197  16.427   0.576  0.1365 -0.0570 -0.1680
16233W        W31702  17.602  17.427   3.109  0.2639 -0.2733  0.1934
16234W        W31703  16.969   4.002   3.037  0.1706  0.0185 -0.0844
16235W        W31704   6.176  11.408   0.505  0.0512 -0.0526 -0.0128
16236W        W31705  14.798  18.316  10.933  0.0576  0.2733 -0.0236
16237W        W31706  12.289   0.489   2.908  0.1360  0.1661 -0.0966
16238W        W31707   8.060   0.156  12.787  0.1293  0.4687 -0.2418
16239W        W31708   0.012  12.628   1.721  0.2929 -0.2098 -0.2713
16240W        W31709   2.539   2.240  12.042 -0.1460 -0.1179 -0.1512
16241W        W31710  15.225   5.543   0.459 -0.2733  0.0217  0.2144
16242W        W31711   6.245   3.232  14.521  0.3029 -0.1073 -0.4158
16243W        W31712   5.758  15.906  12.274  0.1150 -0.1183  0.3358
16244W        W31713   8.123  16.025  11.051 -0.2472 -0.3321 -0.0656
16245W        W31714  18.818   6.309   1.548  0.2401  0.1246  0.0262
16246W        W31715  18.282   9.321  14.518  0.2672  0.0229  0.2540
16247W        W31716   2.610  11.947   3.625  0.0324  0.1791  0.0488
16248W        W31717  15.025  17.411   0.821  0.1738 -0.4952  0.1044
16249W        W31718  14.299   5.221   0.228 -0.1048  0.0160  0.1042
16250W        W31719  11.438   7.680   4.878  0.2802 -0.2912 -0.1023
16251W        W31720   6.472  12.139   4.002 -0.1950  0.3476  0.1891
16252W        W31721   3.998  11.213   1.637 -0.0458  0.2120  0.1242
16253W        W31722   8.196   8.056   4.989  0.1384  0.0826 -0.0757
16254W        W31723   2.551  18.302   1.222 -0.0983 -0.0926 -0.3537
16255W        W31724  14.100   8.624   2.595  0.0886 -0.0131  0.1450
16256W        W31725   8.748  18.781   5.212  0.0720  0.2105  0.1300
16257W        W31726   4.144   5.145  11.960  0.1048 -0.1337  0.2207
16258W        W31727   8.473  11.367  15.144 -0.0946 -0.0277  0.0548
16259W        W31728   5.423   8.103   2.624  0.1055  0.2685  0.2155
16260W        W31729   7.240   4.659   5.115  0.0032 -0.0988  0.3006
16261W        W31730  14.678   5.797  11.607  0.2589 -0.1481  0.2256
16262W        W31731   2.946  12.391  13.403  0.1390  0.1833  0.0527
16263W        W31732   5.419   1.992  12.040  0.1052  0.1046  0.2103
16264W        W31733  17.245  11.193   0.400 -0.0038 -0.0470  0.1744
16265W        W31734  17.182  11.353   3.464  0.0137  0.0649 -0.0649
16266W        W31735   8.690   1.524  10.748 -0.1422  0.4272 -0.3758
16267W        W31736   8.625   7.526   0.137 -0.1211 -0.0837  0.1614
16268W        W31737   5.079   6.972  10.225 -0.0544 -0.4461  0.1294
16269W        W31738  17.904   3.213   1.613 -0.0032  0.4273 -0.1995
16270W        W31739   3.660   0.428  11.707 -0.1535 -0.0156  0.1522
16271W        W31740   1.229  12.057  13.402 -0.1172  0.1217  0.1978
16272W        W31741  13.322  14.431   3.570 -0.2199  0.1154  0.0341
16273W        W31742   0.726   0.259   4.426 -0.1065 -0.0890  0.0054
16274W        W31743  12.314  16.478   2.724 -0.2924  0.1901 -0.1651
16275W        W31744  10.746   8.996  14.378 -0.0903  0.1589  0.1253
16276W        W31745  15.818  12.441  14.167  0.0563 -0.2023 -0.2288
16277W        W31746  18.094   8.843   3.787  0.0084  0.2796 -0.0996
16278W        W31747  17.860  16.665  13.243 -0.1500  0.4482  0.2152
16279W        W31748  10.101  16.214  11.846 -0.0352  0.1244 -0.3068
16280W        W31749   1.770   2.974   5.622  0.0667 -0.1705  0.0315
16281W        W31750  18.619   8.316   0.132  0.1097  0.1878  0.2987
16282W        W31751   4.095   3.386   4.335 -0.0225 -0.0170  0.0368
16283W        W31752   3.962  16.332  10.893 -0.1993 -0.0514  0.1651
16284W        W31753  19.007   9.208   4.798 -0.2151 -0.0645  0.1681
16285W        W31754   0.711  10.913   3.214  0.2582 -0.0165 -0.1020
16286W        W31755   2.491   2.475   1.867 -0.1711 -0.2618  0.2264
16287W        W31756  13.071  11.616  14.096 -0.3223  0.3568  0.0825
16288W        W31757  17.788   1.875   4.822  0.0812  0.1815 -0.0169
16289W        W31758   9.851   6.845   1.752 -0.2737 -0.2351  0.0751
16290W        W31759   9.144   4.359  13.303  0.2486  0.0907 -0.0220
16291W        W31760   5.447   8.410   3.031  0.0748  0.1116 -0.3865
16292W        W31761  14.667  12.472   5.039  0.1138  0.0315  0.4644
16293W        W31762  18.436  18.493   2.600 -0.0610 -0.3024 -0.2360
16294W        W31763   5.413   8.459  15.078  0.2467  0.0743 -0.1974
16295W        W31764  13.891   4.718  12.917  0.0849  0.2252 -0.2676
16296W        W31765  10.706   1.264   2.142  0.1780  0.0554 -0.1200
16297W        W31766  18.381  17.475   3.552 -0.0910 -0.3642  0.0007
16298W        W31767  10.423  10.038   1.166 -0.1121 -0.2838  0.0294
16299W        W31768  11.463  14.311  12.035 -0.3509  0.1179  0.3052
16300W        W31769   5.893  14.460   4.553  0.0551  0.0661  0.1758
16301W        W31770  13.990   3.644   2.978 -0.3989  0.2681 -0.2740
16302W        W31771  10.114  16.044  12.734 -0.0765 -0.2058 -0.0231
16303W        W31772   9.270   4.893  13.154  0.0137  0.0650 -0.1109
16304W        W31773  12.262   0.500   1.391  0.0013 -0.0600 -0.0883
16305W        W31774   1.875  13.779   2.671 -0.1173  0.2825  0.0565
16306W        W31775   3.347   8.016  14.250  0.0008  0.2127  0.1129
16307W        W31776   8.737  11.401   4.577 -0.0058 -0.3667 -0.1567
16308W        W31777   0.300  11.485  14.625  0.0209 -0.1119  0.1768
16309W        W31778  10.989   6.527  12.648  0.0509 -0.1753 -0.2720
16310W        W31779   2.519   2.923  15.069  0.1618 -0.2504  0.0957
16311W        W31780   9.006   7.458   3.707  0.0669 -0.3280 -0.0181
16312W        W31781   1.879   8.523   1.894 -0.1056  0.2652 -0.1669
16313W        W31782   5.443   0.136  11.142 -0.3058  0.1320  0.0142
16314W        W31783  15.395   0.765   4.158  0.0158 -0.2400  0.1429
16315W        W31784   7.453  11.739   4.404  0.0624 -0.1105  0.0061
16316W        W31785   0.311   2.744   2.185  0.1829 -0.0488 -0.0066
16317W        W31786   5.693  13.575   3.142 -0.0624  0.1693 -0.0228
16318W        W31787   0.843   5.786  11.938 -0.0294 -0.1306 -0.0422
16319W        W31788   3.146   7.989  13.007  0.0287  0.3155  0.2888
16320W        W31789  19.004  13.333   3.491  0.1067 -0.1124 -0.1731
16321W        W31790   2.790   6.648  12.960  0.2260 -0.1510 -0.3349
16322W        W31791   8.707   9.464   0.497  0.1596  0.3433  0.1486
16323W        W31792   5.267   3.434   9.841  0.2715 -0.0744  0.1234
16324W        W31793   5.299   1.724  10.993 -0.1892  0.0622 -0.0565
16325W        W31794  11.709   0.498   2.983  0.3137  0.0124 -0.2449
16326W        W31795   4.715  16.889  13.062 -0.0885  0.1325 -0.0230
16327W        W31796  11.793   5.515  12.091 -0.3127 -0.0123 -0.2791
16328W        W31797   2.534   6.321   1.048  0.2136  0.2789 -0.0238
16329W        W31798  13.699  10.232   1.027 -0.0868  0.0777  0.0580
16330W        W31799  15.027   6.890   4.477 -0.0457 -0.3327  0.1893
16331W        W31800   1.260   3.623   4.340 -0.2770  0.0561 -0.0145
16332W        W31801  17.822   1.254   0.929  0.1680  0.0507 -0.2320
16333W        W31802  17.909   1.487  11.463  0.2369  0.0246 -0.1045
16334W        W31803   4.433   8.803  14.194  0.4492  0.0347  0.2009
16335W        W31804  15.880   8.188  12.105 -0.0254  0.1141  0.1074
16336W        W31805  14.026  10.877  14.828  0.0621  0.2245  0.0826
16337W        W31806   9.814   5.957  12.064  0.0950 -0.0349 -0.0132
16338W        W31807  16.859   0.938  10.578  0.0890  0.0362  0.0501
16339W        W31808   7.120  16.865   2.671  0.0030 -0.0287  0.2306
16340W        W31809   6.179   6.215  14.856 -0.0230  0.4656 -0.1300
16341W        W31810   5.495   7.647  11.823  0.0940  0.2079 -0.1986
16342W        W31811  11.826  12.941  12.275 -0.3345  0.3506 -0.0298
16343W        W31812  11.153   9.479  13.880  0.2480 -0.2528 -0.0610
16344W        W31813  14.439   5.436  15.102  0.0901 -0.1148  0.0778
16345W        W31814   3.236  15.501  11.463  0.0256  0.1790 -0.1922
16346W        W31815  13.181   7.759   0.778  0.0032  0.1010  0.1934
16347W        W31816   9.075   3.752   1.926 -0.0141  0.0331 -0.2688
16348W        W31817   5.270   9.634  12.687 -0.1313  0.0495 -0.2376
16349W        W31818   5.830  14.580   5.871 -0.0924  0.0545  0.1473
16350W        W31819  11.412  18.498   0.854  0.1327  0.2695 -0.2271
16351W        W31820  14.322  12.127  14.023  0.0834  0.0533  0.0550
16352W        W31821  14.595   0.384  14.717  0.4633 -0.1505  0.3638
16353W        W31822   3.376   1.132  12.383  0.0733 -0.0876  0.1255
16354W        W31823   4.988   1.405   4.721 -0.1490  0.0918  0.1511
16355W        W31824   9.930   7.218  12.548 -0.0907 -0.3046 -0.0520
16356W        W31825   5.521   7.736  10.842 -0.0493  0.5176  0.2716
16357W        W31826   6.296   2.448   2.386  0.2375  0.2351 -0.0796
16358W        W31827  18.850   0.959  12.909  0.1475  0.4795  0.0650
16359W        W31828   7.338  18.095   3.151 -0.0868 -0.0673  0.0892
16360W        W31829  16.364   0.056  10.320 -0.1056  0.2287 -0.0409
16361W        W31830  15.019  17.957   4.078 -0.1064 -0.1527 -0.2311
16362W        W31831  16.564  13.080  14.368  0.0152  0.1263 -0.0797
16363W        W31832  10.856  14.216  14.105 -0.2605 -0.1421  0.3456
16364W        W31833   8.548   4.428   3.478 -0.0709  0.2399 -0.2755
16365W        W31834  12.493   2.925  11.953 -0.5631  0.1011  0.2935
16366W        W31835  13.605   4.826   4.341  0.0350 -0.1516 -0.2700
16367W        W31836  14.227   8.506   4.284  0.1061  0.0597 -0.0224
16368W        W31837  10.881  17.124  10.072  0.1783 -0.1310  0.0267
16369W        W31838  17.919   6.281   4.077 -0.3077 -0.0833 -0.0692
16370W        W31839  13.845  11.346   2.377 -0.0657 -0.0156 -0.2552
16371W        W31840   6.122  17.384   3.502  0.4015  0.0005 -0.0058
16372W        W31841   8.005  17.779   5.388 -0.1319 -0.0948  0.0136
16373W        W31842  17.953  15.374   0.719  0.0523  0.0621  0.2414
16374W        W31843   7.181   7.941  14.517 -0.0476  0.0497  0.0543
16375W        W31844  13.266  13.486  14.910  0.1567  0.0625  0.0998
16376W        W31845   9.143  15.160  12.429  0.2285  0.2000  0.0741
16377W        W31846  13.741  11.800  10.825 -0.2190  0.1424  0.1764
16378W        W31847  10.382  15.009  13.591  0.3208 -0.1969 -0.3236
16379W        W31848  13.065  12.384  12.390  0.0898  0.4173  0.3977
16380W        W31849   1.554  13.838   3.617  0.2795 -0.0863  0.1988
16381W        W31850  17.127   3.981   0.425  0.1487  0.1724 -0.2536
16382W        W31851   6.486  18.147   0.872 -0.3421 -0.1236  0.1537
16383W        W31852   6.383   1.695  12.743 -0.1198 -0.2125 -0.2565
16384W        W31853   8.963  15.027   3.908  0.0987 -0.0418 -0.0913
16385W        W31854   2.885   7.086  11.119 -0.0138  0.1981 -0.0361
16386W        W31855  17.035  12.615  13.083 -0.0816 -0.0989 -0.0559
16387W        W31856  10.772   7.538  15.095 -0.0214 -0.3621 -0.1061
16388W        W31857   1.726   0.240   0.259 -0.0814 -0.0014 -0.0477
16389W        W31858   3.148   5.293   2.404 -0.0046  0.2021  0.0159
16390W        W31859   6.955   4.135  13.268 -0.1228 -0.0709 -0.1489
16391W        W31860  13.593  14.277  15.074 -0.2757 -0.1746 -0.0810
16392W        W31861   7.031   1.637  13.987 -0.1794 -0.0885  0.1240
16393W        W31862  10.952  17.337   3.731  0.0693 -0.3628 -0.2223
16394W        W31863   1.847   5.227  11.560 -0.5204  0.3127 -0.2273
16395W        W31864   6.007  15.475  13.731  0.2599 -0.2190  0.6131
16396W        W31865  11.346   8.262   4.035  0.0197 -0.1899 -0.2552
16397W        W31866   4.460  11.576   2.425 -0.1390  0.2645 -0.2488
16398W        W31867   5.248  17.780   3.238 -0.2599 -0.0529 -0.2699
16399W        W31868   0.829   6.826  14.634 -0.0893  0.0640  0.0058
16400W        W31869  10.585   7.976  12.538 -0.1504  0.3724  0.2848
16401W        W31870   4.177  15.193  10.937  0.1621 -0.0085 -0.0126
16402W        W31871   5.350   6.553   4.118  0.2507  0.0384 -0.0068
16403W        W31872  10.780  18.352   5.061  0.2091 -0.0531 -0.0554
16404W        W31873  11.348  13.037  10.748  0.0251  0.2423 -0.0444
16405W        W31874   6.805  16.162   5.339 -0.1747  0.4592  0.0887
16406W        W31875  12.324   7.914   2.956 -0.0953  0.1951 -0.0399
16407W        W31876  16.679   6.652   1.182  0.2470 -0.1932  0.0155
16408W        W31877  15.970  18.800   2.325  0.2753  0.1792 -0.2230
16409W        W31878   6.241   7.636  10.570  0.0619  0.5145  0.0902
16410W        W31879   3.335  11.053   3.463  0.1115  0.1971  0.3968
16411W        W31880  15.903  13.866  15.134 -0.3062 -0.2498 -0.1734
16412W        W31881   9.829  18.714   0.155 -0.2379  0.0526 -0.3846
16413W        W31882   0.594  11.878  14.826 -0.3999  0.1086 -0.0566
16414W        W31883  15.533   9.243  11.769  0.0458  0.2801  0.3770
16415W        W31884  18.548   3.544   1.809  0.3090  0.2020  0.2148
16416W        W31885  14.756   1.466   0.669 -0.0525  0.2970 -0.0879
16417W        W31886   2.429   3.848   1.321  0.0003  0.1991  0.2659
16418W        W31887  12.337  11.751   5.648 -0.1465 -0.0011 -0.3159
16419W        W31888   3.737   5.898  13.729  0.0004  0.2206 -0.0829
16420W        W31889  12.852   1.064   2.589  0.2104 -0.1056 -0.0768
16421W        W31890   3.739   9.236  11.717  0.0177 -0.0917 -0.0775
16422W        W31891  15.756  16.920   0.902  0.0984 -0.0205 -0.3609
16423W        W31892  11.151  15.973   0.275 -0.1548 -0.2840 -0.0877
16424W        W31893  15.342   0.667   0.695 -0.0728 -0.0094  0.1527
16425W        W31894  10.331  17.711   2.687  0.2015  0.0243  0.3325
16426W        W31895  12.821  13.602   0.626  0.0391  0.0879  0.1386
16427W        W31896  11.749   1.023   5.002  0.1504  0.2046  0.1868
16428W        W31897   6.430   4.644   2.906  0.0840  0.0550  0.1345
16429W        W31898  13.262  12.666  10.553 -0.0292  0.1574 -0.0136
16430W        W31899  12.900   5.268  13.122 -0.2139 -0.1678  0.1979
16431W        W31900   6.228   3.947  13.427 -0.0764  0.0631  0.0010
16432W        W31901   8.474   9.065   1.182 -0.1412 -0.1735 -0.0942
16433W        W31902  14.354   1.993   1.974  0.2123 -0.3553  0.4436
16434W        W31903  15.560   3.457   1.191  0.1792  0.0515 -0.1079
16435W        W31904  18.577   5.498  14.957  0.3553 -0.1458  0.2458
16436W        W31905  18.675  18.095   2.511  0.0938  0.1588  0.0074
16437W        W31906   6.182  15.585  13.130 -0.1663  0.0659  0.2250
16438W        W31907   3.479  10.774  13.471  0.1525  0.1174 -0.1476
16439W        W31908  16.958  10.015   5.288  0.2430  0.1968  0.0894
16440W        W31909   2.020  18.925   1.993 -0.0897 -0.2159  0.1966
16441W        W31910   9.398   3.996  12.987 -0.2218 -0.0047 -0.0364
16442W        W31911   0.998  13.250  12.707 -0.0368  0.0457 -0.0256
16443W        W31912   8.651   6.043   1.610  0.1102 -0.0760  0.0942
16444W        W31913  14.766  17.505   4.097  0.2219  0.3387  0.2863
16445W        W31914  12.739   2.216   1.589  0.4049 -0.1529  0.1462
16446W        W31915  16.722   9.486   2.234  0.0641 -0.3635 -0.2216
16447W        W31916   1.695   1.048   4.949 -0.0344  0.1325 -0.0717
16448W        W31917  17.308   6.555   5.130 -0.1987 -0.0226 -0.0581
16449W        W31918   9.943  11.976  10.515  0.1911  0.3018 -0.0766
16450W        W31919   0.797  19.029   0.883 -0.0045  0.2099 -0.0908
16451W        W31920   9.627  11.394   1.326 -0.4330  0.2471  0.0623
16452W        W31921  12.624  17.258   1.345  0.1229  0.2178  0.1688
16453W        W31922   2.211   7.011  12.613 -0.1032  0.1988  0.1527
16454W        W31923  17.192   5.640   3.792  0.0644 -0.2886 -0.0157
16455W        W31924  14.782  11.479   2.444 -0.2677 -0.3257  0.0487
16456W        W31925   4.019  10.831   0.758  0.0622 -0.2893  0.1976
16457W        W31926   8.573  18.795  10.787  0.0390 -0.0901 -0.1252
16458W        W31927  13.855  10.643   9.882  0.1044  0.2640 -0.4837
16459W        W31928   4.995  17.879  11.991  0.2549 -0.1176  0.1066
16460W        W31929   9.082  10.614   1.267 -0.0584  0.4378  0.3895
16461W        W31930  18.223   9.081  12.418  0.0324 -0.2119  0.1165
16462W        W31931  10.462   0.575   0.379  0.2711 -0.0583  0.1597
16463W        W31932  14.047   5.641  12.445  0.0621 -0.2060  0.0023
16464W        W31933   8.643   2.755  11.508 -0.1951  0.0601  0.2989
16465W        W31934   4.410  13.252   2.647 -0.1535  0.0458  0.2935
16466W        W31935   2.814  14.178   1.489  0.2642 -0.0277  0.3807
16467W        W31936   4.813  15.716   1.933 -0.1836  0.0268 -0.0593
16468W        W31937   7.274  11.440   4.058  0.2966  0.1489  0.2237
16469W        W31938   9.674  18.788  13.406  0.2524 -0.3832 -0.0289
16470W        W31939   1.222   0.811  10.959  0.2049 -0.0130 -0.3529
16471W        W31940  15.345  18.729   0.864 -0.0834 -0.1205 -0.4303
16472W        W31941   5.995   4.921  12.551  0.0685  0.0865  0.0238
16473W        W31942   4.761  12.760  11.921  0.1589 -0.1974  0.3038
16474W        W31943   3.494   0.557   2.621  0.0007 -0.0477 -0.0178
16475W        W31944   2.225  16.757   1.750 -0.1001 -0.1149 -0.1805
16476W        W31945   4.784   4.529   0.184  0.0062  0.0211 -0.1448
16477W        W31946  17.067   8.982  13.545 -0.2874  0.0135 -0.0566
16478W        W31947  16.393  11.516   1.019 -0.1354 -0.1279 -0.2238
16479W        W31948   8.586   1.838  13.598  0.0051 -0.2304  0.1768
16480W        W31949   8.974   7.726  12.983 -0.1983 -0.2649 -0.1584
16481W        W31950  11.399  13.517  10.992  0.2177 -0.2115  0.1177
16482W        W31951   4.645   0.226  12.582  0.0286 -0.1028  0.0308
16483W        W31952   6.103   1.567  11.604  0.0115  0.0281  0.1221
16484W        W31953   1.160  15.811  10.347  0.1592 -0.0359  0.1260
16485W        W31954   0.006   9.170   3.757  0.2240 -0.1594 -0.1509
16486W        W31955   9.124  15.587   0.919  0.0722 -0.1863 -0.1824
16487W        W31956  16.107   8.059  11.611 -0.1173  0.2246 -0.0140
16488W        W31957  14.359  16.655  14.491 -0.2165 -0.2222  0.0572
16489W        W31958  14.027  12.414   9.149  0.4466 -0.2337  0.1048
16490W        W31959   8.596   3.892  14.353  0.0804  0.3453  0.0885
16491W        W31960   5.027   8.787   3.592 -0.0086  0.0173  0.1102
16492W        W31961  16.886  16.903   4.122 -0.0033 -0.0329 -0.0724
16493W        W31962  12.128  18.162  12.017  0.1299  0.1302 -0.1171
16494W        W31963   6.048  16.801  14.451  0.0341 -0.0451  0.0390
16495W        W31964   7.765   8.328  10.964  0.0133  0.1080  0.1204
16496W        W31965   3.580  18.141   4.128  0.0390 -0.0119 -0.0010
16497W        W31966  11.334  14.702  10.734 -0.2644 -0.1116 -0.3032
16498W        W31967  10.924  15.078  13.522  0.0618  0.3072  0.1406
16499W        W31968  14.127  14.046  13.877 -0.3512  0.1216 -0.2003
16500W        W31969  13.428   4.501   1.518 -0.2963 -0.0426 -0.4449
16501W        W31970   0.802  10.235   2.482  0.0981 -0.3403 -0.1083
16502W        W31971   8.999  14.541   3.947 -0.0218 -0.0405 -0.1222
16503W        W31972  15.602  12.672   9.802 -0.1888 -0.1858  0.2377
16504W        W31973  18.936   2.259   2.217  0.1775 -0.0446 -0.0781
16505W        W31974  15.849   5.175  13.144  0.4086 -0.1139  0.1889
16506W        W31975   3.322  16.841  13.256 -0.0924 -0.0148  0.0302
16507W        W31976  16.641  15.626   4.339 -0.1154 -0.0425  0.0291
16508W        W31977   8.698   6.480  13.720  0.1830  0.0291 -0.2115
16509W        W31978   6.109   3.501   3.322  0.0925 -0.4292 -0.1652
16510W        W31979  16.066  14.158   3.028 -0.1111  0.1409  0.0860
16511W        W31980   6.656  17.407  13.423 -0.1575 -0.5480  0.1953
16512W        W31981  13.830   1.987   9.821 -0.1168  0.1885  0.1890
16513W        W31982   9.697   3.752  14.736  0.2270 -0.0111 -0.1264
16514W        W31983  11.161   7.126   1.644  0.2257  0.0021 -0.2014
16515W        W31984   5.462  13.403  13.462 -0.2008  0.1600  0.1115
16516W        W31985   0.612  17.349   3.178 -0.1721 -0.0822 -0.1844
16517W        W31986   8.721   0.696  10.086  0.0308 -0.0592 -0.0655
16518W        W31987   3.601  14.572  11.227  0.1409 -0.2409 -0.0100
16519W        W31988  16.830   8.229  14.915 -0.1184 -0.0648  0.1007
16520W        W31989  16.649  14.468  12.624  0.0431 -0.1275  0.1809
16521W        W31990   2.907  17.831   1.958 -0.0724  0.4955  0.0349
16522W        W31991   5.134   0.803   4.163 -0.2295 -0.3696  0.1866
16523W        W31992  14.204  18.279  14.076 -0.3957  0.2072 -0.0547
16524W        W31993   6.495   1.187  13.177  0.1845  0.1892  0.0580
16525W        W31994   5.839   3.148  13.241  0.2469 -0.4369 -0.0088
16526W        W31995   4.333  14.169   2.524 -0.2566 -0.0755  0.1684
16527W        W31996   5.509   1.561  13.103 -0.2840 -0.3734  0.0862
16528W        W31997  14.950  17.863  15.169  0.4639 -0.1497  0.1790
16529W        W31998  18.161  14.110  14.006 -0.1685 -0.2203 -0.0652
16530W        W31999  15.975  13.834  11.016 -0.3179 -0.3821 -0.2523
16531W        W32000   4.179  16.741  11.772  0.0086 -0.0142  0.0507
16532W        W32001  12.478  14.718  10.812 -0.1474 -0.0680 -0.0521
16533W        W32002   4.749  14.161  12.277 -0.2158  0.2078 -0.1126
16534W        W32003  15.684  10.309   3.957  0.2882 -0.0508  0.0736
16535W        W32004  12.091  12.690  12.810 -0.0664 -0.1777 -0.1133
16536W        W32005  13.703   8.996   1.557 -0.0611 -0.2128  0.1043
16537W        W32006   9.177   0.646  14.870 -0.0742 -0.2256  0.1123
16538W        W32007  17.256  12.735  14.576 -0.0130  0.2942 -0.1409
16539W        W32008   8.134  13.607   4.423  0.0576  0.1377  0.0181
16540W        W32009   2.359  10.292   5.212  0.3199 -0.0813  0.2105
16541W        W32010   5.062  11.641   3.193  0.5146  0.1020  0.0146
16542W        W32011   6.879   3.517   2.053  0.4806  0.2578  0.0488
16543W        W32012  13.876  16.315   2.876  0.1274 -0.1399 -0.2900
16544W        W32013   3.597   7.194  13.373 -0.0417 -0.0671 -0.4115
16545W        W32014  18.491   3.424   2.309  0.1767 -0.0894 -0.0232
16546W        W32015  15.540  15.479   0.626 -0.2056 -0.2019  0.0698
16547W        W32016  15.547  10.788   4.125 -0.1973  0.1054 -0.1444
16548W        W32017  12.029  14.637  13.453  0.0373  0.4497  0.0380
16549W        W32018  18.535  10.260   2.339  0.2336  0.2477  0.1445
16550W        W32019  17.242   8.671   1.229  0.2412  0.0205  0.1197
16551W        W32020  13.902   3.755   4.180 -0.0108  0.0068  0.0373
16552W        W32021  15.762  15.971  11.018 -0.0792 -0.0033 -0.1192
16553W        W32022   9.231  18.199   3.055  0.0793  0.0479  0.4930
16554W        W32023   4.921   3.581   5.291  0.0955  0.0344 -0.2017
16555W        W32024  16.372   1.134  10.397 -0.1837  0.1092  0.0836
16556W        W32025  10.923   8.106   2.828 -0.2668  0.2122 -0.0464
16557W        W32026  16.550   6.648  11.921  0.1371 -0.0061  0.3391
16558W        W32027  18.008   6.152   9.990  0.2355 -0.1320 -0.1868
16559W        W32028   9.744  13.415  12.122 -0.1443 -0.2430 -0.0980
16560W        W32029  10.097  14.781  11.544  0.2390 -0.4477  0.0005
16561W        W32030  14.355  10.628  11.209 -0.1580  0.0106 -0.1666
16562W        W32031   6.800  12.412  15.049  0.1098  0.3030  0.2825
16563W        W32032   7.850  11.766   3.512 -0.2428 -0.1918 -0.1046
16564W        W32033   0.758  10.725  12.007 -0.2157 -0.3193 -0.2621
16565W        W32034   7.993  11.672   0.849 -0.2790 -0.0912  0.1175
16566W        W32035  15.898   1.174   3.535  0.0960  0.1804  0.3899
16567W        W32036  13.804   0.220  12.992 -0.2178  0.0387  0.0973
16568W        W32037   3.212   8.192  11.473 -0.2672 -0.2583 -0.0523
16569W        W32038  14.642  15.775  15.160  0.2478  0.3700  0.0741
16570W        W32039   7.094  18.237   0.999  0.2433 -0.0670  0.0747
16571W        W32040  16.307  14.656   0.108  0.2867 -0.0434 -0.0927
16572W        W32041   9.245  15.290   3.566  0.3441 -0.1466  0.1282
16573W        W32042  11.729  12.253   3.573  0.0554  0.2758  0.0937
16574W        W32043  15.049   2.795   2.361  0.2161 -0.2761  0.1817
16575W        W32044   5.811   5.143   3.803 -0.2317  0.1513  0.0476
16576W        W32045  14.081   1.394  15.202  0.1164  0.0821  0.0168
16577W        W32046  11.865   6.772   2.678  0.1934 -0.2602 -0.0110
16578W        W32047  12.517  14.607  11.327 -0.2681 -0.1098 -0.2697
16579W        W32048   3.776   0.891  12.511  0.1015 -0.0084  0.2426
16580W        W32049   0.999   6.921   5.076  0.0522 -0.3534 -0.0696
16581W        W32050  12.638   2.110  11.399  0.1765 -0.1895 -0.4989
16582W        W32051   6.092   8.801  14.411 -0.1526 -0.0848  0.1179
16583W        W32052   3.231   2.564  11.670 -0.0804 -0.2241 -0.5855
16584W        W32053  10.400   5.546  11.917  0.0263  0.1303 -0.0975
16585W        W32054   8.881   3.393  12.289 -0.3885 -0.1036  0.3476
16586W        W32055   4.420   4.599  12.101  0.0461  0.1095  0.0258
16587W        W32056  10.950  12.464   5.421 -0.5363 -0.0851  0.1345
16588W        W32057  14.135  18.002  12.209  0.0114 -0.0345 -0.1461
16589W        W32058   7.791   8.660   5.606  0.0392  0.0185  0.1846
16590W        W32059  13.337   3.852   9.122  0.4213 -0.3481 -0.3490
16591W        W32060  15.868  10.624  12.807  0.2112  0.3182  0.0805
16592W        W32061  14.276   0.495  13.035 -0.1735  0.3091 -0.1933
16593W        W32062   1.531  16.289   1.918 -0.1390 -0.2430  0.0226
16594W        W32063   6.326  15.953  10.305 -0.1655 -0.0158 -0.1220
16595W        W32064   9.681   7.654   4.485  0.3115 -0.0679 -0.0622
16596W        W32065  10.465  15.341   1.188  0.1547  0.0643  0.0215
16597W        W32066  12.275   9.406  14.711  0.0872  0.0070 -0.0643
16598W        W32067  18.767  10.746   1.062  0.2030  0.3845  0.1809
16599W        W32068   8.811  14.778  14.003 -0.2725 -0.0153 -0.4254
16600W        W32069  12.630   2.333  14.844 -0.1553 -0.1437  0.0552
16601W        W32070  12.425   4.840  14.864  0.0062  0.0333 -0.1408
16602W        W32071  14.152   9.991   9.853 -0.1178  0.2230  0.0495
16603W        W32072  11.768   2.771   1.401 -0.1579  0.0725  0.1859
16604W        W32073   5.371  15.404   5.330  0.0085 -0.2904  0.2374
16605W        W32074  17.614  16.888  15.222  0.3338 -0.0239  0.0878
16606W        W32075   0.106   2.534   3.905  0.0432  0.4496  0.1175
16607W        W32076   1.184   8.578   1.157  0.3112 -0.0452  0.1750
16608W        W32077   9.068   1.814   3.397  0.1374 -0.0574 -0.2717
16609W        W32078   0.800  17.427   2.768 -0.1779 -0.0235  0.1299
16610W        W32079   5.719   9.916  11.539 -0.4621 -0.1612 -0.0774
16611W        W32080   0.564  18.516  11.211 -0.0051 -0.2800 -0.0999
16612W        W32081  17.937  15.096   2.414 -0.1078  0.1250  0.0009
16613W        W32082   3.778  14.931  10.861 -0.0042  0.0720 -0.0569
16614W        W32083  18.464   2.753  12.573 -0.0462  0.0869 -0.2308
16615W        W32084   8.936  18.175  12.196 -0.1694  0.0365 -0.3209
16616W        W32085  18.055  11.492   4.652 -0.0426  0.0570 -0.1561
16617W        W32086   2.102  10.348  14.855 -0.1134 -0.4518  0.1201
16618W        W32087  17.515   1.222  11.920 -0.0308 -0.0430 -0.0734
16619W        W32088   3.190  11.487  10.569  0.3179 -0.0605  0.2280
16620W        W32089  11.533   0.332  11.229  0.1669  0.0417  0.1221
16621W        W32090   6.203  12.331   3.608  0.1798 -0.0290 -0.4689
16622W        W32091   3.072   3.616   5.237 -0.0517  0.0245  0.0809
16623W        W32092   3.347   3.011  13.599 -0.1125 -0.1260  0.1675
16624W        W32093  12.642   5.379  12.421 -0.0987 -0.0248 -0.3277
16625W        W32094   8.371  10.508   4.631  0.1221 -0.0187 -0.2448
16626W        W32095   8.439   4.213   2.644 -0.4594 -0.3166 -0.1949
16627W        W32096   3.682   5.530   1.429  0.0167  0.0482  0.2960
16628W        W32097  18.618   3.936   2.092 -0.1475  0.5529 -0.2542
16629W        W32098   1.739  13.816  12.844  0.0953 -0.0598 -0.1142
16630W        W32099   6.302   5.637   1.129  0.2031  0.0144 -0.2881
16631W        W32100  12.456   3.998  13.294 -0.2506  0.0583 -0.1088
16632W        W32101   9.600  17.513  10.939  0.1650  0.1560 -0.3332
16633W        W32102  17.670   0.319   4.440 -0.1807 -0.0975  0.1773
16634W        W32103  18.535  16.983   2.756  0.0322 -0.0639  0.1010
16635W        W32104  10.034   5.123   1.915  0.1030  0.0392  0.0977
16636W        W32105   0.087  10.722   4.750 -0.4545  0.0436 -0.1112
16637W        W32106   5.378   3.935   1.634 -0.3595 -0.1419  0.1695
16638W        W32107   9.645  13.868   1.734 -0.1256  0.1504 -0.0912
16639W        W32108  15.357   5.029  14.856 -0.2520  0.3908 -0.0552
16640W        W32109  11.914   3.192  10.994 -0.3053  0.3366 -0.0041
16641W        W32110  18.416  14.984   1.547  0.0393  0.2371  0.0949
16642W        W32111  17.341  17.942   0.957 -0.1075  0.1520 -0.1527
16643W        W32112  12.541  10.934   2.321  0.3047  0.0167 -0.1836
16644W        W32113  19.015   3.541  13.460 -0.1075  0.3289 -0.3569
16645W        W32114   2.162   8.047  12.064  0.2301  0.0475 -0.0235
16646W        W32115   3.595   5.315  15.293  0.2769 -0.0809  0.1277
16647W        W32116  11.119  11.951  13.777  0.2503 -0.1837  0.1223
16648W        W32117   0.902   2.337   5.005  0.2494  0.1679 -0.0991
16649W        W32118   0.948  11.892  12.784  0.1203 -0.0042 -0.2190
16650W        W32119  16.589   7.334   4.255  0.3584 -0.2855  0.1963
16651W        W32120   1.194  12.960  15.128 -0.0660  0.4579  0.2595
16652W        W32121   8.966   3.343   0.741 -0.0387 -0.3381  0.2410
16653W        W32122   2.134   5.126   4.348  0.2496 -0.2536  0.1289
16654W        W32123   7.584   0.139  12.910 -0.0315  0.0065 -0.3591
16655W        W32124   9.040   7.729  11.739  0.1481 -0.1995 -0.1187
16656W        W32125   8.918   9.167  15.049  0.0082  0.2789 -0.1549
16657W        W32126  16.748  11.075   3.322  0.1446  0.0823 -0.1673
16658W        W32127   1.366  16.602  11.801 -0.3098 -0.1833 -0.3263
16659W        W32128  10.110   3.539   2.104  0.1844 -0.1191  0.2235
16660W        W32129   9.551   2.509  14.911 -0.0847  0.0731  0.2537
16661W        W32130   2.500  12.898  12.191  0.1560  0.1682  0.0343
16662W        W32131  17.693   8.127  13.852  0.1961 -0.2256 -0.0877
16663W        W32132  14.898  10.439   4.265  0.3963  0.4746  0.3170
16664W        W32133  12.886  18.113   4.107  0.0539 -0.1435 -0.3269
16665W        W32134  15.734   8.479  14.142 -0.0951  0.1681 -0.1900
16666W        W32135  16.478  14.801   9.716  0.1487  0.0901  0.2496
16667W        W32136   3.954  10.839   4.568 -0.0308 -0.1051  0.0516
16668W        W32137   6.421   0.862  11.349 -0.0929 -0.2070  0.0344
16669W        W32138  14.270  17.192  12.254  0.0463 -0.0035 -0.2105
16670W        W32139  18.220   2.506   1.844 -0.0123  0.2781  0.0601
16671W        W32140  12.691   7.018  15.133  0.0156  0.0796 -0.1370
16672W        W32141   6.574  18.939   0.450 -0.1892  0.4639 -0.0001
16673W        W32142  17.560   9.860  14.529  0.2199 -0.2279 -0.2154
16674W        W32143   4.303  18.464   1.823  0.1470 -0.2012  0.2961
16675W        W32144   1.649   0.795   2.655 -0.5016 -0.0714  0.0749
16676W        W32145   8.801  10.091   2.614  0.3044  0.1095 -0.2076
16677W        W32146   8.624   6.122  12.489 -0.3475 -0.0146 -0.3993
16678W        W32147  16.113  17.991  12.303  0.0532 -0.0238 -0.0089
16679W        W32148   2.437   4.499   2.925 -0.1586  0.2622  0.0447
16680W        W32149   2.931   8.049   4.657  0.2451 -0.0845 -0.2209
16681W        W32150   5.673  16.461   0.762 -0.0299 -0.4533 -0.0250
16682W        W32151  12.473  18.787  14.178 -0.2376 -0.0781  0.1093
16683W        W32152   8.979   6.650  11.940  0.1228  0.1690 -0.0001
16684W        W32153  17.440   2.882   1.621 -0.3115  0.3016  0.0494
16685W        W32154   8.086   8.694   1.294  0.1834 -0.1480  0.1058
16686W        W32155  12.199  14.212  11.398  0.0688  0.2216 -0.1602
16687W        W32156  13.938   5.245  14.701 -0.3159  0.0545  0.1527
16688W        W32157  11.703   9.651  10.436  0.2502 -0.2254 -0.1696
16689W        W32158   8.946   0.762  11.452  0.2453  0.4032  0.1684
16690W        W32159  17.152   0.135   2.621 -0.1246 -0.0088 -0.2408
16691W        W32160   5.785  12.425  11.057 -0.0272  0.0340  0.0696
16692W        W32161   3.353   6.251  13.548  0.3352 -0.5059 -0.0436
16693W        W32162   6.479   5.217   0.325 -0.0811 -0.0811  0.1652
16694W        W32163   2.665   6.867   3.292 -0.2224 -0.0882  0.1484
16695W        W32164   1.619  16.935   1.161  0.1482  0.0498  0.1121
16696W        W32165   4.480   9.838  11.064  0.2107 -0.2805 -0.0073
16697W        W32166   7.581   1.065  13.957 -0.0776 -0.2554  0.2003
16698W        W32167   5.031   0.072   0.146  0.1175  0.0570  0.3347
16699W        W32168   0.182  11.089  13.957  0.0515  0.1979  0.0088
16700W        W32169   1.435   6.646  13.595  0.1717 -0.3193 -0.1127
16701W        W32170  18.990  12.643   2.262 -0.0139  0.0242  0.0026
16702W        W32171  18.035   4.560   2.366  0.3473 -0.0916  0.1685
16703W        W32172  14.583  16.855  11.923 -0.1299 -0.0253  0.0455
16704W        W32173   7.270   8.803  13.742 -0.2424  0.0720  0.0649
16705W        W32174   5.015  10.410   4.097 -0.0314 -0.1288  0.0237
16706W        W32175  15.610   9.821  13.888 -0.1620  0.3740 -0.1697
16707W        W32176   9.430  16.778   4.730  0.0515 -0.3059  0.0184
16708W        W32177   4.386  15.170  14.316  0.0171 -0.1713 -0.1438
16709W        W32178   9.425  18.626  10.916 -0.0537  0.2024  0.2903
16710W        W32179  12.901  10.750   9.293 -0.1706 -0.0671  0.1902
16711W        W32180  12.073   4.542  14.580 -0.4271 -0.5074  0.1636
16712W        W32181   0.068  14.586   5.277 -0.1268 -0.5590 -0.0931
16713W        W32182   5.311   5.444   2.824 -0.1350  0.1379 -0.0985
16714W        W32183   9.305  13.693  12.962  0.2309 -0.1410  0.1925
16715W        W32184  10.671   5.803   4.213  0.0631 -0.6521  0.0242
16716W        W32185   6.954   2.925   3.712  0.1553  0.1001 -0.0299
16717W        W32186  14.491   9.521   1.133 -0.2772 -0.0527 -0.1606
16718W        W32187  13.664   0.944   5.746 -0.0171 -0.0803  0.0863
16719W        W32188  16.138   9.896   1.382 -0.4465 -0.1487 -0.4485
16720W        W32189   4.514   1.718   0.069 -0.3939  0.0243  0.0380
16721W        W32190  18.380  12.886   9.652  0.0421 -0.3150  0.1116
16722W        W32191   3.470   3.423   0.793 -0.0704  0.3439 -0.2576
16723W        W32192  13.569   3.049  12.545 -0.0025  0.1079 -0.2480
16724W        W32193   6.911  11.866  14.337  0.1596 -0.0475  0.2183
16725W        W32194  10.813   8.398   3.256 -0.1027 -0.0278  0.2563
16726W        W32195   4.816   1.530   0.531  0.0932  0.0271  0.1998
16727W        W32196  10.385   1.400  13.812 -0.3385 -0.0041  0.1406
16728W        W32197   6.926  10.360   4.064 -0.0118 -0.1939 -0.1359
16729W        W32198  13.370   1.791  12.145 -0.0585 -0.0427 -0.0164
16730W        W32199   0.960   9.111   1.064 -0.0869  0.0858  0.2710
16731W        W32200   3.825   2.208  10.434  0.0830  0.0585  0.1663
16732W        W32201  14.403  15.439  13.973  0.0270 -0.2396 -0.2398
16733W        W32202  14.408  17.641  14.397 -0.0893 -0.0636 -0.0839
16734W        W32203  15.288   3.506   3.529 -0.1469  0.3775  0.3184
16735W        W32204  12.402   1.762   1.715  0.1872  0.0353 -0.0838
16736W        W32205   9.373  12.686  14.564  0.1379 -0.0314 -0.2231
16737W        W32206  18.214   8.181   5.264  0.1701  0.0832  0.3473
16738W        W32207   9.640   5.082  10.756 -0.1149  0.0118  0.3491
16739W        W32208  17.022   2.147  14.806 -0.0993 -0.3440  0.2556
16740W        W32209   1.912   7.202   2.448 -0.1734  0.2296  0.0031
16741W        W32210   3.212   4.766  11.754 -0.3444 -0.4110 -0.0543
16742W        W32211  14.013   6.794   1.032 -0.0386  0.1617  0.2211
16743W        W32212   4.656  10.418   5.522  0.3670 -0.2314  0.0868
16744W        W32213  15.301   6.611   4.166 -0.3149 -0.1923 -0.5099
16745W        W32214   8.893  13.768   3.274  0.0635  0.0839  0.0818
16746W        W32215   6.147  12.794  11.325  0.1141  0.2016  0.0134
16747W        W32216   9.325  17.098  13.531  0.1094  0.1496 -0.1729
16748W        W32217   9.103  11.089   5.247  0.0676  0.1081  0.0187
16749W        W32218  17.778   1.000   2.718 -0.1813  0.1006 -0.2518
16750W        W32219   5.710   9.979   4.488  0.2350  0.1563 -0.0850
16751W        W32220  14.001   9.546  12.858  0.1425  0.1351 -0.0205
16752W        W32221  17.221   7.484   3.838 -0.0136  0.1156  0.2630
16753W        W32222   1.772   2.414   5.019  0.0528 -0.0518 -0.3745
16754W        W32223   9.669  10.589  14.989 -0.0500 -0.3166  0.1293
16755W        W32224   5.539   7.014  12.175  0.2566  0.0553 -0.4249
16756W        W32225  15.552  14.303   2.267  0.1008 -0.0254 -0.0827
16757W        W32226   2.677   8.290   0.974  0.1230  0.0724 -0.1574
16758W        W32227  18.084   2.736   1.403 -0.1474 -0.1236 -0.0398
16759W        W32228  18.791  12.732   4.340 -0.0040  0.1172 -0.2139
16760W        W32229  10.436   9.704   1.599 -0.0934 -0.0275  0.3050
16761W        W32230   9.175   7.025  12.248 -0.1315 -0.1933  0.0677
16762W        W32231   5.482   9.517   4.163  0.3206  0.0849 -0.0157
16763W        W32232   7.098   3.607   6.263  0.1899 -0.2648 -0.0264
16764W        W32233  15.053  12.047  11.814 -0.2598 -0.0451 -0.5101
16765W        W32234  13.760   9.714  13.945 -0.0716 -0.0014 -0.0276
16766W        W32235   2.764  11.535   3.906 -0.1229 -0.0588 -0.3763
16767W        W32236   4.940   7.718   4.223 -0.0196  0.2200 -0.2418
16768W        W32237  16.567   7.313  12.129  0.1386 -0.1257  0.4501
16769W        W32238  15.818   3.944   4.344  0.2712  0.0843 -0.2625
16770W        W32239  15.605  13.140   9.711  0.1889 -0.0636  0.2216
16771W        W32240   6.085  18.817   2.037  0.1748 -0.1410 -0.1503
16772W        W32241   6.817  15.469  13.149  0.3371  0.1866  0.1410
16773W        W32242   6.097  16.360   1.633 -0.0122 -0.2198  0.0181
16774W        W32243  13.499  12.501  14.278 -0.2275  0.2164  0.1656
16775W        W32244   6.054   8.413  11.158  0.1995 -0.3198  0.2553
16776W        W32245   0.855   8.613  12.771  0.0661  0.0860  0.0674
16777W        W32246  15.878  14.954   4.407  0.0203 -0.0798  0.3486
16778W        W32247  12.471  14.516  14.980 -0.0028 -0.1707 -0.0703
16779W        W32248  15.147  10.657  13.401 -0.1921 -0.0014 -0.1591
16780W        W32249   2.006   6.588  15.359 -0.2280  0.1989 -0.1189
16781W        W32250   4.119   2.765  12.180 -0.2228 -0.0490  0.1217
16782W        W32251   5.191   1.992  14.837 -0.1538 -0.1592 -0.3700
16783W        W32252  13.445  10.343   0.002 -0.2988  0.3580 -0.1955
16784W        W32253   8.571   8.232  13.470 -0.0692  0.0867  0.1305
16785W        W32254   2.162   7.602   2.969 -0.0639  0.0459 -0.2568
16786W        W32255  10.279   7.513   4.586 -0.2565  0.0111  0.4523
16787W        W32256   6.822   3.613   1.165  0.1577  0.0331 -0.1350
16788W        W32257   4.638   1.653  13.102 -0.1297 -0.0553  0.1992
16789W        W32258  16.758   6.214   4.323 -0.1727 -0.2440  0.2018
16790W        W32259  11.107  13.491  12.936  0.0233 -0.3671 -0.3214
16791W        W32260  15.505  15.499   3.662  0.1103  0.1143 -0.0687
16792W        W32261   6.926  12.952   3.522 -0.0287  0.1213  0.4776
16793W        W32262   9.856  14.620  10.547  0.0216  0.0616 -0.3526
16794W        W32263  11.357   5.527  14.460 -0.0809 -0.1917 -0.1319
16795W        W32264  11.185   7.095   5.553  0.0605  0.1610  0.0650
16796W        W32265   0.371   2.204  11.172  0.1791  0.0308  0.2460
16797W        W32266  14.515   7.579   2.655  0.0088  0.1463 -0.1662
16798W        W32267   6.688   0.689  13.183 -0.1174 -0.1180 -0.2291
16799W        W32268   7.546  10.223  10.669  0.2278  0.3710 -0.1300
16800W        W32269   4.230   2.472   3.332  0.4434  0.1398  0.2600
16801W        W32270   7.622  11.930   2.152 -0.0022  0.0315 -0.3061
16802W        W32271   0.713   2.224   3.495  0.0567  0.0819  0.2120
16803W        W32272  13.654   1.115   0.034  0.1620 -0.0412 -0.1309
16804W        W32273  14.636   5.724   2.822  0.1957 -0.0830 -0.2892
16805W        W32274  15.861   0.150  11.194 -0.0617  0.0553  0.1488
16806W        W32275   5.729   9.059  13.066  0.1581 -0.1679 -0.2159
16807W        W32276  12.553  15.579   0.588  0.1015 -0.2435  0.0740
16808W        W32277   6.583   1.983  14.553 -0.0017 -0.0174 -0.0863
16809W        W32278   0.714   3.578   2.278  0.0945 -0.1649 -0.2090
16810W        W32279   7.365  17.150  10.260 -0.1136 -0.2516 -0.0451
16811W        W32280  12.046  18.524  13.170 -0.0030  0.1491  0.0280
16812W        W32281   7.807  18.689  11.274  0.0304 -0.0473  0.0994
16813W        W32282  15.263   7.195  14.853  0.1192  0.1306  0.0674
16814W        W32283   5.506   2.874   4.445 -0.1684  0.1698 -0.0951
16815W        W32284  13.756  14.435   3.862 -0.0459  0.1174 -0.0503
16816W        W32285   0.904   7.407   5.067  0.1443  0.2317 -0.0063
16817W        W32286  17.194  17.528  12.471  0.0007  0.0837  0.1227
16818W        W32287   1.135   7.107  10.920 -0.2246 -0.0557 -0.0294
16819W        W32288  14.118  14.247  15.359 -0.0553 -0.3069 -0.0791
16820W        W32289   6.762   0.422  14.113 -0.0929 -0.0316  0.1412
16821W        W32290   3.104   8.282   1.663 -0.2429 -0.0234 -0.1462
16822W        W32291   4.728   1.301  14.586 -0.0049  0.2554  0.2307
16823W        W32292  16.196   0.888   3.234  0.1740 -0.2307  0.2358
16824W        W32293   7.465  17.917   5.067  0.1210 -0.0556  0.0956
16825W        W32294   9.501   1.696   0.070  0.0541  0.3291 -0.0475
16826W        W32295  13.786  18.961   2.533  0.0196 -0.0846  0.1814
16827W        W32296   0.048   0.107   2.981 -0.2472 -0.1267  0.0935
16828W        W32297   1.547   5.884  11.937  0.1380  0.2531  0.1047
16829W        W32298  10.164  16.169   0.396  0.0501 -0.2990 -0.0400
16830W        W32299  10.926   1.595   4.983  0.1634 -0.2812 -0.0971
16831W        W32300  10.179   1.873   1.718  0.1490  0.1133  0.0287
16832W        W32301  16.706   3.010  10.120 -0.2571  0.0566 -0.2119
16833W        W32302   7.962   4.964   2.835  0.0139  0.2449  0.3968
16834W        W32303  16.364   2.139  10.457 -0.2918  0.3497 -0.0196
16835W        W32304   9.045  13.838   2.390  0.0446 -0.0446  0.2346
16836W        W32305  15.008  11.116   5.338  0.0026  0.2618  0.1372
16837W        W32306  18.790   6.511   4.015  0.0670  0.0011 -0.0990
16838W        W32307  18.831   7.447   5.424 -0.0798 -0.0741 -0.1478
16839W        W32308   2.674   0.403   3.219  0.0743 -0.0118 -0.2479
16840W        W32309  11.507   2.653  10.816 -0.1193  0.1011 -0.3345
16841W        W32310  10.610  12.504   2.138  0.0843  0.4705  0.2457
16842W        W32311   6.863   5.170   1.095  0.2358  0.3978 -0.2375
16843W        W32312   4.920   6.201   1.301 -0.0757  0.2114 -0.2355
16844W        W32313  15.841  14.845   3.107  0.3541  0.1749 -0.0337
16845W        W32314   2.740   2.771   2.298  0.0532 -0.2895  0.0251
16846W        W32315  15.961   4.253   2.917  0.1917 -0.0748  0.0979
16847W        W32316  17.763   6.236  10.421 -0.0303 -0.0825 -0.0113
16848W        W32317   8.393   3.998  12.788  0.4352 -0.1384 -0.0463
16849W        W32318   3.599  11.667  10.738  0.1902  0.0072 -0.1122
16850W        W32319   2.982   6.289  11.247 -0.0380  0.0018 -0.0647
16851W        W32320  18.422  11.552   5.022 -0.1566 -0.0089  0.1175
16852W        W32321   3.641  13.992   0.495 -0.1426  0.1250 -0.1000
16853W        W32322  10.565  10.842  15.026 -0.0684 -0.1428  0.2152
16854W        W32323   6.785   3.902   5.767  0.0362  0.0083 -0.1747
16855W        W32324  11.705   8.072  10.231 -0.2033  0.0277  0.0111
16856W        W32325   9.677   7.384   0.674 -0.0838  0.0169 -0.1415
16857W        W32326   1.750   9.103  14.794  0.0736 -0.0889 -0.0807
16858W        W32327  18.649   1.174   1.682 -0.4070  0.0416  0.1820
16859W        W32328   0.842  11.041   5.222 -0.2708 -0.1410  0.0287
16860W        W32329  16.154   0.130  11.562 -0.0468  0.0709 -0.0652
16861W        W32330   5.079  18.861   3.442 -0.0283 -0.3370 -0.0194
16862W        W32331   9.740   0.187  12.178  0.1684  0.0043  0.0015
16863W        W32332   0.578  12.185   4.773 -0.1333 -0.1135  0.2966
16864W        W32333  10.961   7.961  15.050  0.3972 -0.1177  0.0837
16865W        W32334  16.240  16.981   0.538 -0.0811  0.0789  0.2267
16866W        W32335  18.213  17.405   1.363 -0.1644 -0.3487  0.5132
16867W        W32336  18.035   6.502   2.854  0.2058  0.1380 -0.0609
16868W        W32337  14.920   9.770  13.398 -0.3631  0.1967  0.1773
16869W        W32338   4.417   6.411  10.672  0.3746  0.0571 -0.1054
16870W        W32339  12.003  15.405  11.774  0.1753  0.1333  0.1344
16871W        W32340  16.359  18.168  12.938  0.2112 -0.2201  0.0002
16872W        W32341  18.675   9.650  11.890  0.0970 -0.3250  0.2292
16873W        W32342  13.278   1.951   1.543  0.1925 -0.0150  0.0924
16874W        W32343   1.005  16.555  12.488  0.0536  0.0831 -0.3192
16875W        W32344   6.554   3.994  12.000 -0.0121  0.1650  0.2970
16876W        W32345  15.170   3.757   1.610  0.1624  0.2086 -0.4075
16877W        W32346  16.690  10.774  14.264 -0.4948  0.3208  0.1110
16878W        W32347   9.645   0.634  10.241  0.0480 -0.3442 -0.5546
16879W        W32348  10.983  16.878   4.691 -0.0037 -0.0077  0.5440
16880W        W32349  18.754   0.128   0.514 -0.2669 -0.2465 -0.0753
16881W        W32350   8.072  11.621  14.176  0.1173 -0.0396 -0.0445
16882W        W32351  13.115  14.097  12.446 -0.2578  0.2103 -0.0953
16883W        W32352   5.200   4.106  13.672  0.1201 -0.0287  0.1592
16884W        W32353   5.920   0.358   1.825 -0.4149 -0.0414 -0.0938
16885W        W32354  14.946  14.520  11.718  0.2406 -0.0997 -0.0886
16886W        W32355   6.287  18.347   2.794 -0.0512 -0.1819 -0.1248
16887W        W32356   7.746  10.371   0.914 -0.0677 -0.2418 -0.2320
16888W        W32357  11.201  13.919  13.795  0.1307 -0.1776  0.0777
16889W        W32358  16.419   4.517   1.107  0.0048 -0.1565 -0.1218
16890W        W32359  13.264  14.003  14.764  0.1491 -0.2314 -0.3330
16891W        W32360  16.202  18.959  14.492  0.0075  0.1343 -0.1820
16892W        W32361  10.761   8.199   1.844  0.4058 -0.0467  0.0918
16893W        W32362  17.701   6.760   3.101 -0.1629 -0.0938  0.0569
16894W        W32363   4.173  10.972   3.001  0.1247 -0.1880 -0.1935
16895W        W32364   6.440  15.419  13.556  0.0568 -0.1479  0.2579
16896W        W32365  17.892   4.688   1.947  0.1192  0.1344 -0.0429
16897W        W32366   6.104   2.031   0.993  0.0084 -0.0043  0.2363
16898W        W32367   8.467  11.738   5.189  0.0151  0.1944 -0.1008
16899W        W32368  13.122   1.816   3.316  0.2704  0.0218 -0.4773
16900W        W32369  18.330  10.680   0.803 -0.1320 -0.1100  0.0006
16901W        W32370   0.154   1.153  14.738 -0.1105 -0.3055 -0.2442
16902W        W32371   7.977  15.213   4.730 -0.0656 -0.2312 -0.1252
16903W        W32372   2.771   1.388  11.878  0.2804  0.1068  0.1230
16904W        W32373  14.880   1.493   3.667  0.2208  0.1036 -0.3811
16905W        W32374   3.091   0.470  14.109  0.0153 -0.0817  0.1615
16906W        W32375   7.491   7.432  11.330  0.2825 -0.2099 -0.3009
16907W        W32376  17.676   0.191   3.883 -0.3561 -0.1828  0.1157
16908W        W32377   8.417  15.792   2.051 -0.0342  0.0160 -0.2450
16909W        W32378  17.268  13.972  11.609 -0.2518 -0.1690  0.1675
16910W        W32379  13.554  16.182  13.317 -0.2222 -0.0981  0.1966
16911W        W32380  11.664   9.949   4.750 -0.0069 -0.5464  0.0417
16912W        W32381   6.922  15.653  14.575  0.1313  0.1944  0.0869
16913W        W32382  16.577  11.763  13.562 -0.6201  0.0282 -0.1638
16914W        W32383  15.675  13.815  12.376  0.1887  0.0056 -0.1230
16915W        W32384   5.809   1.943  13.925 -0.0266 -0.0353 -0.1348
16916W        W32385  17.160  19.019  11.384  0.2203  0.0401 -0.0853
16917W        W32386   7.577  15.475   5.987  0.1034  0.2118  0.1433
16918W        W32387  11.043   6.924  13.813  0.0429  0.3727  0.0161
16919W        W32388   4.462   8.183  12.494  0.0415 -0.5242  0.1272
16920W        W32389   3.214  14.932   0.469  0.3079 -0.2649  0.0488
16921W        W32390   0.103  14.712   2.876  0.3624 -0.1156 -0.1064
16922W        W32391  17.172   3.779  10.673  0.0509 -0.0837  0.1186
16923W        W32392   0.330   1.249  14.293 -0.0684  0.1219  0.1331
16924W        W32393  17.049   1.153   0.224  0.2000  0.3729  0.0943
16925W        W32394   7.330  18.203  11.827  0.0930 -0.2023 -0.0938
16926W        W32395   2.369   2.771   3.175 -0.0726 -0.2877 -0.2472
16927W        W32396   7.363  18.718   0.928  0.0086  0.0242 -0.2419
16928W        W32397   1.163  17.952  12.043  0.0083  0.1617 -0.5149
16929W        W32398   6.850   3.833  11.586 -0.0967  0.1629 -0.0480
16930W        W32399   3.389   7.591   3.456  0.0767 -0.2152 -0.0140
16931W        W32400   0.193   5.267   0.293  0.0536  0.3306  0.0751
16932W        W32401  18.684   5.677  14.027  0.5267  0.0371  0.2061
16933W        W32402  15.137  16.911  14.616 -0.1289 -0.3624  0.1899
16934W        W32403   7.938   7.855   3.644  0.3618  0.0949 -0.2866
16935W        W32404   9.105   6.522   3.446 -0.1969 -0.2609 -0.3891
16936W        W32405  18.341   6.186   2.245 -0.3107 -0.0097  0.2464
16937W        W32406  18.285  12.315  10.308 -0.0510  0.0062 -0.2768
16938W        W32407  16.411   4.483  13.448 -0.0604  0.4122 -0.0705
16939W        W32408   5.491   9.734   4.828  0.0039 -0.1108 -0.3594
16940W        W32409   8.182  16.353  12.279  0.4214  0.1394 -0.1102
16941W        W32410   1.523   3.009  12.911 -0.2806 -0.0339 -0.0437
16942W        W32411  15.274   6.306   1.629  0.1323 -0.2629  0.3721
16943W        W32412  15.326  14.016  14.047  0.1226  0.1763  0.1949
16944W        W32413   9.153  11.634   3.256 -0.0834 -0.1168 -0.0712
16945W        W32414  15.144  11.759   0.924  0.2977  0.2113 -0.0715
16946W        W32415  12.335  16.778   0.488 -0.2106  0.0861  0.2991
16947W        W32416   0.341  10.188  15.339  0.4342 -0.2666 -0.3281
16948W        W32417  16.617   8.870   0.459  0.0495 -0.3458  0.3262
16949W        W32418   2.373   0.198   2.152  0.2190  0.1806 -0.0761
16950W        W32419   1.803  10.128   2.030  0.1280 -0.0159  0.1834
16951W        W32420  11.056   7.297  14.490 -0.1929  0.1932  0.0719
16952W        W32421   9.192   6.342  14.144 -0.2814 -0.1259 -0.0550
16953W        W32422  17.903  11.888   0.171 -0.2073  0.1910  0.1189
16954W        W32423  13.489   8.457  13.407 -0.3575  0.4163 -0.1739
16955W        W32424  14.549  17.903   3.698  0.1080 -0.0208 -0.2146
16956W        W32425   1.897   2.124  14.136  0.0586 -0.0702 -0.1997
16957W        W32426   6.009  16.910  13.172  0.1983  0.1543  0.0327
16958W        W32427  12.671  12.634   1.297 -0.0975 -0.0960 -0.0411
16959W        W32428  17.597  16.029  11.186 -0.1033  0.1161 -0.2497
16960W        W32429  12.767  18.922   2.245 -0.1517  0.1346  0.3274
16961W        W32430  12.286   4.889   4.599 -0.2329 -0.0475  0.0598
16962W        W32431  16.252  10.509   0.111  0.1296 -0.0394  0.2523
16963W        W32432  18.016  16.522   1.041  0.1761  0.4419  0.2482
16964W        W32433  12.256  15.740  12.086 -0.3106 -0.0473 -0.0803
16965W        W32434  16.698   0.193   1.966 -0.1563  0.1031 -0.1767
16966W        W32435  13.700   7.644  14.151 -0.2320  0.2937 -0.1261
16967W        W32436  15.496   5.419   4.103  0.0446 -0.0134  0.0226
16968W        W32437  12.539   9.632  10.296 -0.1925  0.0808 -0.5393
16969W        W32438  17.023   0.484  12.199  0.1090  0.0327 -0.1513
16970W        W32439   3.014   3.477  13.430 -0.5683 -0.0811 -0.0424
16971W        W32440   7.010  12.910  13.056 -0.1646  0.0952 -0.3779
16972W        W32441   2.270   1.083  10.608  0.0095 -0.2281  0.3415
16973W        W32442  10.313  13.786   9.550  0.2723  0.1381 -0.0129
16974W        W32443   2.381  18.254   4.045 -0.2145 -0.0474 -0.1298
16975W        W32444  18.179   6.157   3.211 -0.0071 -0.2241 -0.1906
16976W        W32445   3.005   9.445   4.441  0.0108  0.1205 -0.1751
16977W        W32446  17.777  11.604   3.748 -0.1515  0.2547 -0.1123
16978W        W32447  15.941  16.942   2.260  0.0591 -0.1292  0.1189
16979W        W32448   1.945   0.373  12.721  0.0292  0.2654 -0.1664
16980W        W32449  14.819   1.346   4.517 -0.0506 -0.0533 -0.0788
16981W        W32450  15.916  16.138   4.295  0.1778  0.1729  0.2279
16982W        W32451  11.596  12.946   0.743 -0.0579  0.1942  0.0555
16983W        W32452   0.703  15.177  14.819 -0.3736  0.0321  0.0146
16984W        W32453  14.202  15.187   9.952  0.0812  0.0979 -0.2391
16985W        W32454   3.577   5.333  10.479  0.2583  0.1852  0.1193
16986W        W32455   9.399   0.350   3.586  0.1496  0.0939 -0.3424
16987W        W32456   9.323   4.038   2.249  0.0760  0.0049 -0.1105
16988W        W32457  14.249  13.948   5.514  0.0338 -0.0938  0.1172
16989W        W32458   8.419   3.716   5.544  0.3296 -0.1868  0.1962
16990W        W32459   2.335   1.324  14.547 -0.0732  0.0254  0.0752
16991W        W32460  12.285   2.777   6.136 -0.0489  0.1285 -0.0613
16992W        W32461   0.217  12.789   3.648 -0.2213  0.0999  0.0324
16993W        W32462  15.483   6.210  13.897 -0.3978 -0.1359 -0.1989
16994W        W32463  11.038  13.913  14.526  0.0298  0.0007 -0.1574
16995W        W32464   3.103   4.555  13.810 -0.4914 -0.2747  0.0600
16996W        W32465  16.532  14.711   1.163 -0.2561 -0.1798 -0.0826
16997W        W32466  10.053   2.433   0.964  0.1652 -0.0574  0.1581
16998W        W32467  10.276  16.533   2.352  0.0239 -0.1548  0.1586
16999W        W32468  18.765  15.444  12.750 -0.2627  0.0985 -0.1764
17000W        W32469  13.478  17.824  15.195 -0.1984 -0.0933  0.0369
17001W        W32470  15.198   7.395  12.630  0.2048 -0.3629  0.1029
17002W        W32471  10.460   1.329  13.315 -0.0122 -0.1010 -0.2288
17003W        W32472   0.560  15.385  11.252 -0.2808  0.1134  0.0528
17004W        W32473  12.002   4.085   1.503  0.0169 -0.0645 -0.1122
17005W        W32474   8.556  12.715   0.665 -0.1167 -0.0055  0.0824
17006W        W32475   1.665   9.631   4.197 -0.1715  0.1003  0.4720
17007W        W32476   0.907  14.425   3.209 -0.4342 -0.2429 -0.1874
17008W        W32477   5.707  15.977   3.702 -0.1206  0.1895 -0.2284
17009W        W32478   6.544  15.546   2.651 -0.0773  0.0394  0.0060
17010W        W32479   3.840  18.280   2.614 -0.3580 -0.0520 -0.0286
17011W        W32480   7.612  13.080  10.042 -0.1669 -0.2686 -0.0096
17012W        W32481   2.789   6.407  12.467  0.1974 -0.1684 -0.1555
17013W        W32482  12.075  17.838   4.697  0.3196  0.2045  0.2895
17014W        W32483   1.661   9.823  14.191  0.1542 -0.0786  0.0136
17015W        W32484  18.400   4.053  12.436 -0.0949  0.2509 -0.0509
17016W        W32485  17.081   5.060   1.751 -0.0419 -0.1211  0.0963
17017W        W32486   8.341  18.040  10.958 -0.0278  0.2250 -0.3718
17018W        W32487   3.041   1.935  11.436 -0.0867 -0.0529 -0.2439
17019W        W32488  10.911   5.572   4.606  0.1182  0.1435 -0.2575
17020W        W32489  10.685  16.919  12.507  0.0572 -0.0991  0.0442
17021W        W32490   5.787  18.466  13.171  0.0404 -0.1675  0.2710
17022W        W32491   3.660  16.158   3.454  0.1198  0.0659 -0.1760
17023W        W32492   6.745  18.905   1.900  0.1860 -0.0488  0.3661
17024W        W32493  14.510   0.731   0.209  0.1976  0.1459 -0.3058
17025W        W32494   0.694   3.778  13.060  0.1029  0.2892  0.0353
17026W        W32495  12.954   4.158  11.257 -0.0511  0.2449  0.0019
17027W        W32496  13.862  16.209  13.695  0.1718  0.1389 -0.2347
17028W        W32497  13.981  14.065  12.929 -0.1227 -0.3314  0.5707
17029W        W32498   8.409   4.393   2.166 -0.2645  0.1941  0.2091
17030W        W32499   4.813  17.071   0.744  0.3218 -0.0050 -0.0749
17031W        W32500  12.675  13.370   2.196 -0.1460  0.2027  0.1717
17032W        W32501   7.280  12.433  13.576  0.0864  0.0419 -0.0978
17033W        W32502  18.049   9.368  11.478 -0.0005  0.0062 -0.3473
17034W        W32503  12.810   7.690   5.066 -0.0915 -0.2161 -0.0281
17035W        W32504   4.124   5.214   2.288  0.0995  0.0252  0.0605
17036W        W32505   4.367   7.382  10.549  0.4063 -0.1459  0.1468
17037W        W32506  17.375   5.978  13.810 -0.1538 -0.1508  0.0639
17038W        W32507  18.936   7.192  14.704  0.1226  0.0014  0.1049
17039W        W32508  18.633   2.124  13.806 -0.2514  0.4587 -0.0577
17040W        W32509   5.752   4.737   0.414 -0.0652 -0.3391 -0.1744
17041W        W32510   3.501   0.776  14.265  0.3656  0.0786 -0.0836
17042W        W32511   3.210  16.813   3.673 -0.0109  0.0981 -0.1227
17043W        W32512  15.386   9.460  11.104  0.2011 -0.0191 -0.0134
17044W        W32513   9.917  12.243  14.751  0.2395  0.0457 -0.0621
17045W        W32514   0.011   9.131   2.592  0.1065 -0.0159  0.0771
17046W        W32515  10.119  18.634   1.878 -0.2323 -0.2990  0.1121
17047W        W32516   9.879  13.658  10.196 -0.2276 -0.0854 -0.1033
17048W        W32517   0.871  11.914   4.526  0.1241  0.3969 -0.0614
17049W        W32518   7.675  16.107  14.116  0.0087  0.3280 -0.0821
17050W        W32519  17.777  15.330  10.581  0.1494  0.1272  0.1514
17051W        W32520  13.767  13.916   5.491 -0.5872 -0.0908 -0.0622
17052W        W32521  14.357  16.143  13.769  0.1594 -0.2186  0.0222
17053W        W32522   2.549   3.387  11.861  0.3702  0.1968 -0.1956
17054W        W32523   1.799  12.218   1.591  0.2006 -0.0911  0.1239
17055W        W32524   8.241  17.386   2.067 -0.0723  0.0111  0.0513
17056W        W32525  14.262   7.411  12.313 -0.1574 -0.0554 -0.0067
17057W        W32526  14.257   0.573  15.078  0.1444  0.1184  0.0872
17058W        W32527  16.914   3.465   3.136  0.1855 -0.0154  0.0623
17059W        W32528   5.816   8.495   4.788  0.1875 -0.0302 -0.0646
17060W        W32529   0.087   8.081   3.197 -0.0416  0.0162  0.1159
17061W        W32530  18.855  10.550  13.286  0.0205  0.1744 -0.2100
17062W        W32531   4.429  18.649   1.363 -0.2087 -0.1491 -0.0123
17063W        W32532  13.589  17.860   3.682 -0.0541 -0.0835  0.1167
17064W        W32533  16.523  12.208  14.840  0.6941 -0.1923 -0.2122
17065W        W32534   4.905   7.713   3.063  0.1449  0.1594 -0.0167
17066W        W32535  15.809   7.066   0.795 -0.1605 -0.2043  0.2441
17067W        W32536   0.768   9.119  13.933  0.1879 -0.0319  0.1557
17068W        W32537   4.810  10.017   1.820  0.0511 -0.0357  0.3328
17069W        W32538  12.922   8.203  13.191  0.2203 -0.0173 -0.0340
17070W        W32539   8.967   6.966   1.288  0.0504 -0.0243  0.0708
17071W        W32540   5.729   8.085  14.638  0.3466  0.0848  0.6063
17072W        W32541   6.860   1.203   1.546  0.0044 -0.4332  0.4963
17073W        W32542  13.951   0.563   3.914  0.2437 -0.2977 -0.1064
17074W        W32543  16.475  17.796   3.842  0.2515 -0.0039  0.0863
17075W        W32544  11.156   7.374  13.671  0.1931  0.1548 -0.0089
17076W        W32545  17.283   4.367   2.165 -0.3499 -0.0178  0.1411
17077W        W32546  17.003  14.033   1.950  0.0180 -0.0067 -0.0281
17078W        W32547   0.557  10.712   0.821  0.0224 -0.0052 -0.5226
17079W        W32548   8.610  16.102   2.468  0.1558  0.3070  0.3349
17080W        W32549   2.629  15.523   1.498  0.1503 -0.3234  0.1116
17081W        W32550  17.196  12.214  10.061  0.2997  0.1284 -0.2235
17082W        W32551  11.843  18.646   1.173  0.0639  0.3175 -0.0402
17083W        W32552   6.347  12.009   1.150 -0.0727  0.0905 -0.3256
17084W        W32553  17.284  16.666  12.858  0.2791 -0.0275  0.0654
17085W        W32554  14.267   0.937  12.567 -0.0359  0.3715 -0.0712
17086W        W32555  16.818  10.274  11.569  0.0229  0.2272  0.0971
17087W        W32556  10.477  18.669   0.967  0.2425 -0.1800  0.0943
17088W        W32557   0.273   9.326  12.543  0.0454 -0.2583 -0.1244
17089W        W32558   7.103   4.299   4.689  0.1661  0.1851  0.2911
17090W        W32559   5.653   9.900   0.155 -0.0620 -0.3514 -0.3302
17091W        W32560  18.469   3.605   2.787  0.2538 -0.1955 -0.1842
17092W        W32561   8.335  10.284   2.692 -0.0656  0.0337 -0.0555
17093W        W32562   4.901  14.715  14.026 -0.0285  0.3737 -0.3307
17094W        W32563   2.283   2.528   3.829 -0.2482  0.2256 -0.0131
17095W        W32564   6.434   9.612   0.585  0.4752  0.3376 -0.2935
17096W        W32565   1.533  19.003   2.229  0.0829  0.1989  0.0015
17097W        W32566   3.261   3.668   1.942 -0.0570  0.0982 -0.1079
17098W        W32567  14.116  10.720  13.142  0.1185 -0.0510  0.0272
17099W        W32568  14.368  11.361  12.576 -0.0023 -0.3042 -0.1093
17100W        W32569  16.955   0.593   1.088  0.3814 -0.1520  0.1197
17101W        W32570   0.817   0.572  14.277 -0.2573 -0.0511  0.1652
17102W        W32571  10.993  16.965   0.351  0.0783 -0.0831 -0.0885
17103W        W32572   7.864   3.300   2.495 -0.3047 -0.1764 -0.0334
17104W        W32573  11.375   1.407   9.795  0.1995  0.0764  0.2886
17105W        W32574  18.400  12.341   5.608  0.1267  0.1769  0.0719
17106W        W32575  11.632  11.226  14.142 -0.3384  0.4692  0.3929
17107W        W32576  10.841   4.645   4.132  0.0284 -0.0654  0.0499
17108W        W32577  17.088  12.938   2.144  0.1239  0.0348 -0.1510
17109W        W32578  18.918   3.300  15.353 -0.1631  0.3367 -0.1976
17110W        W32579   8.780   7.872   2.226 -0.1037  0.0701  0.2353
17111W        W32580  17.408   0.407  11.265  0.0015  0.1722  0.1584
17112W        W32581   6.943   6.602  14.793 -0.0463 -0.0747 -0.0668
17113W        W32582   1.123  13.696   0.499 -0.2869  0.1337  0.1226
17114W        W32583  16.145   1.303  10.899  0.1656  0.0339 -0.0234
17115W        W32584  18.693  15.088  11.565  0.2374 -0.1586 -0.0728
17116W        W32585  12.754   8.483   1.453  0.4905 -0.3087 -0.2252
17117W        W32586   5.390  10.887   2.115 -0.0262 -0.1655  0.2664
17118W        W32587  17.627   8.728   0.208  0.0590  0.1507 -0.1106
17119W        W32588   1.234   4.112   4.973 -0.2180 -0.3542  0.4118
17120W        W32589   9.867  11.111   4.326 -0.1198 -0.1933 -0.2001
17121W        W32590   8.094   1.867  13.773 -0.2247 -0.0922 -0.1635
17122W        W32591   5.570  10.090  12.141  0.2069  0.0313  0.2615
17123W        W32592  10.051   5.632   5.358 -0.0544  0.2052  0.0730
17124W        W32593  11.046   4.142   4.889 -0.1191 -0.0017  0.1722
17125W        W32594  13.587   6.033   3.691  0.2061 -0.0829 -0.0653
17126W        W32595   2.326  11.761  12.184  0.0932 -0.1763  0.3209
17127W        W32596   8.278  15.183   1.202  0.1817 -0.0676 -0.2350
17128W        W32597   1.323   6.474   1.266 -0.2145 -0.2485 -0.1287
17129W        W32598   0.482   6.633  11.912  0.1328  0.2290  0.1023
17130W        W32599  17.479   5.338  10.620 -0.2999 -0.1706  0.1134
17131W        W32600   3.894  11.053  13.228  0.2251  0.1725 -0.2207
17132W        W32601  18.653   6.533   0.492 -0.2363 -0.2585 -0.3521
17133W        W32602   5.826   5.988  11.283  0.0720  0.1333  0.1379
17134W        W32603  11.471  16.817  14.828  0.1241 -0.2496 -0.2378
17135W        W32604   8.526  14.644   0.503  0.0684  0.0468 -0.1496
17136W        W32605   7.226  11.818   4.883 -0.1290 -0.0839 -0.0736
17137W        W32606   1.717  12.925   2.133 -0.0656 -0.2536 -0.2182
17138W        W32607   3.977  11.559  11.117 -0.1387 -0.2621 -0.0502
17139W        W32608   7.170  17.517  11.183  0.1518  0.2606  0.3112
17140W        W32609  18.618  17.545  12.584  0.0019 -0.1353  0.2265
17141W        W32610   0.445  16.372   0.004  0.1890 -0.1679 -0.2744
17142W        W32611  15.262  13.898   4.124  0.1314 -0.0500 -0.0752
17143W        W32612   4.666  17.914   5.173  0.1235  0.0987  0.0198
17144W        W32613  17.586   9.546   1.287 -0.1535 -0.2465  0.0954
17145W        W32614   3.406  15.066   4.555  0.1998 -0.3327 -0.0856
17146W        W32615   2.035   9.656  10.552 -0.0761  0.0598 -0.4762
17147W        W32616  10.105  18.257   0.840  0.2229 -0.1848  0.1494
17148W        W32617  12.039   0.419  11.427  0.0827 -0.0977  0.1031
17149W        W32618  18.746   6.005  13.644  0.2673  0.0874  0.3811
17150W        W32619   4.313  11.014  11.151  0.2925  0.0459 -0.0047
17151W        W32620   0.219   6.695   2.968  0.0691  0.2228  0.4870
17152W        W32621  11.247  14.540   2.173  0.0083 -0.1803 -0.0588
17153W        W32622  16.625   3.530  10.840  0.0452 -0.0906  0.0771
17154W        W32623   1.703   7.055  11.541 -0.0972  0.2837 -0.2018
17155W        W32624   1.868  18.256  14.211  0.0747  0.0594 -0.2521
17156W        W32625  16.775   3.282   5.398 -0.1098 -0.2270 -0.3718
17157W        W32626   5.041   8.143  10.897  0.2107 -0.1460  0.1615
17158W        W32627  12.888  18.411   2.330  0.0285  0.0274  0.1788
17159W        W32628   0.250  16.822  10.873 -0.0068 -0.0347  0.0965
17160W        W32629  18.300   6.681  12.574  0.1081 -0.2586  0.3011
17161W        W32630   1.650   1.693  10.546 -0.1029 -0.0963  0.0018
17162W        W32631   3.191   8.651   0.725  0.1484 -0.1052 -0.2081
17163W        W32632  10.912   3.037  12.807  0.3829  0.2448 -0.0007
17164W        W32633   4.287  12.704  13.639 -0.0615  0.0440  0.1344
17165W        W32634  11.304   1.107   0.489  0.1758 -0.5100  0.4133
17166W        W32635  14.096   7.779  11.962 -0.0050 -0.0726 -0.1740
17167W        W32636   7.157  10.845  12.238  0.3061  0.1049  0.2611
17168W        W32637   3.360  14.504   5.891 -0.0144  0.0910 -0.1455
17169W        W32638   9.979   2.298   0.421  0.0888  0.4015 -0.2489
17170W        W32639  11.634  17.518   3.228  0.2635 -0.2785 -0.1418
17171W        W32640  18.333   0.821  12.766  0.1839 -0.0203  0.0408
17172W        W32641   8.835   7.490   1.333 -0.1888 -0.1829 -0.3687
17173W        W32642  10.928  17.966   3.514  0.1374  0.1497 -0.0534
17174W        W32643  17.913  11.866   2.503 -0.1644  0.0194  0.1424
17175W        W32644  18.483   0.971  12.097  0.0249 -0.1690  0.2461
17176W        W32645   3.813   1.570   0.504 -0.1141  0.1420  0.0784
17177W        W32646   0.499  18.803   1.335 -0.0890 -0.0209 -0.1496
17178W        W32647  16.289  18.620  10.656 -0.0728 -0.0045 -0.2065
17179W        W32648   1.079  10.056  10.856  0.0389 -0.2612  0.1489
17180W        W32649   1.481  14.884  13.829  0.1264  0.2755  0.1339
17181W        W32650  17.973   3.783   4.928  0.1247 -0.0786  0.5251
17182W        W32651  14.806   6.357   4.103  0.0504  0.1535  0.1752
17183W        W32652   7.044   1.416  11.619  0.2678 -0.3325 -0.1030
17184W        W32653  14.050  18.123   2.456 -0.1858  0.0849 -0.1928
17185W        W32654   7.298   0.565   2.039 -0.0146  0.4266  0.0797
17186W        W32655   9.938  17.263  13.386 -0.0848 -0.0240  0.0380
17187W        W32656   3.136   9.936  11.834 -0.3417  0.1811  0.0372
17188W        W32657   6.101  11.189  11.092  0.0140 -0.0253  0.0489
17189W        W32658  18.964  10.168   1.229  0.2177 -0.1821 -0.3123
17190W        W32659   9.060   1.964   4.704 -0.1432 -0.0309  0.1409
17191W        W32660   9.902   8.011  11.321 -0.1139  0.3633  0.2227
17192W        W32661   0.624   0.739  13.085 -0.0541  0.0871  0.1676
17193W        W32662   2.255   3.435   4.073 -0.3999 -0.1025  0.2236
17194W        W32663   1.166   7.398   0.664  0.2848 -0.0738 -0.4430
17195W        W32664   1.230   8.138   1.524  0.0342 -0.0325  0.3696
17196W        W32665  17.069  18.059   1.913  0.0443  0.2363 -0.1252
17197W        W32666  11.103  13.017   3.167  0.0064  0.1886  0.0007
17198W        W32667   9.501  12.366   0.928  0.1356 -0.3769  0.0705
17199W        W32668   8.196   1.026  12.382 -0.3350 -0.2505 -0.1555
17200W        W32669   5.443  18.278   1.911 -0.0022  0.0140 -0.1495
17201W        W32670   3.793   7.341  14.279  0.1158  0.1008  0.0735
17202W        W32671  16.749  12.555   2.845 -0.2526 -0.0740  0.3931
17203W        W32672   7.113   6.782  12.361 -0.2043  0.2325  0.0720
17204W        W32673  18.372  17.846  12.009 -0.1804 -0.2026 -0.3928
17205W        W32674  14.736   8.671  12.735  0.0750 -0.1081 -0.0398
17206W        W32675  18.377   3.209  12.691  0.0385 -0.0859  0.1649
17207W        W32676  17.783  10.569   1.511  0.0132 -0.1106 -0.4567
17208W        W32677   6.025   0.915   3.926 -0.0994  0.1767  0.0271
17209W        W32678   3.408   2.765  11.243 -0.0990  0.2236 -0.1714
17210W        W32679   8.902   3.390  13.550  0.0795 -0.1673  0.1309
17211W        W32680   7.098   6.962   2.868 -0.1724  0.2168  0.0479
17212W        W32681  18.895   3.857  10.725  0.1890 -0.1296  0.5374
17213W        W32682  18.134   3.528  12.400 -0.2573 -0.1108  0.1805
17214W        W32683  11.419   5.596   2.099  0.0539  0.3290  0.0058
17215W        W32684   2.820  17.777  10.724  0.1678  0.0378 -0.1698
17216W        W32685   6.022   2.079  11.149 -0.1152 -0.6244  0.3267
17217W        W32686  11.981   1.523  14.749  0.0007 -0.0126  0.3751
17218W        W32687   4.644  13.040  10.853 -0.2095 -0.2898  0.2170
17219W        W32688   7.043   7.275   1.440 -0.3096  0.2159  0.1482
17220W        W32689  13.291  12.951   2.913  0.1361 -0.1967 -0.0770
17221W        W32690  12.092  18.854  12.395 -0.1258  0.0230  0.5197
17222W        W32691  14.836   1.824  12.257  0.1233 -0.1170 -0.2720
17223W        W32692  14.605  18.398   1.344  0.0622  0.0736  0.1932
17224W        W32693   4.264   5.440   0.292 -0.3517  0.2440 -0.0281
17225W        W32694  10.111  19.007  13.802  0.0696  0.1381  0.0876
17226W        W32695  16.341  11.934  10.439  0.1147 -0.4233 -0.3461
17227W        W32696   8.905   8.471   0.311 -0.1551  0.0643 -0.0293
17228W        W32697   4.110   4.019  15.128 -0.2616 -0.0882 -0.2896
17229W        W32698   1.053  10.394  14.717  0.0528  0.0956  0.1710
17230W        W32699  12.228  13.445   2.530 -0.2168 -0.1732  0.0606
17231W        W32700  15.040  14.331   5.146  0.1835 -0.0852  0.1921
17232W        W32701   8.027   0.523  11.299  0.0564 -0.1132  0.2562
17233W        W32702  10.295  17.992  10.992  0.2069  0.3196 -0.3207
17234W        W32703  10.120  15.908   4.737  0.0722 -0.0351  0.0496
17235W        W32704   8.777   6.638   0.185 -0.2433 -0.0368 -0.0926
17236W        W32705   4.793   3.808  13.572  0.0693  0.5398 -0.0572
17237W        W32706  11.510  18.090  13.081 -0.0196  0.0618  0.3397
17238W        W32707  13.415   0.452  11.361 -0.1380  0.0803 -0.0958
17239W        W32708  18.664   9.738   3.063 -0.1480 -0.2405  0.1003
17240W        W32709  10.994   4.705  13.129  0.0467  0.2138 -0.1068
17241W        W32710   9.850   2.766   5.118  0.0074 -0.3714 -0.0820
17242W        W32711  17.800  14.640   3.331  0.0813 -0.4067  0.0787
17243W        W32712   0.394  11.801   3.040  0.1019  0.2403  0.1567
17244W        W32713   7.230   9.979  13.050 -0.1706 -0.2552  0.0269
17245W        W32714  11.514  14.803   5.476 -0.1328  0.0384  0.3688
17246W        W32715  15.181   2.733  13.356  0.2234  0.1353  0.2062
17247W        W32716   7.657  14.444  13.669  0.1613 -0.1095 -0.0755
17248W        W32717   4.839  15.677   3.902 -0.0051  0.1373  0.0149
17249W        W32718   3.073  13.310   0.054 -0.1005  0.1780  0.2244
17250W        W32719   5.905  14.935   2.811  0.3045  0.0134  0.2266
17251W        W32720   9.026  16.610  12.204  0.1889  0.2474  0.4351
17252W        W32721   6.448  10.705  11.222  0.1314 -0.1256  0.1280
17253W        W32722   3.476  13.163   5.227  0.1467  0.3161  0.1448
17254W        W32723   4.850  14.815  12.447  0.1245 -0.0155  0.2523
17255W        W32724  13.294   0.976  12.003 -0.0708  0.0326  0.1507
17256W        W32725   6.038   1.157   2.471 -0.2888 -0.1201  0.0069
17257W        W32726   4.368   3.887  13.848  0.0696 -0.0173 -0.1241
17258W        W32727   9.480  12.145   3.411 -0.1997 -0.0018  0.0073
17259W        W32728   0.023   6.024  11.723  0.1250  0.2408  0.0093
17260W        W32729  16.413   8.617  14.687 -0.2056 -0.2575 -0.2190
17261W        W32730  12.678   8.908  12.959  0.1925  0.0300 -0.4887
17262W        W32731   8.681   7.778   2.752  0.4630 -0.1095 -0.2454
17263W        W32732   8.053  13.650  11.159 -0.2301  0.3094 -0.0577
17264W        W32733  16.021   2.282   1.909  0.0377 -0.0406 -0.0162
17265W        W32734  16.364  11.744   1.612 -0.2895  0.1890 -0.2403
17266W        W32735   8.293   3.221  15.365  0.0915  0.1635 -0.1251
17267W        W32736  13.844   6.721   5.285 -0.3607 -0.1038 -0.2054
17268W        W32737   8.365   5.687   3.613 -0.2189 -0.3456 -0.1131
17269W        W32738   5.375  10.619  12.302  0.4074  0.0414  0.3421
17270W        W32739  11.904  17.029   0.349 -0.1652  0.1275  0.1011
17271W        W32740   1.820   9.522   1.032  0.0212  0.2279 -0.2250
17272W        W32741   8.812  11.485  11.034  0.2517  0.1995 -0.2889
17273W        W32742   4.703  18.399  14.848  0.2615  0.2383 -0.0564
17274W        W32743  13.197   2.801   3.397 -0.1758  0.1577  0.0902
17275W        W32744  16.409   4.892   2.296  0.0006  0.0982  0.2537
17276W        W32745  15.260   6.081   3.884 -0.2333  0.0498 -0.2436
17277W        W32746  11.198  17.191  12.554  0.1656  0.0068  0.0034
17278W        W32747  16.188  13.126   0.001  0.2650 -0.0050  0.0251
17279W        W32748  17.095   0.459   1.676  0.1219 -0.2254  0.1161
17280W        W32749  17.962   7.139   2.008 -0.0980  0.0898 -0.2279
17281W        W32750   2.914   8.428   0.347 -0.2686  0.0481 -0.0123
17282W        W32751  11.189  16.707   1.574 -0.2676  0.0850  0.0941
17283W        W32752  17.864  11.843   5.668  0.1767 -0.1971  0.0216
17284W        W32753  10.023  18.932   9.970  0.0295 -0.4102  0.0101
17285W        W32754   9.501   0.638  12.741  0.2099  0.0013 -0.3721
17286W        W32755   9.853  11.873  13.332 -0.2356  0.3628  0.2303
17287W        W32756   2.815   8.847  12.742  0.2474  0.2207  0.1911
17288W        W32757  17.578   1.039   1.820  0.0759 -0.4697 -0.3320
17289W        W32758   0.771   4.618   1.901 -0.0314 -0.2456  0.2178
17290W        W32759  15.344   9.857   4.396  0.1326 -0.2387  0.1185
17291W        W32760   6.664   2.910   4.148 -0.1537  0.0962  0.3278
17292W        W32761   0.663  10.397   2.937  0.0683 -0.0558 -0.3209
17293W        W32762  13.744   1.041  13.344 -0.4608 -0.5018 -0.2186
17294W        W32763   3.025  11.516   0.970  0.4296 -0.0889  0.3235
17295W        W32764   2.020  14.286  12.664 -0.0143 -0.0156 -0.0545
17296W        W32765  12.920  10.455  15.179  0.2407 -0.4746 -0.2152
17297W        W32766  15.279  14.843   5.042 -0.1870  0.2725 -0.2535
17298W        W32767  10.735  14.757   3.750 -0.0504 -0.3146 -0.4183
17299W        W32768   0.531   7.718  12.041 -0.0052 -0.3338  0.1642
17300W        W32769   5.508  10.450   1.336  0.0819  0.3624  0.0692
17301W        W32770   3.655  17.258   9.666 -0.2070 -0.1960 -0.0352
17302W        W32771   9.151  12.401  14.224  0.3210 -0.3144  0.0106
17303W        W32772   7.202   3.502  11.195 -0.2224 -0.1005  0.2276
17304W        W32773   7.771   3.112   0.717 -0.1837  0.1412 -0.2501
17305W        W32774   7.038   1.901   6.198  0.3291  0.1114  0.0201
17306W        W32775  17.623   2.949   4.788  0.3389 -0.1307 -0.2525
17307W        W32776   8.009  10.876   2.212  0.2301 -0.2249 -0.1276
17308W        W32777   8.090   8.735  11.664 -0.0800  0.0939 -0.0809
17309W        W32778  13.271  13.635  12.108  0.0326  0.4420 -0.2418
17310W        W32779  10.385   7.221  15.278  0.0941  0.0310  0.3420
17311W        W32780   8.352  10.611   5.612  0.2092  0.1273  0.0695
17312W        W32781  10.958   5.230   0.639 -0.0548  0.1254 -0.0070
17313W        W32782   6.096  13.665   3.862 -0.0446 -0.3227 -0.1710
17314W        W32783  17.402   4.798   3.555 -0.0284 -0.0173 -0.0860
17315W        W32784  16.248   9.955   0.049  0.1290 -0.0997 -0.1013
17316W        W32785   7.886  12.952  14.625  0.1498  0.0040  0.3997
17317W        W32786   8.096   2.276   5.511 -0.1073 -0.1388 -0.1417
17318W        W32787   1.124  16.140   0.824 -0.1334  0.0682 -0.0377
17319W        W32788  11.214   1.027   1.910  0.0108 -0.0975 -0.2328
17320W        W32789   4.430   8.139  15.222 -0.0510 -0.0375  0.0994
17321W        W32790   9.378  16.422   3.371  0.1263 -0.1278  0.0976
17322W        W32791   9.419  12.124   1.439  0.1683 -0.0902 -0.1373
17323W        W32792   4.950   6.285  14.187  0.1058  0.0074  0.0312
17324W        W32793   8.154  10.108   6.233  0.3276 -0.0467  0.2210
17325W        W32794  13.147   7.998  11.972  0.3474 -0.0312  0.1856
17326W        W32795  18.684  15.369  11.203  0.2903 -0.2060 -0.0348
17327W        W32796  18.484  14.895  15.139 -0.0232  0.1501  0.2424
17328W        W32797  17.377   3.708  13.814 -0.2045  0.1451  0.0572
17329W        W32798   2.891   3.040   1.209 -0.0234  0.2403  0.0492
17330W        W32799   3.014  12.801  15.158  0.3180  0.0046 -0.2455
17331W        W32800   1.808  13.896  10.305  0.2287 -0.3100 -0.1146
17332W        W32801   9.614  11.196  11.981 -0.3673 -0.2376 -0.2440
17333W        W32802   8.060   6.035  10.646 -0.0599  0.4096 -0.3166
17334W        W32803  16.423  11.204  11.373  0.0863  0.3548 -0.0696
17335W        W32804   5.381   6.110   9.576 -0.0222 -0.0458  0.1374
17336W        W32805  14.345  15.764   3.049  0.1315  0.1181 -0.4075
17337W        W32806  16.281   8.062  14.840 -0.0653 -0.2717 -0.1226
17338W        W32807  12.757  16.526  12.440 -0.2916  0.0288 -0.2280
17339W        W32808  12.032   0.482   3.324 -0.4008 -0.2208 -0.0636
17340W        W32809   3.535  18.867  10.907 -0.1607  0.4408 -0.0434
17341W        W32810  14.696   4.532   2.907  0.0268 -0.0719  0.0710
17342W        W32811  10.601  18.978   4.889 -0.3086 -0.0531 -0.1523
17343W        W32812   3.460   4.253   0.452  0.2387 -0.0803 -0.1793
17344W        W32813  15.026  16.375  12.660 -0.2467 -0.4310 -0.3177
17345W        W32814  14.464  18.866   0.337 -0.0429 -0.0073  0.1163
17346W        W32815  11.223  11.318  12.867 -0.0420 -0.0834  0.0620
17347W        W32816  13.766  14.007  10.971  0.2331  0.2174  0.0009
17348W        W32817  16.330  10.601  10.571 -0.0313  0.1770 -0.0189
17349W        W32818  12.317   5.909   9.338  0.0884 -0.0831  0.2614
17350W        W32819   1.661  11.176  14.150 -0.0016 -0.0463  0.2830
17351W        W32820  12.451  16.956   1.821 -0.0300  0.0063  0.3931
17352W        W32821   6.191   0.253   2.860  0.2805  0.0423 -0.2547
17353W        W32822   6.328  14.794  13.672 -0.2127 -0.0666 -0.0461
17354W        W32823   7.299   5.057   0.867  0.1239  0.0799 -0.1220
17355W        W32824  16.932   6.233   0.841 -0.0648  0.2066 -0.2168
17356W        W32825  13.940  10.805   2.352  0.1351 -0.0661 -0.2854
17357W        W32826  10.518  11.496   0.155  0.2415  0.0629  0.2241
17358W        W32827  13.842  15.339  13.229  0.1549 -0.0943  0.0362
17359W        W32828  16.576  13.647   4.215  0.0972 -0.1915 -0.0271
17360W        W32829  16.133  13.190  12.643  0.0623 -0.0559 -0.0611
17361W        W32830  12.525  12.083   3.930 -0.0043 -0.0766 -0.1262
17362W        W32831  17.125  15.977  13.218 -0.0865  0.2739 -0.0637
17363W        W32832  11.240   8.748   3.006 -0.0402 -0.0540  0.2431
17364W        W32833  13.002  14.979   2.317 -0.0627  0.2352 -0.1159
17365W        W32834   4.908   5.857   0.822 -0.2470 -0.0080  0.0318
17366W        W32835   4.320   1.070  11.378  0.2130 -0.3269 -0.1531
17367W        W32836  15.881  17.641   1.286 -0.1118  0.3083  0.0879
17368W        W32837  11.410   0.415   0.303 -0.0984  0.1241 -0.0696
17369W        W32838  17.935   4.584   0.884 -0.1019 -0.2116  0.2693
17370W        W32839   1.582  17.070   0.302 -0.1782 -0.1987  0.0096
17371W        W32840   7.720  18.928   5.325  0.2869 -0.0736 -0.0527
17372W        W32841  18.175   1.505  13.987  0.3597  0.0831  0.1390
17373W        W32842  18.277   5.201   1.983  0.0750  0.0890  0.1759
17374W        W32843   3.415   5.237  12.138 -0.1936 -0.0919  0.1480
17375W        W32844  16.911  14.107   3.273  0.0583 -0.1007 -0.0097
17376W        W32845   4.467   6.542   4.029 -0.1259  0.1581 -0.1039
17377W        W32846  15.599   9.470  14.997  0.2817  0.0457 -0.0785
17378W        W32847   5.016  17.436   5.023  0.1115  0.1248 -0.4200
17379W        W32848   2.637  11.634  10.723  0.0413 -0.0040  0.2020
17380W        W32849   7.990  11.466  12.283 -0.1720 -0.4131 -0.0376
17381W        W32850   5.061   0.459  11.220 -0.0085 -0.0910 -0.0505
17382W        W32851  16.982  18.721   4.418 -0.0321 -0.0793 -0.1330
17383W        W32852  13.452  11.672  12.733  0.3529 -0.2140 -0.0077
17384W        W32853  15.403   8.392   3.016 -0.1486 -0.1850 -0.4674
17385W        W32854  16.943  15.820  14.556 -0.2152  0.2508 -0.3379
17386W        W32855   9.230   6.648   1.041 -0.1621  0.0504 -0.0515
17387W        W32856  18.807   3.204   0.860 -0.1587 -0.1357  0.3089
17388W        W32857  11.363  12.596   1.478 -0.0871 -0.1369 -0.2416
17389W        W32858   8.058   7.793   5.546  0.3334  0.0118 -0.0360
17390W        W32859   6.592   5.451  14.150 -0.2428 -0.0099 -0.0539
17391W        W32860   4.299  14.528   4.170  0.0265 -0.1913 -0.2561
17392W        W32861   3.380  13.320  11.541 -0.0344 -0.0502 -0.0368
17393W        W32862  13.545   3.007   2.461  0.1112  0.0153 -0.1881
17394W        W32863  11.777   4.688   3.968 -0.7083  0.0854 -0.0713
17395W        W32864   2.959   9.765   0.261 -0.0896  0.0295  0.1655
17396W        W32865  14.992  15.237   1.613 -0.0676  0.4952 -0.1140
17397W        W32866   7.870   9.990   0.562  0.0106  0.2282  0.1835
17398W        W32867   5.505  12.233   0.958 -0.0970  0.5674 -0.2166
17399W        W32868  15.291  14.052  12.987  0.0688  0.1181  0.0504
17400W        W32869  12.581  14.078   0.788 -0.0781 -0.0769 -0.0539
17401W        W32870   4.563  15.602   0.930 -0.4356 -0.0372  0.1559
17402W        W32871  13.339   6.905  10.969 -0.2242 -0.0256 -0.2568
17403W        W32872  15.363   9.020   9.790  0.1404  0.0461 -0.1846
17404W        W32873  18.961   7.053   1.193  0.1245  0.0425 -0.0561
17405W        W32874  11.984   5.551  14.432 -0.1469  0.1525 -0.2362
17406W        W32875  11.211   5.006   2.437 -0.1399 -0.2499  0.2580
17407W        W32876   4.917  13.438  13.392 -0.1022  0.1521 -0.3327
17408W        W32877  15.113   5.922  11.928  0.2703  0.1906 -0.1914
17409W        W32878  18.468   6.183  13.224 -0.1357 -0.1455  0.1827
17410W        W32879   6.533   1.085   4.262  0.0810 -0.3786  0.3811
17411W        W32880  14.385   9.670  14.295  0.2070 -0.3737  0.1848
17412W        W32881   8.109  15.817   3.359  0.1033  0.2377  0.2879
17413W        W32882  11.740   5.101  13.581 -0.1453  0.1915 -0.1617
17414W        W32883   6.356   2.112   1.458  0.1154  0.0953  0.2610
17415W        W32884   0.928   7.045  12.892  0.0666 -0.0304  0.0325
17416W        W32885  17.397   2.411   3.940 -0.1120  0.0703  0.0432
17417W        W32886  13.162  10.561   4.893  0.2699  0.0212  0.0218
17418W        W32887   7.447   5.502   1.719  0.2799 -0.1142  0.1492
17419W        W32888   4.341   6.577  11.475 -0.0408  0.0391  0.0426
17420W        W32889   6.664  10.314  11.416 -0.0077  0.0087  0.2737
17421W        W32890  16.854   0.909   2.491 -0.3275  0.1751  0.3112
17422W        W32891   1.240   1.588   1.848  0.0943 -0.0160  0.0729
17423W        W32892   2.528   6.898   1.968  0.0149 -0.1951 -0.2161
17424W        W32893   2.243   7.695   4.081 -0.4224 -0.2012 -0.4157
17425W        W32894   0.822   5.521   2.067 -0.3134 -0.0378  0.2055
17426W        W32895   1.765   1.258   2.959 -0.1360 -0.3469 -0.3637
17427W        W32896  10.113  17.704   0.623  0.1613  0.1222 -0.0166
17428W        W32897  17.333   0.409  12.647 -0.0051  0.1697  0.0351
17429W        W32898   7.355   3.867  11.663  0.0931 -0.1580  0.1748
17430W        W32899  13.778  17.982   2.137 -0.1912 -0.0053  0.0071
17431W        W32900   9.850  17.645   1.783 -0.2748  0.0297  0.3386
17432W        W32901  15.798   1.658   2.103  0.2421  0.1513  0.3919
17433W        W32902   1.369  15.952  13.133  0.1219 -0.3844  0.0345
17434W        W32903   1.873  13.236  12.599  0.3901  0.3642  0.1977
17435W        W32904   4.019  16.973   4.417  0.1875  0.0328  0.0749
17436W        W32905   6.297  15.899   2.833 -0.0906 -0.0583 -0.0052
17437W        W32906   6.544   8.741   4.297  0.0370 -0.0287 -0.5212
17438W        W32907   5.611  16.913   0.505 -0.1144  0.3045 -0.0319
17439W        W32908  18.679  17.450  14.152  0.1777  0.1922  0.1896
17440W        W32909  11.322   2.932  10.337 -0.1553  0.1512  0.2541
17441W        W32910   5.955   5.069  12.023  0.0278 -0.3867  0.0125
17442W        W32911  17.008   6.093   3.888  0.1674 -0.3284  0.1447
17443W        W32912   1.944   5.804  14.074 -0.0342 -0.2891  0.4014
17444W        W32913   1.751  10.053   4.533  0.5947 -0.4525 -0.1687
17445W        W32914  18.757   2.044  10.009  0.0339 -0.1084  0.0508
17446W        W32915  13.220   3.224   2.747 -0.0021  0.1001 -0.4814
17447W        W32916  17.484   6.844  14.329 -0.1288 -0.0330  0.0050
17448W        W32917  10.592  17.416   5.281  0.1452  0.1275  0.0220
17449W        W32918  15.794   1.107  11.316  0.0666 -0.0048 -0.0795
17450W        W32919   5.227   3.867   4.962  0.5530 -0.4204 -0.2356
17451W        W32920  14.530   5.810   0.493  0.1140 -0.0778 -0.1773
17452W        W32921  18.777  14.482  13.897 -0.0382 -0.5893 -0.0987
17453W        W32922  14.113   0.987  13.038 -0.0865 -0.0434 -0.3759
17454W        W32923  15.579   2.432   3.125  0.0330  0.1028  0.0434
17455W        W32924  15.740  12.987  10.521 -0.2654  0.1104 -0.0660
17456W        W32925   2.156  18.552   4.447  0.2375  0.2255 -0.2328
17457W        W32926  11.303   5.053  12.145  0.1351 -0.0121 -0.0147
17458W        W32927  18.885  17.720   1.424 -0.1007  0.0006 -0.0517
17459W        W32928   7.559   8.761  14.926  0.0623  0.0527  0.0957
17460W        W32929  16.839   6.823  11.468  0.0167  0.1799 -0.2872
17461W        W32930  13.400   5.861   3.194  0.3397  0.0222  0.3994
17462W        W32931  10.342  10.578  13.259 -0.0449  0.1731  0.2505
17463W        W32932   9.835   1.329   3.341 -0.1333  0.2330 -0.0283
17464W        W32933   6.853   4.150   4.232 -0.1779  0.0842 -0.0745
17465W        W32934   6.876   3.795   0.173  0.2213 -0.2833  0.0020
17466W        W32935   0.971  16.975   4.497 -0.0426  0.0098  0.0227
17467W        W32936   3.526   8.286  14.663 -0.1319  0.2389 -0.2466
17468W        W32937   8.394   1.483  13.901 -0.1354 -0.0361 -0.1548
17469W        W32938   0.589   2.213  12.694  0.1200  0.0018  0.0118
17470W        W32939  13.346   0.148   5.141 -0.2103  0.4132  0.1419
17471W        W32940   3.439  17.580  13.967 -0.0857 -0.0762  0.0653
17472W        W32941   5.122   0.389  15.135 -0.4491  0.1069  0.3521
17473W        W32942  11.055  14.495  11.191 -0.0588 -0.3876 -0.0983
17474W        W32943   5.466   3.804   0.506 -0.0253 -0.0774  0.0948
17475W        W32944  17.537   3.692   5.638  0.2642  0.3010 -0.2819
17476W        W32945   6.525   0.509  10.493 -0.4510  0.0176  0.0623
17477W        W32946  18.992  11.582   4.337  0.0718 -0.0904  0.6175
17478W        W32947  15.717   7.223   3.233  0.1296 -0.0916  0.1742
17479W        W32948  13.976  16.362  11.875 -0.2047 -0.1249 -0.2155
17480W        W32949   2.536  12.765  10.818  0.1297 -0.0702 -0.2503
17481W        W32950   3.307  18.786   1.226 -0.0063 -0.5229 -0.2258
17482W        W32951   3.021  12.501  10.784  0.1315 -0.0155 -0.1837
17483W        W32952   9.052   7.085  12.878 -0.2488  0.2086 -0.0784
17484W        W32953   2.626   4.492   2.333 -0.1358  0.1896 -0.0025
17485W        W32954   1.693   0.802  10.757  0.2308  0.1106  0.1472
17486W        W32955  10.868   4.722   0.720  0.2384  0.2505  0.0547
17487W        W32956  18.319  16.460  13.263  0.1781  0.4971 -0.2593
17488W        W32957  15.999  10.829   4.953  0.0869 -0.0211 -0.1565
17489W        W32958  17.182  18.238   3.692  0.1268 -0.5846 -0.0270
17490W        W32959  16.619   0.209   0.365  0.3047  0.0378  0.1490
17491W        W32960   7.436  10.240   1.702  0.0414  0.3181 -0.3188
17492W        W32961   3.928  13.007   3.554  0.1146 -0.3776  0.2051
17493W        W32962  18.041   6.464  10.803  0.2858  0.1010  0.2314
17494W        W32963   4.507   8.321  10.938  0.0859 -0.1296  0.0689
17495W        W32964  17.223   6.831   4.638 -0.1751  0.2789  0.2092
17496W        W32965  11.319  10.093   2.963 -0.7172  0.2005  0.1689
17497W        W32966   5.276   3.485  12.514 -0.0159 -0.0529  0.0619
17498W        W32967   4.645  10.794   2.965  0.0817  0.1763  0.3522
17499W        W32968  15.221  15.544   1.274 -0.2046 -0.0833 -0.0506
17500W        W32969   3.264   3.121   2.205  0.0078 -0.2657  0.2383
17501W        W32970   9.380   1.686  13.733 -0.1111 -0.2525 -0.1803
17502W        W32971  15.624  15.303  10.220 -0.0298 -0.3390  0.0892
17503W        W32972  10.212  13.562  11.820  0.0445  0.0247  0.4108
17504W        W32973   4.454   3.730   4.437  0.0395 -0.2026  0.0884
17505W        W32974   9.404  14.044   4.502  0.0378 -0.0126  0.2509
17506W        W32975  12.499  10.112   4.393  0.1147 -0.1010  0.3357
17507W        W32976   3.314  14.705  13.426  0.0887  0.1016  0.0870
17508W        W32977   6.583   5.087  13.661  0.0146  0.2333 -0.1858
17509W        W32978  13.826   7.697  12.412 -0.2744 -0.1221  0.0654
17510W        W32979   6.181  13.178   3.926 -0.0555  0.0503 -0.0647
17511W        W32980   5.121  11.958  10.408  0.0176  0.1994  0.1723
17512W        W32981  16.400  12.341   9.994  0.0495 -0.0632  0.1653
17513W        W32982   7.544   3.843  11.179 -0.1207  0.0083  0.1526
17514W        W32983   2.648   7.990  12.023 -0.5404  0.0446 -0.2887
17515W        W32984   4.995   8.129   3.369  0.2628  0.1047 -0.0769
17516W        W32985  17.885  16.095   4.893  0.1015  0.0730  0.1302
17517W        W32986   0.695   4.746   3.121  0.4499 -0.0818 -0.3245
17518W        W32987   1.389   7.003   0.441 -0.1177 -0.0388  0.2597
17519W        W32988   8.586  15.596  12.641  0.4465 -0.0909  0.2201
17520W        W32989   2.846   1.892  14.143 -0.2090  0.0982 -0.4417
17521W        W32990  17.028   3.627  12.415 -0.0344 -0.1431 -0.2286
17522W        W32991  10.117   5.869  14.159 -0.2683 -0.0163 -0.1227
17523W        W32992   7.360  15.901   3.627  0.0564  0.0171 -0.1192
17524W        W32993  10.433   1.413   1.707  0.0069  0.1060 -0.0971
17525W        W32994  16.720  12.467   5.340 -0.2702  0.0008  0.1429
17526W        W32995  15.193   6.140  12.415 -0.1784  0.1373 -0.0224
17527W        W32996   5.644  17.931  12.434  0.1631  0.2181 -0.1658
17528W        W32997  13.600  11.753  15.225  0.1597 -0.1476  0.0574
17529W        W32998  13.423  14.156   2.299  0.1879 -0.1608  0.2659
17530W        W32999   0.105   5.886  14.065  0.0555 -0.0353  0.3749
17531W        W33000  16.887  11.536   1.522  0.0274  0.0665 -0.2786
17532W        W33001   5.289   9.861  11.801 -0.1193  0.3231  0.0359
17533W        W33002   8.670  12.342  10.877 -0.4317  0.1478 -0.1010
17534W        W33003  10.274   1.199   5.967  0.1149  0.1232 -0.2886
17535W        W33004   2.753   0.565   4.244 -0.0643  0.0719 -0.0859
17536W        W33005  14.945   6.643  14.618  0.2339 -0.2130  0.1524
17537W        W33006  10.025  10.594   3.984  0.0512  0.0887  0.4873
17538W        W33007  13.298   3.414  12.862  0.1090  0.2543  0.1076
17539W        W33008  12.537  12.118   3.374  0.0824 -0.1270  0.2066
17540W        W33009   2.669  15.882  14.093 -0.1968 -0.1543  0.2396
17541W        W33010  17.759   2.044  12.213 -0.1258  0.2983 -0.0234
17542W        W33011   6.985  11.084   0.074 -0.1314  0.1367 -0.1302
17543W        W33012  16.450   6.905  12.309  0.1810  0.2433  0.0887
17544W        W33013   4.443   7.683  14.256  0.3539  0.1800  0.3700
17545W        W33014   4.382  18.709  10.849 -0.0530 -0.0492 -0.3012
17546W        W33015  16.499  13.423   3.681  0.0488 -0.0368 -0.1917
17547W        W33016   9.541   2.642   0.099 -0.0030  0.0678 -0.1656
17548W        W33017   4.855   0.509   5.192  0.3516  0.0428 -0.0768
17549W        W33018   6.373  14.910  11.638  0.1770  0.1736 -0.0671
17550W        W33019   2.220   8.027  13.611  0.2863  0.1979  0.0235
17551W        W33020  16.411  10.781  13.837 -0.0555 -0.0113 -0.0430
17552W        W33021   9.732  12.455   2.196 -0.0455 -0.0145 -0.0973
17553W        W33022   5.895   8.605   1.473 -0.0419  0.0645  0.0098
17554W        W33023   7.518  16.296   1.168 -0.0504 -0.1504  0.2945
17555W        W33024   8.270   4.802   5.108 -0.1415  0.0188 -0.3239
17556W        W33025   9.251  10.791   4.631  0.1456 -0.2103 -0.2563
17557W        W33026  17.191  13.081  13.342  0.0869  0.3897 -0.0189
17558W        W33027  16.397  10.947  14.793 -0.0092 -0.1840 -0.2128
17559W        W33028  10.881  14.910  12.717  0.0639 -0.1606  0.3278
17560W        W33029   8.229   4.223   0.308  0.2885  0.3342 -0.0772
17561W        W33030   9.822  15.273   2.722 -0.3490  0.3705  0.0029
17562W        W33031   2.051   2.663   2.049 -0.0177  0.4116 -0.2369
17563W        W33032  16.311  12.058   9.593  0.1993  0.0759  0.0320
17564W        W33033   9.481   3.588   2.964  0.1931 -0.0489  0.2927
17565W        W33034  16.322  14.160  15.365  0.1627 -0.1511  0.3045
17566W        W33035   0.054   5.035   0.914 -0.5070  0.2037 -0.0963
17567W        W33036   3.559  16.592   5.317 -0.1383  0.3648 -0.1390
17568W        W33037   2.430  15.966   2.754  0.0130 -0.1365  0.2190
17569W        W33038   1.336  13.401  14.638  0.0673 -0.1232  0.2167
17570W        W33039  10.048  18.145  15.026 -0.0081 -0.1468  0.1445
17571W        W33040   3.664  10.490  13.069 -0.1660  0.2495 -0.0604
17572W        W33041   6.475  17.299   1.623 -0.0367 -0.1650 -0.0907
17573W        W33042   8.366  17.211  10.416 -0.0270 -0.1208 -0.4307
17574W        W33043  12.269   1.933   3.051 -0.1633  0.3001  0.0374
17575W        W33044   5.275   6.281  14.576 -0.4702 -0.0064 -0.0681
17576W        W33045   6.870   4.857   2.017 -0.1268 -0.1336  0.1162
17577W        W33046   6.263   7.184  15.231 -0.3745 -0.0884 -0.2783
17578W        W33047   3.119   9.079  14.646  0.1400 -0.2234  0.1288
17579W        W33048  16.681   0.676   3.304  0.2739  0.0924 -0.0269
17580W        W33049   9.011   8.160  14.963  0.3786  0.0160  0.1138
17581W        W33050  10.497   7.214  14.661  0.1187  0.0402 -0.4550
17582W        W33051  18.792   9.887  14.329 -0.0907  0.1235 -0.0779
17583W        W33052  19.004   7.207  11.550 -0.2166 -0.1422 -0.0186
17584W        W33053   8.686   1.372   1.724  0.3561 -0.2615 -0.2248
17585W        W33054  12.906  11.437  11.218  0.0486 -0.0877  0.2624
17586W        W33055  18.109  13.879  13.517 -0.1129  0.1065 -0.0737
17587W        W33056   1.308  16.931  14.865 -0.4207  0.3139  0.1910
17588W        W33057   6.083   3.825  13.870  0.0436 -0.0029 -0.0394
17589W        W33058  13.144   8.722   2.331 -0.1413 -0.1685  0.1690
17590W        W33059  18.847  15.112   3.898  0.2453  0.2047  0.1012
17591W        W33060   3.519   6.453   0.859  0.0754 -0.3501  0.0315
17592W        W33061  17.107   1.232  14.715 -0.0103 -0.1491  0.1822
17593W        W33062   5.983  16.879   4.830  0.1045  0.5609 -0.2974
17594W        W33063  13.620   0.420  14.330 -0.0581 -0.0123 -0.0632
17595W        W33064  18.034  11.603  13.054  0.1303 -0.0034  0.4400
17596W        W33065   1.632  13.444  12.113  0.1783  0.1438 -0.2219
17597W        W33066   3.036   0.785   0.587 -0.0722  0.2640  0.1730
17598W        W33067   5.256  11.248  13.759 -0.0015 -0.1932  0.1630
17599W        W33068  17.852  14.155   5.271  0.1956 -0.0515 -0.0593
17600W        W33069   5.990  11.633   4.670  0.0444 -0.2016 -0.2008
17601W        W33070  12.687   5.143  10.618  0.0259 -0.0220 -0.0739
17602W        W33071  10.516  12.879  13.336 -0.0359  0.0530  0.1791
17603W        W33072   0.181  14.845  12.292 -0.0022 -0.0899  0.0974
17604W        W33073  14.713   4.226   5.166  0.1300 -0.0962  0.1626
17605W        W33074  14.216   5.703   0.145  0.2002 -0.1393  0.1850
17606W        W33075   9.827   3.076  13.185 -0.0754 -0.0708 -0.1527
17607W        W33076   8.553   5.290   3.381  0.0463 -0.0339  0.0540
17608W        W33077  18.502   1.770  13.442 -0.5489 -0.1794  0.2128
17609W        W33078   6.301  13.684   2.647 -0.2703  0.0616 -0.0685
17610W        W33079   0.351  18.804   0.230  0.0893 -0.0912  0.2333
17611W        W33080   8.344   9.123  13.055 -0.1843  0.2907  0.0724
17612W        W33081   4.931  13.983   1.457 -0.2184 -0.4556  0.1527
17613W        W33082   9.368   9.176   2.792  0.2529 -0.1714  0.0577
17614W        W33083  17.702  14.753   2.808  0.1522  0.2629  0.0219
17615W        W33084   2.831  10.833  14.572  0.2898  0.0512 -0.1024
17616W        W33085  17.246   5.597   4.997 -0.0323  0.1175  0.2359
17617W        W33086  10.210   3.621   5.420 -0.2975  0.1665  0.3922
17618W        W33087   2.398   1.853   2.849  0.1709  0.0276 -0.2974
17619W        W33088  12.735   5.651   4.169  0.2021  0.0817 -0.1624
17620W        W33089  17.029   8.375   1.538 -0.1836 -0.3690 -0.1914
17621W        W33090  18.971   0.816   1.749 -0.0259 -0.1986  0.1325
17622W        W33091  13.890   8.282  13.612 -0.2912  0.1432  0.1335
17623W        W33092   9.400  12.708   4.714  0.0399  0.1117  0.2004
17624W        W33093  11.467  12.477   2.084  0.1854  0.1882 -0.1514
17625W        W33094   0.900   2.643  12.731  0.2603 -0.0339  0.1469
17626W        W33095   3.898   4.356   4.822 -0.1447  0.1871  0.1419
17627W        W33096   2.194   5.529  11.292 -0.1276 -0.1573 -0.2194
17628W        W33097   9.255  11.594   1.549  0.1871 -0.1493  0.0431
17629W        W33098  16.043  16.843  12.139 -0.2032  0.1239 -0.1942
17630W        W33099  10.625  17.233  14.698 -0.1041  0.1084 -0.1087
17631W        W33100   8.137   5.894   1.260 -0.0159 -0.0408 -0.0228
17632W        W33101   6.265   7.410   2.242  0.1714  0.0382 -0.1381
17633W        W33102   2.657   3.915   5.191  0.1411 -0.3562  0.1160
17634W        W33103  17.863  17.770  13.112  0.1256 -0.4554 -0.3162
17635W        W33104   2.288   4.707  15.120  0.3096 -0.1933 -0.1212
17636W        W33105   7.233  13.928   4.453  0.1139  0.1651  0.1309
17637W        W33106  13.338   4.519   3.532 -0.0463  0.1765 -0.2824
17638W        W33107  15.617   7.252   2.378 -0.1199  0.2202  0.1099
17639W        W33108  18.148  16.777   2.396 -0.3182 -0.1431  0.2767
17640W        W33109  18.670  14.013  11.107  0.0414 -0.0265 -0.0861
17641W        W33110  14.605  10.269  14.241  0.2376  0.1475 -0.3045
17642W        W33111   5.619   3.804  14.808 -0.1536  0.1648  0.0251
17643W        W33112   2.296   4.424  11.951  0.3968  0.0660  0.1481
17644W        W33113   0.558   8.526   1.434 -0.0966 -0.1368 -0.2050
17645W        W33114   6.862   0.330  11.693  0.0909 -0.1986 -0.0480
17646W        W33115   4.846   4.889   1.022 -0.0163  0.1848  0.1991
17647W        W33116   5.551   8.581   3.838 -0.0566 -0.0251 -0.2211
17648W        W33117  15.869   7.591  11.579  0.1144  0.1018 -0.2934
17649W        W33118  10.641   1.953   4.126  0.0729  0.1702  0.0062
17650W        W33119  15.711   1.754   1.190  0.0695  0.2487  0.1261
17651W        W33120   3.900  16.097   2.189 -0.1978 -0.3311  0.0740
17652W        W33121   7.501  16.026   5.894 -0.0486 -0.1568  0.0664
17653W        W33122  13.830   1.090   4.807 -0.1077  0.1274  0.1778
17654W        W33123   9.455  17.706  15.331 -0.0999 -0.2020 -0.0164
17655W        W33124   1.439   3.343   1.560 -0.1492 -0.0286 -0.1446
17656W        W33125   1.123   5.133  13.147 -0.1831 -0.1269  0.0696
17657W        W33126   6.415   3.290   2.956 -0.0511 -0.3048 -0.1421
17658W        W33127   3.698   2.357   1.806 -0.1438  0.1689  0.0176
17659W        W33128   8.082   1.044   3.876 -0.2067 -0.3554  0.2606
17660W        W33129   0.832   5.818  11.456 -0.0095  0.3247 -0.2163
17661W        W33130  14.318   3.685   3.371  0.0774 -0.2525  0.3652
17662W        W33131   2.877  15.510   0.428 -0.0308  0.2620 -0.1036
17663W        W33132  15.577  15.233   9.523 -0.1313  0.1038 -0.0690
17664W        W33133   9.459   8.259   2.703  0.1608 -0.1647 -0.2275
17665W        W33134  15.023   9.604   5.480 -0.1764 -0.1745 -0.0428
17666W        W33135   7.656  16.215   9.928 -0.0636  0.1839 -0.1810
17667W        W33136  14.322   7.058  11.349 -0.2206 -0.1852  0.1686
17668W        W33137   0.836  14.418  15.298 -0.1159 -0.1546  0.0837
17669W        W33138  18.290   5.254   4.235  0.0661 -0.0295  0.2561
17670W        W33139   7.440   4.740  10.558 -0.0269  0.0525 -0.2170
17671W        W33140   0.168  17.539   4.025  0.1240  0.1039 -0.1895
17672W        W33141   2.705   5.606   3.671 -0.2641 -0.3897 -0.4313
17673W        W33142   7.440   3.661  13.267  0.0213  0.1106 -0.2977
17674W        W33143   0.794   6.605  15.118  0.0416 -0.1010 -0.2233
17675W        W33144  16.303   5.256   3.736 -0.4472 -0.2410  0.0923
17676W        W33145  16.151  14.746   5.258 -0.0677 -0.0482  0.1317
17677W        W33146   3.836   9.886  14.457 -0.0306  0.0169 -0.0214
17678W        W33147  11.091  17.132   2.410  0.1275 -0.1588 -0.0377
17679W        W33148  16.253   9.528  10.776 -0.0709  0.1676 -0.0643
17680W        W33149  16.285  11.760   4.184  0.0951  0.1651  0.0557
17681W        W33150  10.536   0.830  13.086 -0.1860 -0.0293  0.0636
17682W        W33151   5.624   2.313  13.550 -0.3193 -0.3019  0.0286
17683W        W33152  13.150   7.088  14.406 -0.0328 -0.0704  0.1987
17684W        W33153  14.427   8.000   0.100  0.6054  0.1158  0.1507
17685W        W33154   9.069   9.915   4.357 -0.0705  0.0351  0.0672
17686W        W33155  16.821   4.722  10.404 -0.1264  0.2176  0.1730
17687W        W33156  16.100   4.126   1.512  0.1177 -0.2972 -0.0555
17688W        W33157   8.954   6.074   3.819 -0.0127 -0.3936  0.0577
17689W        W33158  11.329   4.654   0.611 -0.1196 -0.1992  0.0868
17690W        W33159  17.495  12.259  12.105  0.0920 -0.0471 -0.0139
17691W        W33160   5.830  12.463  12.946  0.1457  0.4557 -0.4285
17692W        W33161   7.757   3.615   2.130 -0.1672  0.0271  0.3317
17693W        W33162  17.309  14.160  11.142 -0.3992  0.3446 -0.1413
17694W        W33163   5.106   3.443  10.780  0.0912 -0.5029  0.0345
17695W        W33164  11.206   8.380  12.416  0.3793 -0.1222 -0.0367
17696W        W33165   1.315   1.920  11.797 -0.1735  0.2433 -0.3703
17697W        W33166   3.666   9.675   2.184 -0.0394  0.2975  0.0518
17698W        W33167   2.313  18.850   4.819 -0.0309 -0.3938  0.2687
17699W        W33168   5.037   6.430   5.501 -0.1379 -0.0955 -0.0887
17700W        W33169  16.020   6.918   5.293  0.4475 -0.0514  0.1350
17701W        W33170  15.448   8.536   2.469 -0.0645  0.0121  0.2261
17702W        W33171  15.960   7.524  10.971 -0.0275 -0.0941  0.1604
17703W        W33172  11.201   5.271  12.983  0.0802 -0.0266 -0.1258
17704W        W33173   4.356  13.557   4.214 -0.0733 -0.2504 -0.1674
17705W        W33174   7.987   2.273  14.140 -0.1231 -0.4777 -0.1377
17706W        W33175  16.809   1.623   4.742  0.6401  0.1007  0.2419
17707W        W33176   6.825   6.913  10.445  0.0042  0.1373  0.0575
17708W        W33177   1.080  12.632  13.966  0.1350 -0.2284  0.0107
17709W        W33178  17.231   9.424   0.923 -0.2988 -0.2155  0.3603
17710W        W33179  16.848  14.833  11.472  0.1931 -0.2004 -0.1243
17711W        W33180  10.341   1.966  11.468  0.1642  0.2631 -0.1639
17712W        W33181  16.323   0.459  11.877 -0.1323 -0.3771 -0.0767
17713W        W33182  16.852   3.340  13.608 -0.0161 -0.1240  0.1084
17714W        W33183   9.202  16.676  10.799  0.0977 -0.1173  0.2721
17715W        W33184   0.859  16.951   3.085  0.2775  0.1088  0.1436
17716W        W33185   0.201  16.840  12.523  0.1553 -0.0947  0.1060
17717W        W33186  16.650  13.145  13.358  0.2561  0.1266  0.0226
17718W        W33187  11.597  16.046  14.633 -0.3108  0.2434  0.1472
17719W        W33188  14.776  17.887   2.115  0.2795  0.0232 -0.2865
17720W        W33189   7.155  13.467   2.529  0.0420  0.2816  0.3774
17721W        W33190   9.055   4.098  10.269  0.0239  0.2219 -0.0624
17722W        W33191  11.551   4.885  14.714 -0.1924  0.2461  0.1303
17723W        W33192   0.558  16.465   3.315 -0.0814 -0.1275  0.1041
17724W        W33193   1.897   3.379   2.783 -0.1120 -0.1997  0.2179
17725W        W33194  11.300   1.140  11.357 -0.1415  0.3377  0.0916
17726W        W33195   8.052   5.880   0.237  0.0120  0.2112  0.1281
17727W        W33196   4.909  16.972   3.942 -0.0362 -0.0118 -0.0331
17728W        W33197   3.260   2.022   1.664 -0.1084 -0.3575 -0.0416
17729W        W33198  16.482   1.688  11.663  0.1573 -0.0291  0.1958
17730W        W33199  11.897   1.160   0.774  0.1740 -0.0422 -0.1565
17731W        W33200  15.147  10.657   0.216 -0.0673 -0.2820 -0.3394
17732W        W33201   9.766  12.797   3.051 -0.1862 -0.0433  0.0744
17733W        W33202   0.147  16.220   3.179 -0.3305 -0.1559  0.1567
17734W        W33203   8.536  16.704   0.370 -0.2733  0.1100  0.1212
17735W        W33204   1.145   1.544  12.991  0.1175 -0.3673 -0.2782
17736W        W33205   6.094   4.784   3.195  0.1848 -0.1718 -0.2867
17737W        W33206  14.005   2.547   4.694  0.0861 -0.1306  0.0232
17738W        W33207   5.031   2.451   4.655 -0.5088 -0.0322 -0.4201
17739W        W33208  18.089   5.913   2.754 -0.0600 -0.0952  0.1431
17740W        W33209   6.282   8.853  12.023 -0.0512  0.0100 -0.1604
17741W        W33210  11.555  16.743   2.801 -0.2515 -0.1361 -0.2457
17742W        W33211   6.851  14.086   1.802  0.0951  0.0138  0.2466
17743W        W33212   2.237   4.699  10.638 -0.0855 -0.0687  0.0313
17744W        W33213  15.074   5.640   3.762  0.1838 -0.3086  0.0247
17745W        W33214  19.010   8.171  11.143 -0.0877  0.1985 -0.2588
17746W        W33215   7.486   6.286  13.504  0.0129  0.4147  0.1207
17747W        W33216   3.019   4.405  13.274  0.0261 -0.1492 -0.0497
17748W        W33217  13.893  18.668  11.342  0.3841  0.1183 -0.1874
17749W        W33218  18.273   8.215  13.392 -0.0333  0.0435 -0.0592
17750W        W33219  12.082   9.666   0.941 -0.2838 -0.1696 -0.2682
17751W        W33220  12.708   8.780  13.519 -0.2072  0.3960  0.0116
17752W        W33221   0.064   9.555  13.473 -0.2848 -0.1895  0.1935
17753W        W33222  13.763   5.945  13.967  0.1783 -0.0803  0.4157
17754W        W33223   5.349   7.900  12.240  0.0954 -0.1526  0.0140
17755W        W33224   6.804  14.358  15.334 -0.0202  0.1543  0.0100
17756W        W33225   7.673  17.636  14.805  0.1686  0.0625  0.1427
17757W        W33226   6.054   2.721   5.200  0.1535 -0.2028 -0.4888
17758W        W33227  11.269   7.786  14.605  0.2446  0.3086 -0.2213
17759W        W33228   2.032   5.549  12.840  0.1054 -0.0306  0.1253
17760W        W33229   6.126  11.496  13.292  0.0429 -0.0067  0.0527
17761W        W33230   0.396  17.536  13.477 -0.1972 -0.4957 -0.0735
17762W        W33231   3.911   1.930  11.266  0.3522 -0.0290  0.2173
17763W        W33232  14.836   9.183   2.228  0.1462 -0.1947  0.1784
17764W        W33233   4.515   5.646  14.573 -0.0079  0.2073 -0.1419
17765W        W33234  12.132   9.954  11.871 -0.1802  0.1514  0.2258
17766W        W33235  15.186   8.536   5.765  0.1564 -0.2191 -0.1859
17767W        W33236   3.756   0.174   0.294  0.0856 -0.1933  0.0823
17768W        W33237  14.847   3.358   5.323  0.2739  0.2512  0.0695
17769W        W33238  15.607   4.770   1.879  0.0622 -0.3901  0.2012
17770W        W33239   4.002   3.053  13.409  0.1652  0.3581  0.0200
17771W        W33240   5.974  13.273   4.768 -0.0142  0.1610 -0.1786
17772W        W33241   7.575   4.306  10.399 -0.1639  0.2399 -0.1372
17773W        W33242   9.078   6.601   1.587 -0.2920  0.1767 -0.2408
17774W        W33243  17.806  13.418  13.473  0.0703  0.2558 -0.1450
17775W        W33244   0.545   2.941  12.910  0.1805 -0.4370 -0.1791
17776W        W33245   9.395  17.520  11.895  0.1146 -0.1521 -0.0305
17777W        W33246   4.778   5.365   1.031 -0.2166  0.0238  0.0216
17778W        W33247   2.988   2.088   4.017  0.1206  0.3016 -0.1868
17779W        W33248   3.342   0.577  12.455  0.5231  0.2166 -0.0333
17780W        W33249  13.127  18.983   4.782  0.1053 -0.0954  0.3287
17781W        W33250   7.562  17.391  13.286  0.0496  0.2392  0.1869
17782W        W33251  17.338  16.075  11.622  0.2073  0.0382  0.3928
17783W        W33252   9.354  13.569  14.597  0.3510 -0.0654  0.0118
17784W        W33253  10.968   5.406   2.350 -0.3408 -0.1877 -0.0205
17785W        W33254   6.260   8.739   0.586  0.2286 -0.1933  0.1545
17786W        W33255   6.302   3.758   3.723 -0.1424  0.1850  0.2125
17787W        W33256  15.141   5.313  14.333 -0.0273 -0.0636 -0.1470
17788W        W33257  18.600   7.893   2.950 -0.3219  0.3207 -0.0441
17789W        W33258  18.757  16.008  11.207 -0.2594  0.1861 -0.0808
17790W        W33259   5.970  14.225  12.746 -0.0316 -0.2073  0.1093
17791W        W33260  12.379  12.955   3.758  0.0252 -0.0996  0.0923
17792W        W33261  18.578  16.257  10.854  0.4249  0.2211  0.3091
17793W        W33262   7.388   0.580   2.600  0.0904 -0.0792  0.0340
17794W        W33263   6.159  11.725  13.719  0.0510  0.0961 -0.1137
17795W        W33264   9.211  15.748  11.050 -0.0090  0.2727  0.0133
17796W        W33265   8.606   8.635  13.921  0.2163 -0.0871  0.2913
17797W        W33266   9.659  16.951  10.818  0.0556 -0.1335 -0.0797
17798W        W33267   6.067  15.163   1.375  0.1787 -0.1297 -0.0740
17799W        W33268  15.067   8.228   3.319 -0.0463 -0.1703  0.2342
17800W        W33269   2.575  17.275   0.140  0.1146 -0.0381  0.1417
17801W        W33270   8.540  12.503   3.683  0.0712 -0.0456 -0.0141
17802W        W33271  12.748  17.227  13.374 -0.1221  0.0549  0.0287
17803W        W33272   6.906  14.706   2.786 -0.1175  0.0365 -0.0192
17804W        W33273  15.106   4.069  10.505  0.3166 -0.0348  0.4204
17805W        W33274  12.372   3.455  14.961  0.0264  0.2953 -0.1503
17806W        W33275  15.834   0.011  15.309  0.2749  0.0616 -0.1990
17807W        W33276  11.017   1.202   3.973  0.0713 -0.0052 -0.1003
17808W        W33277   0.553   9.275   5.576 -0.0288 -0.0011  0.0372
17809W        W33278  11.510   8.758   4.081  0.2737  0.2107  0.0131
17810W        W33279   7.225  16.997  12.892  0.0668 -0.4467 -0.2096
17811W        W33280  15.149   3.119  12.547  0.3513  0.0656  0.0614
17812W        W33281   8.663   8.056  11.528 -0.1944 -0.2073 -0.1567
17813W        W33282   5.991   1.077   3.377  0.1064  0.1756 -0.0732
17814W        W33283   9.728   4.529   1.811 -0.1180 -0.2884 -0.3312
17815W        W33284   4.999   0.698   4.676  0.2631  0.2208  0.3537
17816W        W33285  12.473   3.155  12.406 -0.0585  0.3050 -0.0960
17817W        W33286  16.144  15.043   2.680  0.2867  0.1274 -0.0950
17818W        W33287   7.140  17.946   5.430 -0.1857  0.3472  0.0411
17819W        W33288  12.779  18.043   9.440  0.1821  0.1082  0.2248
17820W        W33289   4.801   0.163  13.993  0.1372  0.0164  0.0992
17821W        W33290  13.802   9.368   0.180  0.0420  0.4228  0.0480
17822W        W33291   6.709  12.532   3.715 -0.1878  0.1507 -0.0102
17823W        W33292   0.375   5.892   4.494  0.3939 -0.3532 -0.3393
17824W        W33293   3.508  11.133  10.937 -0.0523 -0.4844  0.0547
17825W        W33294  17.260  15.226  10.305  0.0725 -0.0498  0.2990
17826W        W33295  17.701   2.732  10.396  0.0317  0.0964  0.1482
17827W        W33296   9.196  11.930  11.946 -0.2234 -0.0147  0.0509
17828W        W33297  18.295   3.825  11.477 -0.2440 -0.0722  0.3435
17829W        W33298  15.950  13.694   1.382  0.1149  0.1923  0.0411
17830W        W33299  16.338   8.423  12.499 -0.1579 -0.0420  0.0096
17831W        W33300   3.843   8.327  12.134  0.0406 -0.0866 -0.0394
17832W        W33301  18.034   3.242   3.310  0.1528 -0.1560  0.1289
17833W        W33302   9.081   2.678   3.609  0.1219  0.2529  0.2106
17834W        W33303   5.386   7.940   1.195 -0.0557  0.0664  0.3119
17835W        W33304  10.065   9.447   3.381 -0.0196 -0.1014 -0.1161
17836W        W33305   4.884  10.132  15.195  0.1685  0.1517  0.0214
17837W        W33306   9.974  16.412  13.364  0.1647  0.2445 -0.2472
17838W        W33307   5.470   9.703   2.592 -0.2380  0.0393  0.1709
17839W        W33308  12.285  17.583  12.870  0.3918 -0.0581  0.2730
17840W        W33309   9.774  16.846  13.570 -0.0392 -0.2057  0.0308
17841W        W33310  10.414  13.139   2.670  0.1650  0.1503  0.0043
17842W        W33311  16.578  17.877   3.259 -0.0857  0.0458 -0.0438
17843W        W33312  11.464  14.809  14.960 -0.4004 -0.3329  0.3758
17844W        W33313  17.655   9.751   4.605 -0.0353 -0.3180 -0.1514
17845W        W33314   2.985  12.776   0.337 -0.4247  0.2503  0.0924
17846W        W33315   6.183   3.478   1.510  0.1958  0.0706 -0.3297
17847W        W33316  13.204   8.820  13.675  0.0344  0.1771 -0.0647
17848W        W33317   1.387   2.391  13.909 -0.1648  0.3227 -0.2476
17849W        W33318   2.562   6.951   2.779 -0.2795 -0.2523  0.1452
17850W        W33319   5.695   1.669   2.424  0.0845  0.4278 -0.2491
17851W        W33320  13.591  18.156   1.270 -0.0629 -0.1386  0.1395
17852W        W33321   0.842  16.825   3.546  0.0708  0.0343 -0.1081
17853W        W33322  15.864   0.647   2.555  0.2475  0.2781  0.0608
17854W        W33323  17.075  16.907   1.016  0.1979  0.1834  0.2039
17855W        W33324   4.683   0.093   5.655  0.1228 -0.0322  0.1832
17856W        W33325   0.359   7.264   2.132 -0.0647 -0.0443 -0.1512
17857W        W33326   0.541  18.177   9.436 -0.3498  0.1876  0.2246
17858W        W33327   3.797   1.321   2.030  0.0681  0.1212 -0.1398
17859W        W33328  18.388  11.241  14.781  0.0124 -0.5021  0.0506
17860W        W33329   1.908   6.915   4.274  0.0400 -0.0455 -0.0305
17861W        W33330  16.360   0.612   0.554  0.0257  0.0513  0.5123
17862W        W33331   1.396   1.609   2.648 -0.0304 -0.0155 -0.1177
17863W        W33332  16.701  11.683   3.777 -0.2224 -0.0984 -0.2267
17864W        W33333   2.645   7.783  13.852 -0.3170  0.3752  0.0210
17865W        W33334  15.975  13.105   0.594  0.1659  0.0563  0.2390
17866W        W33335   8.261  12.046   4.838 -0.0950 -0.0119  0.2028
17867W        W33336   5.486  11.278  14.303 -0.1352 -0.3001  0.2511
17868W        W33337  17.996   5.092  13.481 -0.0745  0.0511  0.0214
17869W        W33338   5.006  11.398   1.577  0.2188 -0.0693 -0.4717
17870W        W33339   2.189  11.331  12.073 -0.1099  0.3531  0.1951
17871W        W33340  11.683  16.836   3.639 -0.3920  0.2153  0.2171
17872W        W33341   8.109  18.655   0.175 -0.0773  0.0898 -0.1147
17873W        W33342  10.416  10.340  13.846 -0.0516  0.2482  0.2005
17874W        W33343   2.250  10.635  11.007  0.2593  0.0741 -0.1340
17875W        W33344  18.258  18.361  10.116  0.1141 -0.2442 -0.1866
17876W        W33345   4.719  17.086  11.145  0.0295 -0.1399  0.0087
17877W        W33346   7.307   4.004  12.891  0.0764  0.3656  0.1372
17878W        W33347   9.510   9.290  15.272 -0.2158  0.3416 -0.5498
17879W        W33348  16.746   6.121  12.531 -0.1978 -0.1312  0.0565
17880W        W33349  10.550   3.831   2.009  0.0899  0.1368  0.0688
17881W        W33350   4.851  13.985  13.248  0.0448 -0.1940  0.0590
17882W        W33351  13.967  10.368   2.059  0.1293  0.2014  0.1972
17883W        W33352  17.678  12.402  14.914  0.4464 -0.1825 -0.4669
17884W        W33353  12.821  10.812  11.404 -0.3184 -0.2311 -0.2661
17885W        W33354   1.731   6.338   5.057  0.1755  0.1402 -0.0596
17886W        W33355  15.126   5.629   2.860  0.0137  0.3470 -0.0092
17887W        W33356  17.247  18.015   2.779 -0.0469  0.2846 -0.2298
17888W        W33357   4.198   2.582   2.184 -0.1583 -0.1658 -0.1387
17889W        W33358   9.226  17.668  11.308  0.0987  0.0948 -0.1070
17890W        W33359   1.428   6.444  12.094 -0.1766  0.1412 -0.3323
17891W        W33360   7.421   1.039  12.894  0.2713 -0.0194 -0.1810
17892W        W33361   3.002  13.863  15.165  0.0325 -0.1242 -0.2311
17893W        W33362  16.527   0.267  12.324 -0.1221  0.0475 -0.2751
17894W        W33363  10.670  17.790   0.605  0.2600  0.3196  0.1787
17895W        W33364   5.555  12.421   3.536  0.4381  0.0793  0.0904
17896W        W33365  13.073  15.555   1.570  0.0519 -0.0856 -0.5518
17897W        W33366   0.602   2.959  13.964 -0.3651  0.0314 -0.0522
17898W        W33367   4.890  17.777   1.309  0.1261 -0.0279  0.0637
17899W        W33368  14.968  14.332  13.941  0.2710  0.0354 -0.0376
17900W        W33369  14.654  18.404   3.476  0.0780 -0.0940 -0.1899
17901W        W33370  16.876   3.796  13.951  0.1083  0.0896  0.0505
17902W        W33371  14.806   2.386  11.193 -0.1088 -0.0941  0.1150
17903W        W33372   4.511   3.006   0.721  0.3015 -0.0106  0.1589
17904W        W33373   3.674   2.546   2.322 -0.0617  0.0106 -0.1003
17905W        W33374  13.976  15.050  10.468  0.0425 -0.0500  0.1155
17906W        W33375  16.327   1.831   0.299 -0.4802  0.1011 -0.3037
17907W        W33376  11.543   4.831  11.211 -0.0946 -0.1498 -0.1773
17908W        W33377  11.523   1.113   3.281 -0.3230  0.3038  0.2933
17909W        W33378  15.112   4.713   1.651 -0.1346 -0.2282 -0.1820
17910W        W33379  18.248   6.373  10.365 -0.2677  0.0731 -0.2392
17911W        W33380  14.240  16.270  12.628 -0.2139  0.0070  0.0047
17912W        W33381   1.620  14.268  13.879 -0.2417  0.1118 -0.2656
17913W        W33382   2.292   9.585   1.086 -0.2944  0.0746 -0.1396
17914W        W33383  10.269   0.161  14.210  0.2397 -0.0689 -0.0120
17915W        W33384   2.224  12.146  13.142  0.1485 -0.1939  0.0465
17916W        W33385   7.165   1.829   4.554  0.2688  0.4275 -0.3448
17917W        W33386  12.022  12.718   5.659  0.0853 -0.3139 -0.0111
17918W        W33387   7.719   3.931   2.528  0.0479 -0.0373 -0.2007
17919W        W33388   4.903   4.782  12.041  0.1585 -0.1584 -0.1052
17920W        W33389  14.866  11.834  13.001  0.1139 -0.2307 -0.2695
17921W        W33390  17.761  12.124   3.719 -0.2422  0.1979  0.1695
17922W        W33391  13.920  17.017  11.324 -0.1370 -0.1679 -0.1003
17923W        W33392   0.528   6.815   0.123  0.0313 -0.1235 -0.3071
17924W        W33393   4.099  18.328   4.316 -0.1305 -0.0484  0.0067
17925W        W33394  18.967  14.628   4.017  0.1455 -0.0842  0.5583
17926W        W33395  17.870  10.522   0.909 -0.1594  0.5046  0.2880
17927W        W33396  17.309   1.739   3.588  0.1053  0.1945  0.0319
17928W        W33397  11.661   0.632  10.277 -0.1506 -0.1440 -0.0123
17929W        W33398  14.588   6.947   1.506 -0.0212  0.1473  0.0575
17930W        W33399   2.715   1.004   6.131 -0.1946  0.1102  0.0889
17931W        W33400  11.858   5.576   4.463 -0.3937  0.0590  0.1286
17932W        W33401   2.678  10.671   0.163  0.2800 -0.0749  0.1020
17933W        W33402  15.225  18.544   9.299  0.3058  0.2042  0.0982
17934W        W33403  14.035   3.604   0.408 -0.1922  0.0241 -0.5438
17935W        W33404   5.945   7.261   3.687  0.4351  0.4517  0.0788
17936W        W33405   0.746   5.340   4.608  0.2202 -0.2647  0.1385
17937W        W33406  14.370   8.588   0.322  0.2899  0.1530  0.1545
17938W        W33407  11.410  18.859  10.873 -0.0634  0.2345  0.1078
17939W        W33408  16.691   2.624  10.493 -0.1611 -0.4275  0.1217
17940W        W33409   7.715   8.672   4.417 -0.1777 -0.0162  0.0521
17941W        W33410  13.495   1.689   4.880  0.5359 -0.1188 -0.0857
17942W        W33411   9.793   9.321  14.579  0.2357 -0.0967 -0.4191
17943W        W33412  18.824   0.336  13.581 -0.1979  0.4329 -0.1947
17944W        W33413   0.515  12.951   0.215  0.0009  0.0006 -0.0523
17945W        W33414   7.416   3.875   4.658  0.2269 -0.0570 -0.0608
17946W        W33415   2.532  16.349   2.320  0.0132 -0.0554 -0.1184
17947W        W33416  17.719   5.750   0.694 -0.1591  0.1297 -0.2497
17948W        W33417  13.010   0.470   0.775  0.0912  0.1422  0.0812
17949W        W33418   5.355  13.636   2.734 -0.1600  0.0838 -0.1490
17950W        W33419  10.769   8.189  14.409 -0.0170 -0.0546 -0.1350
17951W        W33420  13.153   0.565  14.581  0.3229 -0.3176 -0.0426
17952W        W33421   9.667  12.598   5.228 -0.2862  0.3254 -0.0474
17953W        W33422   4.425  13.367  13.935 -0.1653  0.1913  0.0270
17954W        W33423   4.489   7.692   1.310 -0.1755 -0.1017 -0.1916
17955W        W33424  15.840   5.353   4.529  0.1023 -0.1176 -0.0523
17956W        W33425   6.784  16.620  15.162  0.2783  0.1765 -0.0026
17957W        W33426  13.150   3.730   3.411 -0.0391 -0.1663  0.2602
17958W        W33427  16.010   8.104  14.308  0.1482  0.2624  0.1822
17959W        W33428  14.900  14.287   2.263 -0.0002 -0.0457  0.5134
17960W        W33429   8.308   4.032   4.186 -0.2341 -0.2267 -0.1687
17961W        W33430   2.223  16.495   2.729 -0.1367 -0.6500  0.1033
17962W        W33431   9.652  14.231  10.795  0.1695  0.4360 -0.1231
17963W        W33432   9.716   2.502   2.015 -0.2740  0.1181 -0.3627
17964W        W33433   6.562  17.426  11.810  0.1042 -0.0715 -0.3153
17965W        W33434  11.357  11.124   9.868  0.1729  0.0000 -0.1786
17966W        W33435   3.790   4.833  11.216 -0.0397  0.3102 -0.0113
17967W        W33436  11.971  14.672  11.222 -0.2568 -0.1479  0.0767
17968W        W33437   7.747   6.617   1.737  0.1577  0.1481 -0.1269
17969W        W33438  14.799  18.791  11.326  0.0462  0.0121 -0.2504
17970W        W33439  14.357   4.427  11.030 -0.1991  0.3205  0.0669
17971W        W33440   9.618  16.872   0.189  0.0853  0.2027  0.2746
17972W        W33441   0.616  17.489   2.248 -0.0067  0.0840  0.1299
17973W        W33442  11.804   7.887   1.767 -0.1072 -0.2726 -0.0828
17974W        W33443   6.834   5.065  12.063 -0.0088  0.1914 -0.0897
17975W        W33444  18.193  17.166  11.380 -0.2099 -0.1684 -0.0995
17976W        W33445   5.349  10.830   3.449 -0.4588  0.0253  0.1681
17977W        W33446   8.581   6.728  11.598  0.1844 -0.0468  0.1821
17978W        W33447   0.100  12.071   3.275  0.1444  0.0754 -0.0010
17979W        W33448   6.166  12.998   1.804 -0.0843  0.2934  0.2089
17980W        W33449  18.680   9.026   5.225  0.1362  0.1768  0.0267
17981W        W33450   2.088   4.999  14.353 -0.1861  0.0117  0.2966
17982W        W33451  18.924  16.102   2.770  0.0927  0.1757 -0.2857
17983W        W33452   5.473  12.768   2.370  0.4378 -0.0609  0.1404
17984W        W33453  18.808   8.748   2.153 -0.0329 -0.3355  0.1042
17985W        W33454  13.650   3.790  12.928 -0.1490  0.0772  0.0990
17986W        W33455   1.664  11.025  12.075  0.1617  0.0785  0.0783
17987W        W33456  17.952  16.622   5.138 -0.2093 -0.2710 -0.0263
17988W        W33457   9.117   3.266  11.411  0.2773 -0.3968  0.0354
17989W        W33458   0.792  12.047   1.516  0.0149 -0.1535  0.2075
17990W        W33459   6.743  11.350   0.974  0.1812 -0.0050  0.0291
17991W        W33460   2.075  13.783  11.492  0.1399 -0.0177 -0.4047
17992W        W33461  18.341  11.422  13.474 -0.0866 -0.5909 -0.0011
17993W        W33462  16.444  17.151   2.143  0.0339 -0.0538  0.0999
17994W        W33463   1.562   2.003  11.274  0.0713 -0.3329  0.1888
17995W        W33464   5.427  11.893   3.582 -0.2084  0.0977  0.0933
17996W        W33465  15.275  18.536  11.305  0.1374 -0.1558  0.0017
17997W        W33466   1.960   7.833  14.598 -0.1819 -0.3249  0.2281
17998W        W33467  10.998   8.871   2.581  0.0905  0.0816  0.3519
17999W        W33468   9.361  12.522   1.881  0.1155  0.1657  0.1044
18000W        W33469   7.751   8.008  10.040 -0.0824 -0.0426  0.3436
18001W        W33470  11.097  13.937   0.809 -0.0164  0.0338 -0.4329
18002W        W33471   1.490   2.465  10.122  0.0781 -0.0024 -0.0479
18003W        W33472  13.656  10.805  13.007 -0.3129 -0.0486 -0.1661
18004W        W33473  11.332   6.264   4.572 -0.0852  0.0940 -0.0632
18005W        W33474  15.774   5.947   1.403  0.1330 -0.3061  0.1318
18006W        W33475  12.925  18.387   1.845 -0.0743 -0.0976 -0.0469
18007W        W33476  11.082  14.433  13.463  0.4619  0.2505 -0.2221
18008W        W33477  12.252   4.112   2.633  0.0972 -0.0997 -0.1819
18009W        W33478  13.101  17.675   3.775  0.1308 -0.2230  0.0200
18010W        W33479  14.954   6.471  11.835 -0.0353 -0.1601 -0.3795
18011W        W33480   5.822   4.226   5.062  0.2522 -0.2573  0.2811
18012W        W33481  12.929   4.777  13.351  0.0906 -0.0895 -0.0023
18013W        W33482   0.731  10.249   4.453 -0.0986  0.0532  0.1198
18014W        W33483  15.282   0.969   0.185 -0.0262  0.1736 -0.1572
18015W        W33484  15.573  17.159   2.574  0.0685 -0.1218  0.0350
18016W        W33485   7.054   7.730  14.937  0.3174 -0.2933 -0.2975
18017W        W33486  16.470   2.305  10.927 -0.0562 -0.3710 -0.4402
18018W        W33487  13.908  15.746   2.819  0.1763 -0.1291 -0.0826
18019W        W33488  15.171  17.411  15.097  0.1317  0.0545  0.4535
18020W        W33489   3.739   1.181   5.098  0.1471 -0.0416  0.0120
18021W        W33490  18.857   7.666   3.332 -0.1400 -0.1953  0.3124
18022W        W33491   7.747   9.178   4.569 -0.2290 -0.1332  0.0208
18023W        W33492  15.957   8.323   1.147  0.2926  0.5283 -0.1794
18024W        W33493   8.065  15.546   5.247  0.0700 -0.1760  0.4290
18025W        W33494   2.806   4.456  15.105  0.0780  0.0678 -0.0368
18026W        W33495   8.455   0.586   3.745  0.2479  0.0219 -0.1428
18027W        W33496  10.933   2.780   3.859 -0.1136  0.2494  0.3415
18028W        W33497  11.455   4.493  12.872 -0.0769 -0.2896  0.0729
18029W        W33498  10.091   1.241   4.329 -0.3098 -0.0428 -0.1139
18030W        W33499  17.053   7.418  12.291 -0.1411 -0.1364 -0.0620
18031W        W33500   9.454  12.505   0.349  0.4109  0.1499  0.0970
18032W        W33501  18.362  11.013   4.928  0.0372 -0.1434  0.2932
18033W        W33502  12.992   4.889   2.929  0.2129  0.4868 -0.2207
18034W        W33503   2.549   4.114   0.604 -0.2629  0.0260  0.2959
18035W        W33504  17.071  10.831   0.710 -0.2445  0.1781 -0.2380
18036W        W33505   5.297   2.542  14.678 -0.0152  0.0260 -0.3390
18037W        W33506   9.693  15.605  15.165 -0.3627 -0.0373  0.1769
18038W        W33507   2.459  17.627  13.935  0.1796  0.0207 -0.0298
18039W        W33508  18.276   1.347  12.880 -0.1200  0.0896  0.1795
18040W        W33509  12.867   3.975   4.855 -0.1087  0.3206  0.0486
18041W        W33510  12.895   4.651  13.821  0.0324  0.1547 -0.2623
18042W        W33511  11.224  11.861  12.885 -0.2628 -0.0473  0.3171
18043W        W33512   8.387   5.338   4.935 -0.0485  0.4626  0.0210
18044W        W33513   4.079   7.098  13.446  0.1777 -0.1486  0.2058
18045W        W33514   3.951  11.118  14.239  0.0484  0.0680  0.0235
18046W        W33515  15.828  18.405   2.067 -0.0326 -0.0060 -0.0372
18047W        W33516  15.146   2.173   2.415 -0.2698  0.1519  0.2467
18048W        W33517  12.926  11.475   4.569 -0.1467  0.1299  0.1161
18049W        W33518   2.150  13.550  10.364 -0.0274  0.1063  0.1870
18050W        W33519  16.315   0.952   4.292  0.1222  0.2314  0.1605
18051W        W33520   1.658   1.327   1.852  0.1805 -0.0616 -0.2797
18052W        W33521  12.173   5.522  12.492  0.3679 -0.0817  0.0540
18053W        W33522   9.940  14.057   0.841  0.1851  0.0061 -0.3812
18054W        W33523  12.406   6.456   2.561  0.1657  0.2166  0.2180
18055W        W33524  14.243  14.432  14.457 -0.3455 -0.1922  0.1542
18056W        W33525  12.576  11.739  12.807  0.0688 -0.1848  0.2811
18057W        W33526  18.296  18.344  11.495  0.0804  0.3327  0.0203
18058W        W33527  10.070  17.466   4.787 -0.0253  0.0547  0.0040
18059W        W33528   2.527   4.831  14.649  0.1939  0.1026  0.0475
18060W        W33529  17.046  14.174  12.534 -0.0840 -0.2088 -0.0530
18061W        W33530   7.673  14.884  10.405  0.4239  0.3902  0.0478
18062W        W33531   4.529  15.911  11.488  0.0867  0.0607 -0.0593
18063W        W33532   8.362  14.847  12.964 -0.0710  0.0793  0.2678
18064W        W33533   3.318   2.931  15.024 -0.0116  0.1592  0.0763
18065W        W33534   2.303   8.037   0.264 -0.1240 -0.2334 -0.2469
18066W        W33535  13.837   2.364   5.243  0.0048  0.2401  0.3122
18067W        W33536   6.289   0.682  12.428 -0.1936 -0.0501 -0.1869
18068W        W33537  16.452  14.138  12.069 -0.0243  0.0687 -0.0540
18069W        W33538  12.852   3.204   0.391  0.0315 -0.2307 -0.5701
18070W        W33539  16.714   6.636   0.660  0.1936 -0.1465  0.0958
18071W        W33540   0.450  17.736   3.602 -0.4294  0.2154  0.0086
18072W        W33541  14.333   7.277   0.416 -0.2268 -0.3063  0.1161
18073W        W33542  18.394   3.627   3.806 -0.3869  0.0345  0.1161
18074W        W33543  10.337  11.851  14.188 -0.0979  0.4837 -0.1887
18075W        W33544  15.075   7.192   1.553  0.1010 -0.0718 -0.1442
18076W        W33545  11.927   2.249  14.287 -0.0782 -0.5576  0.1033
18077W        W33546   6.037   0.093   3.452  0.0385  0.2421 -0.0071
18078W        W33547  16.347  17.264   1.644  0.0455  0.1171  0.2767
18079W        W33548  13.436   5.287   4.273 -0.0855  0.2132 -0.0797
18080W        W33549   6.619   5.274   2.098  0.0133 -0.1259 -0.1433
18081W        W33550   5.627   9.468  11.731 -0.1836  0.2378 -0.0082
18082W        W33551  14.903  18.771   1.631 -0.0241  0.2694  0.1194
18083W        W33552  14.150  16.078   1.505 -0.2805 -0.0298 -0.0299
18084W        W33553  15.666  12.765  12.907  0.0611  0.0270 -0.0490
18085W        W33554  13.628   5.291   1.759 -0.1045 -0.0837  0.0494
18086W        W33555   2.262  12.284  14.682 -0.0474 -0.3374  0.2757
18087W        W33556  12.316  13.153   4.476 -0.0545 -0.2832  0.1262
18088W        W33557  18.988   7.680  14.629  0.1433 -0.2302 -0.0300
18089W        W33558   3.945  12.320  11.912  0.4560  0.2164 -0.0313
18090W        W33559  18.374  17.612  11.139 -0.0229  0.1694  0.1720
18091W        W33560   5.002  10.626   1.183 -0.1870 -0.2071 -0.1832
18092W        W33561   7.655  15.083   2.426  0.0777 -0.1803 -0.4867
18093W        W33562  11.895   6.785  14.700  0.2342  0.2133 -0.2763
18094W        W33563  12.511   8.166  15.030 -0.3554 -0.1055  0.0568
18095W        W33564  14.168  13.130  14.844 -0.0554  0.3112 -0.0490
18096W        W33565   8.782   0.463   1.190  0.0625  0.3968  0.0551
18097W        W33566   0.349   0.758  15.082  0.0219  0.2303  0.0563
18098W        W33567   2.414   0.661  10.468 -0.0496  0.2536 -0.3159
18099W        W33568   9.669   0.077   5.882 -0.0215 -0.0830 -0.2881
18100W        W33569   5.708  17.049   5.575  0.0310 -0.1163 -0.0607
18101W        W33570   9.669  11.410  13.242  0.1247  0.1698 -0.0034
18102W        W33571   3.585   2.936  12.643  0.1038 -0.3000 -0.0116
18103W        W33572  13.476   5.381  13.277  0.1616  0.4578  0.2600
18104W        W33573   1.656   7.857  13.597 -0.1338  0.0466 -0.0036
18105W        W33574   6.738   2.764   0.038  0.0662  0.0056  0.1040
18106W        W33575   2.368   2.159   0.906 -0.4136  0.2255  0.0322
18107W        W33576  14.579   1.849  15.332 -0.3012  0.1709 -0.3337
18108W        W33577  14.693   3.606   2.733 -0.1534 -0.0441  0.0083
18109W        W33578   0.836  18.650   3.214 -0.2635 -0.0811  0.2264
18110W        W33579   7.877   4.808   5.931 -0.2998  0.3101 -0.0864
18111W        W33580  16.466  16.116   4.462  0.0220  0.1639  0.3011
18112W        W33581  18.614  14.242  14.317  0.1738  0.1472 -0.1941
18113W        W33582  18.367  13.684   3.604 -0.1785  0.0492  0.1789
18114W        W33583  14.459   1.721  12.555 -0.1853 -0.5686 -0.0023
18115W        W33584  14.135   5.382  10.565 -0.1102  0.0697 -0.1437
18116W        W33585  18.824   8.544   1.586  0.2509 -0.1019  0.1147
18117W        W33586   3.992   9.435  15.326 -0.0297  0.3435 -0.3075
18118W        W33587  16.422  12.435   3.322  0.1948  0.0134 -0.1677
18119W        W33588   9.366  10.032  13.840  0.0753  0.1849 -0.3176
18120W        W33589  16.531  15.627   2.084 -0.0727 -0.3054  0.0865
18121W        W33590   5.222  14.651   0.268  0.0529  0.1307  0.0461
18122W        W33591   3.127   6.278   1.840  0.2145  0.0957  0.4239
18123W        W33592   0.760   8.076   9.897 -0.0600  0.1962 -0.3165
18124W        W33593   2.556  15.801  14.595  0.0749 -0.0923  0.1649
18125W        W33594  12.056  17.002  14.249  0.0308  0.1287 -0.0713
18126W        W33595  15.566   9.232  13.180 -0.1953 -0.0064 -0.1203
18127W        W33596  10.107  15.885  15.253  0.3132  0.2103  0.2512
18128W        W33597  14.466  17.788   3.114  0.1610 -0.0665  0.1750
18129W        W33598  11.198   0.625  11.602 -0.0552  0.0528  0.2730
18130W        W33599  18.286   4.415   3.853 -0.1657 -0.1940 -0.1711
18131W        W33600  13.366  13.601  14.435  0.1784 -0.3009  0.1294
18132W        W33601   6.516  12.096  11.179 -0.3959 -0.1168 -0.5771
18133W        W33602  15.634  13.556   4.369 -0.1981 -0.0844 -0.2719
18134W        W33603   0.984   7.071   0.076 -0.1522  0.2733 -0.1553
18135W        W33604   2.185  14.370   3.766 -0.2819 -0.0465  0.0756
18136W        W33605   0.684   7.701   1.155 -0.0291 -0.2490 -0.1204
18137W        W33606   5.593   2.718  11.912  0.2933  0.1514  0.1607
18138W        W33607   9.289   2.194  15.312 -0.0936 -0.0554 -0.0521
18139W        W33608  17.605  11.630   4.559  0.0831 -0.0303 -0.1889
18140W        W33609  15.012  11.254   1.093 -0.1378  0.3162  0.0805
18141W        W33610   1.391   9.555   2.312 -0.1307  0.1669 -0.5158
18142W        W33611   6.563   1.899   5.293  0.2183 -0.1857  0.1243
18143W        W33612  11.473  17.291   3.654  0.0766 -0.0187 -0.0418
18144W        W33613   2.405   9.479   3.033  0.2862 -0.2475  0.0779
18145W        W33614   0.813  11.218  14.209 -0.0070 -0.2115  0.1546
18146W        W33615   6.358   6.932  12.662 -0.2319  0.1720  0.0645
18147W        W33616  17.323  13.712  13.539  0.2090  0.2842 -0.0044
18148W        W33617   7.436   1.359  12.005  0.0831  0.1002 -0.1430
18149W        W33618   1.777   1.285  14.573 -0.1577  0.1243 -0.0193
18150W        W33619  10.406  14.217   4.127 -0.0165  0.1722  0.3150
18151W        W33620  12.875   3.476  12.155 -0.2671  0.0631  0.3007
18152W        W33621   3.611  18.169  11.377  0.2734  0.0344  0.0147
18153W        W33622   8.365  15.000  14.020 -0.1988 -0.0231  0.3223
18154W        W33623   4.349   8.170   3.242 -0.1823 -0.0749 -0.2632
18155W        W33624   8.574  18.332   0.025 -0.1294 -0.0508  0.0195
18156W        W33625  10.452   9.514   0.321  0.0986  0.0404 -0.0133
18157W        W33626  11.125   8.846   9.703  0.2593 -0.1988 -0.2258
18158W        W33627  17.221   1.020   2.839 -0.0172  0.2975  0.1199
18159W        W33628  18.897   5.371   3.930  0.2632  0.4472  0.0378
18160W        W33629  16.250   3.415  14.050 -0.2149  0.0407 -0.1735
18161W        W33630  12.709  17.424  11.422  0.2018 -0.0361 -0.1280
18162W        W33631   4.953  13.288  14.142 -0.0751  0.1340  0.0892
18163W        W33632  13.994  11.119   1.346 -0.1418 -0.0544  0.1146
18164W        W33633  11.194  17.331  11.323  0.3051 -0.1646 -0.5615
18165W        W33634  17.341  16.092  14.654  0.3530 -0.0880  0.0986
18166W        W33635   8.023  14.795  13.730  0.3083  0.5541 -0.0469
18167W        W33636  18.421   4.346  11.543  0.1499 -0.0468 -0.0286
18168W        W33637   1.454   9.317  10.829  0.2463  0.1116  0.0357
18169W        W33638   2.501   0.208  11.822 -0.3137 -0.0981  0.0972
18170W        W33639  18.026  17.085  10.928  0.0477 -0.1664  0.0134
18171W        W33640  18.966   3.532   1.400  0.0206  0.0024  0.1991
18172W        W33641   3.247   8.620  14.308 -0.0399  0.0018 -0.0012
18173W        W33642  17.392  13.141  11.055 -0.1377  0.0974  0.0301
18174W        W33643  15.801  13.535  10.624  0.1295 -0.1373  0.0204
18175W        W33644  17.560   3.611  14.287 -0.1359 -0.0079  0.1952
18176W        W33645  10.808  10.154   4.923  0.1751 -0.1775 -0.0920
18177W        W33646  18.839  13.049  13.461 -0.0601  0.0696 -0.3077
18178W        W33647   5.313  14.659  10.225 -0.0847  0.3534 -0.1619
18179W        W33648   5.650  11.610   2.135 -0.2277  0.1650 -0.1689
18180W        W33649   4.623   7.910   3.573  0.1448 -0.0426  0.0487
18181W        W33650  10.186  18.952  15.215 -0.3416 -0.2403 -0.1255
18182W        W33651  17.334   3.026   5.167  0.1552  0.2582  0.0724
18183W        W33652   5.751  16.882   3.390 -0.0560 -0.0281 -0.2105
18184W        W33653   4.412  16.366  14.603  0.2584  0.3354 -0.2175
18185W        W33654  16.879  14.510  12.187  0.1734 -0.1897 -0.2097
18186W        W33655   1.498  17.562  14.601 -0.2198  0.3988  0.0116
18187W        W33656  18.305   2.307   4.440  0.0791  0.4089  0.1863
18188W        W33657   1.237   6.686  13.108 -0.0435 -0.1595  0.3207
18189W        W33658  18.058  15.980   1.867 -0.2239 -0.2793 -0.0668
18190W        W33659   7.581   4.435  12.874 -0.0641  0.2794  0.4493
18191W        W33660  11.968  13.844  13.336  0.1601  0.0597 -0.0533
18192W        W33661  13.170   5.087  14.538 -0.0119  0.0932  0.1416
18193W        W33662  14.301  18.808   0.922  0.0464 -0.4483 -0.5307
18194W        W33663  10.149   5.766   0.359 -0.2422 -0.0476  0.0643
18195W        W33664   9.276   1.077   4.454  0.2199  0.1170 -0.3633
18196W        W33665   1.776   7.026   0.102 -0.2366  0.4846  0.1245
18197W        W33666   9.995  13.626  14.220  0.0029 -0.2911  0.1485
18198W        W33667  16.121   4.588   1.858  0.1315 -0.0005 -0.0354
18199W        W33668   6.278  10.675  15.240  0.1267 -0.0389  0.0828
18200W        W33669   0.574  12.168   2.724 -0.2185 -0.1462  0.0132
18201W        W33670  10.665  18.846  15.179  0.2686 -0.2338  0.0314
18202W        W33671  14.315  11.190  11.290  0.1169  0.0467  0.0658
18203W        W33672   4.825  16.631  14.322  0.1282 -0.0245 -0.2473
18204W        W33673  18.476  15.751   2.024  0.6052 -0.3220  0.2243
18205W        W33674   7.909   9.222   1.415 -0.1495 -0.2642 -0.2327
18206W        W33675   1.274  18.351   1.662 -0.3260  0.1269  0.2903
18207W        W33676  12.719  10.099   0.568 -0.2072 -0.0244  0.0797
18208W        W33677  11.304  12.505   3.369 -0.2307  0.2036 -0.1150
18209W        W33678   0.095   9.358   0.998  0.0681  0.1233  0.2203
18210W        W33679   2.655   9.676  15.194 -0.1304 -0.1180 -0.0206
18211W        W33680  10.549   8.540  11.137  0.1303 -0.0714 -0.0917
18212W        W33681   9.289   7.493   2.224  0.0776 -0.1590 -0.0810
18213W        W33682   8.247   7.823  10.938  0.3851 -0.4920  0.3941
18214W        W33683  17.307  14.601  11.330 -0.2605  0.1322 -0.0486
18215W        W33684  14.637   7.774  11.986  0.0851  0.1057 -0.0775
18216W        W33685  11.809  17.129   4.079  0.3711 -0.0881  0.0336
18217W        W33686  18.708   7.910  12.205  0.0076 -0.0237  0.5014
18218W        W33687  15.096  18.841  13.989  0.1584 -0.0132  0.0064
18219W        W33688  11.435  12.643  10.475  0.0235  0.3908 -0.0650
18220W        W33689  11.114  18.899  14.791  0.3766 -0.0040  0.3263
18221W        W33690  13.424   1.435  11.159 -0.0775  0.2368 -0.0337
18222W        W33691  13.319   6.260   1.450  0.0148 -0.1965  0.1560
18223W        W33692  15.161   1.806  11.866  0.1831  0.2810  0.1145
18224W        W33693  16.141   1.940  14.295 -0.0251 -0.0378  0.0410
18225W        W33694  10.511   5.539   0.602 -0.0804  0.3473  0.0110
18226W        W33695  18.152  16.763  12.083  0.2667 -0.3540 -0.2718
18227W        W33696  11.337  13.888   3.759  0.0453  0.0150  0.4045
18228W        W33697   8.397  15.532  13.624  0.0018 -0.1675 -0.1891
18229W        W33698  16.771  11.839   0.677 -0.0182  0.1058 -0.4727
18230W        W33699  13.242   7.237  12.643  0.1450  0.1894  0.0049
18231W        W33700   2.698   7.624   2.260 -0.6509  0.0897  0.1311
18232W        W33701  16.004  14.307   3.789  0.5609 -0.0602  0.3748
18233W        W33702  17.639   8.368  11.465 -0.1141  0.2888  0.1396
18234W        W33703   4.171  18.228  11.469  0.1195 -0.0573 -0.2946
18235W        W33704  10.479  15.874   2.918 -0.0275 -0.2080  0.0067
18236W        W33705  11.471   1.362   2.855 -0.2983 -0.2001 -0.1063
18237W        W33706  11.272  13.129   2.272 -0.3882  0.2014  0.2144
18238W        W33707  14.134  11.696  13.396  0.0865  0.0278 -0.0732
18239W        W33708   1.958   8.319   1.480 -0.1639  0.2231 -0.0714
18240W        W33709   5.362   9.436   1.458 -0.1857 -0.2215  0.2022
18241W        W33710   1.745   7.753  10.536 -0.0361 -0.0647 -0.0973
18242W        W33711   6.338  14.319  15.104  0.0571 -0.0929  0.1749
18243W        W33712   8.938  17.596   5.324 -0.0527 -0.1617 -0.1027
18244W        W33713   5.852  16.154   5.883 -0.0841  0.1411 -0.2673
18245W        W33714   1.231   5.729   2.226  0.1307  0.0561  0.0260
18246W        W33715   8.028   0.444  13.592  0.0721 -0.1401 -0.2324
18247W        W33716   2.104   5.488  11.904  0.0569  0.1122 -0.2548
18248W        W33717   8.556   6.485  12.157 -0.1694  0.0412 -0.0569
18249W        W33718  12.554  12.594  12.571 -0.1088 -0.2075  0.2988
18250W        W33719   4.473  16.622   5.232 -0.1776 -0.1731  0.2391
18251W        W33720   6.110   6.879  13.643 -0.1697 -0.0365 -0.0452
18252W        W33721   9.169  10.936  11.942  0.1829 -0.0889 -0.1595
18253W        W33722  18.142   7.151   4.295 -0.3095 -0.1767 -0.1618
18254W        W33723   7.861   2.608   4.699 -0.2122  0.1082  0.2858
18255W        W33724  13.704   6.111  11.847 -0.1426 -0.0270  0.0222
18256W        W33725   1.579   4.506   3.338  0.0000  0.0155  0.1886
18257W        W33726   0.848  18.958   2.222 -0.0571  0.4040  0.0197
18258W        W33727   4.070  15.853   0.989  0.0236 -0.1205  0.0924
18259W        W33728  14.002   9.419  14.384 -0.0034  0.2363 -0.1337
18260W        W33729  11.368  10.982  12.483 -0.2275  0.0316  0.1538
18261W        W33730  10.676  11.169  11.975  0.2085  0.2943  0.1802
18262W        W33731  13.416  18.489  11.379  0.0929 -0.0813 -0.1876
18263W        W33732  10.078   9.161   4.701  0.0825 -0.0077  0.2303
18264W        W33733   1.043   2.900  13.152  0.1681  0.0843  0.1038
18265W        W33734  16.890  15.937  10.731 -0.1105 -0.0294 -0.5492
18266W        W33735  15.262  12.146   2.213 -0.1912  0.0779 -0.2889
18267W        W33736  11.511   7.668   1.019  0.0403  0.0866  0.0650
18268W        W33737   3.295  11.208   3.918 -0.0574  0.3233  0.0078
18269W        W33738  11.843  13.675   3.235 -0.0463 -0.3138  0.0454
18270W        W33739  10.407   3.100  15.333 -0.0708  0.0290  0.0587
18271W        W33740   0.496   8.420  13.656 -0.2917  0.0494  0.1751
18272W        W33741  18.133  18.156  14.272  0.1920  0.2598 -0.2931
18273W        W33742   5.618   4.711   2.200 -0.0011  0.3832 -0.0451
18274W        W33743  17.791  11.292   2.281  0.1253 -0.0756 -0.1091
18275W        W33744   1.522   1.124  11.268  0.0927 -0.1130 -0.1777
18276W        W33745   7.208  15.049   3.540  0.0531 -0.0422  0.1033
18277W        W33746   2.691  13.740  11.648  0.4454 -0.0553 -0.0218
18278W        W33747   9.612  11.668  12.216 -0.0823  0.0271  0.0443
18279W        W33748   2.545   5.932   4.589  0.0928  0.0660 -0.0235
18280W        W33749   5.187  11.877   4.440  0.0248 -0.3164  0.0632
18281W        W33750   0.468  17.542   0.184  0.1355  0.1659  0.1919
18282W        W33751  10.348   2.608  11.672  0.2361  0.1675 -0.0179
18283W        W33752   1.532   5.295   0.309  0.1444  0.1343  0.2165
18284W        W33753  16.903   2.986   1.452  0.0788 -0.1323 -0.3026
18285W        W33754   7.312  10.461   1.245 -0.3281 -0.0888  0.1528
18286W        W33755   8.365   7.329   2.885  0.2100 -0.0200  0.0306
18287W        W33756   3.277  10.256  13.754 -0.3584  0.2736 -0.3044
18288W        W33757   9.071  10.088  11.606 -0.2239 -0.2942  0.1624
18289W        W33758   4.840   2.012   6.085 -0.0712  0.2048 -0.1499
18290W        W33759   7.966   1.627   2.091 -0.1251  0.0774 -0.1557
18291W        W33760  18.084  16.504   1.525  0.0583  0.2468  0.0313
18292W        W33761  17.678   2.404   1.494 -0.2488  0.2637 -0.0910
18293W        W33762   8.290  15.577   3.746 -0.1618 -0.2031  0.2246
18294W        W33763  12.820  13.866  11.997  0.1833  0.2536 -0.0649
18295W        W33764   0.738   1.632   3.413  0.0602 -0.2539  0.0016
18296W        W33765  11.884  16.072  10.725  0.0151  0.3101 -0.0361
18297W        W33766   1.366   7.843   2.795 -0.1273  0.0454 -0.1215
18298W        W33767   9.571   8.883  13.610  0.0417 -0.0826 -0.2861
18299W        W33768   4.176   3.468   4.863  0.0222 -0.0359 -0.0292
18300W        W33769   2.413  14.181   1.167  0.0007 -0.3198  0.0670
18301W        W33770   5.463  11.289   0.061 -0.2854 -0.2100 -0.0915
18302W        W33771  14.158   5.606  14.343  0.1763  0.3942 -0.1254
18303W        W33772  18.232  15.152   1.111 -0.3014  0.1330  0.0700
18304W        W33773  18.133  15.704  12.054  0.1261 -0.3192  0.0365
18305W        W33774  11.269   9.599   0.734  0.1029 -0.1927 -0.2360
18306W        W33775   7.948  10.064  13.495 -0.0771  0.2966  0.3813
18307W        W33776   4.011   0.461  11.313  0.0571 -0.0956  0.3409
18308W        W33777   9.875   0.359   4.874 -0.3422  0.0503 -0.0566
18309W        W33778  13.651   0.769  11.746  0.0121  0.1897 -0.1297
18310W        W33779  11.524  11.105   1.569 -0.1057  0.0299  0.2340
18311W        W33780  16.812   4.604  12.369  0.1289  0.2124 -0.3642
18312W        W33781   7.406   7.808   2.717  0.2454 -0.5191  0.0977
18313W        W33782  10.724  18.541  12.668  0.0093 -0.4256  0.2182
18314W        W33783  17.653   7.426   2.924 -0.1477  0.2001 -0.1334
18315W        W33784   0.879   2.729  14.962 -0.0806 -0.1747 -0.1461
18316W        W33785   3.989   0.799  11.678 -0.0189  0.0182  0.1662
18317W        W33786  14.578   9.531   0.537  0.3220  0.0370  0.1676
18318W        W33787   1.064  15.854   0.377 -0.0231 -0.1454 -0.2367
18319W        W33788   2.879  16.636  11.162 -0.0858 -0.0286 -0.0700
18320W        W33789   7.935  12.347   2.122 -0.0217  0.4247  0.1738
18321W        W33790  10.102   8.194   1.025 -0.1714 -0.0337  0.0132
18322W        W33791  11.136  13.929  12.299  0.2772 -0.0493  0.0597
18323W        W33792  12.517  17.939   4.371 -0.0342 -0.1505  0.1761
18324W        W33793   9.059   9.748  13.057  0.2050  0.0168  0.0777
18325W        W33794  17.578   4.393  10.521  0.0434 -0.2143  0.2814
18326W        W33795  18.511  15.827   3.585  0.2742 -0.0385  0.1472
18327W        W33796  16.392  15.234   1.687 -0.3422  0.0662  0.0943
18328W        W33797  12.324   1.310   1.775  0.0245  0.0032 -0.0130
18329W        W33798   4.100  14.922   0.993 -0.0096  0.2525  0.0546
18330W        W33799   2.125   1.399   1.956 -0.0053 -0.1475 -0.1084
18331W        W33800  15.385   9.857  11.504  0.0136 -0.1880  0.1148
18332W        W33801  16.510   9.536  14.163 -0.1146  0.2942 -0.1858
18333W        W33802   6.660  11.492   0.313  0.1739  0.2463 -0.1510
18334W        W33803   5.142   5.286   4.826 -0.2360  0.0365  0.3960
18335W        W33804  10.831  17.524   2.082 -0.1424 -0.1032  0.1603
18336W        W33805  14.409  12.023   3.635  0.1220  0.1481 -0.0780
18337W        W33806  17.998   8.112  12.960 -0.0741 -0.2121 -0.0296
18338W        W33807   5.839   6.567   4.997 -0.1017  0.1454 -0.1473
18339W        W33808  16.032  17.035   4.760 -0.1412 -0.0647  0.1787
18340W        W33809  14.068  18.857   5.469 -0.0787 -0.0370 -0.1960
18341W        W33810   1.043   1.704  13.503 -0.0498  0.1053  0.0656
18342W        W33811   5.899  13.207  13.403  0.0370 -0.2742 -0.1324
18343W        W33812   1.023  14.932   2.974  0.0758  0.2226 -0.3494
18344W        W33813   7.399  10.794   3.139 -0.1052 -0.0686  0.0545
18345W        W33814  16.027   7.526   5.235 -0.0381  0.1729 -0.1853
18346W        W33815   8.562  10.833   3.510 -0.0841 -0.2579  0.1339
18347W        W33816   7.268   6.083  13.018 -0.1313 -0.0184  0.2251
18348W        W33817   5.982  12.708  11.829 -0.3755  0.1168  0.1502
18349W        W33818  18.864   3.539  14.009  0.0062  0.4772  0.1648
18350W        W33819  15.657   7.483  15.258  0.0330  0.0348  0.0058
18351W        W33820  17.377   2.457  12.558  0.1138 -0.1674 -0.0294
18352W        W33821  14.238  15.851  14.810 -0.1893  0.4169  0.2360
18353W        W33822  16.213  13.306   1.646  0.1703  0.1046 -0.1237
18354W        W33823  16.138  10.274   3.803  0.0243 -0.0505  0.1178
18355W        W33824   4.502   2.603   2.951  0.0420 -0.0648 -0.3886
18356W        W33825  15.664   3.456   4.251  0.1409  0.2441  0.2141
18357W        W33826   8.696  12.531   3.204  0.0474 -0.1129  0.2987
18358W        W33827  15.010  14.721  13.563 -0.1690  0.1420 -0.0331
18359W        W33828  14.643  12.584   0.200 -0.0137 -0.0690 -0.1897
18360W        W33829   7.223   9.520   3.389 -0.0697  0.0540  0.0141
18361W        W33830   8.772  16.873   4.766 -0.2490  0.0232  0.2199
18362W        W33831  12.436   0.981   1.403  0.0855 -0.0495  0.0723
18363W        W33832   0.263   6.345   1.103  0.4246  0.2571  0.2050
18364W        W33833   6.319  15.754  14.033  0.0721 -0.0385 -0.2136
18365W        W33834  13.038   3.747   1.859 -0.1168  0.3776  0.0874
18366W        W33835   1.676   1.948  12.273 -0.4027 -0.0322 -0.1750
18367W        W33836  11.586   4.428   5.522  0.0690 -0.1290 -0.1225
18368W        W33837   2.337  15.753   3.303  0.2115  0.0839  0.0774
18369W        W33838   9.361   7.404   1.327 -0.1100  0.0069 -0.3473
18370W        W33839   9.566  14.927   1.229 -0.0323 -0.0169  0.0641
18371W        W33840  18.083   9.911   0.371 -0.0366  0.0226 -0.0955
18372W        W33841   5.710   0.594   0.095 -0.1341 -0.2483 -0.1331
18373W        W33842   0.236   7.773   4.686  0.1617 -0.3268  0.1619
18374W        W33843  16.878   9.167   4.023 -0.0420 -0.0468 -0.0372
18375W        W33844  18.944  11.837   3.761  0.1933  0.0754 -0.0365
18376W        W33845  12.905  10.025  10.984 -0.0483  0.1062 -0.2811
18377W        W33846  15.863  14.864  11.422 -0.1174  0.0470 -0.2343
18378W        W33847   4.617   2.886  13.951 -0.0261 -0.0934 -0.1007
18379W        W33848  10.939   9.198  12.607 -0.1470  0.2227  0.0320
18380W        W33849  14.997  15.008  11.430  0.1086  0.1514  0.2133
18381W        W33850   2.409   0.939   3.574 -0.2902  0.3758  0.0559
18382W        W33851   1.119  18.939   3.606 -0.3922  0.2446 -0.1346
18383W        W33852   5.212  11.712   0.255  0.0481  0.1204 -0.0506
18384W        W33853  11.759  17.413  11.253 -0.2114 -0.1479  0.0166
18385W        W33854   7.445   4.038  14.371  0.0473  0.1029 -0.0540
18386W        W33855   9.194   2.241   3.125 -0.0713 -0.2214  0.2115
18387W        W33856   9.109  16.007   0.122  0.0068  0.1327  0.2914
18388W        W33857   6.104   0.862  10.976 -0.1602 -0.1808 -0.2839
18389W        W33858  17.155   0.636   3.594  0.2677 -0.1805  0.0091
18390W        W33859   3.594  18.620  13.463 -0.1018 -0.1362 -0.0485
18391W        W33860   1.258  15.349  14.020 -0.1174 -0.0254 -0.1319
18392W        W33861   1.885  13.714   1.713  0.0772  0.0636  0.2372
18393W        W33862   9.558   4.158  12.549  0.2456  0.4130  0.0265
18394W        W33863   9.055   8.061  13.381 -0.3317 -0.3652 -0.2674
18395W        W33864  17.500  16.660  10.344  0.2129  0.0146 -0.1044
18396W        W33865   6.506  16.368  10.548 -0.1597 -0.0290 -0.2782
18397W        W33866   7.947   3.426   3.881  0.0901 -0.2658 -0.2433
18398W        W33867   7.105  14.925   4.045  0.0096  0.0433  0.1119
18399W        W33868   0.813  13.261   3.204  0.2811 -0.0150 -0.3005
18400W        W33869  10.622   7.003   3.056  0.0867  0.0063 -0.1650
18401W        W33870   4.334  12.218   1.131  0.0895 -0.3476  0.1471
18402W        W33871  12.389   5.326   1.174  0.3114 -0.1923  0.0642
18403W        W33872   5.614   1.096   0.194  0.1530  0.0931 -0.0453
18404W        W33873   9.070   9.649  13.954  0.4019  0.0015 -0.1814
18405W        W33874   3.186  12.014  11.707 -0.2451  0.2981  0.1381
18406W        W33875   4.157   8.478   4.692 -0.2066  0.0905  0.0455
18407W        W33876  11.471  17.459   5.830 -0.1276  0.2113 -0.0066
18408W        W33877   5.643   7.400   3.304 -0.1690 -0.2891  0.1604
18409W        W33878   7.529   2.160  12.277  0.3999 -0.1504  0.2482
18410W        W33879   0.020   3.470   4.415  0.0233  0.0602 -0.1721
18411W        W33880   0.682  10.669   1.648 -0.0502  0.1792 -0.1970
18412W        W33881   5.493   8.582   0.616 -0.2258 -0.4329 -0.3207
18413W        W33882   7.537  11.013  15.110 -0.2408 -0.0798 -0.3394
18414W        W33883  13.880   6.663   2.090 -0.2939 -0.0925 -0.0747
18415W        W33884   0.548  13.877  15.219  0.1001 -0.1840  0.0492
18416W        W33885  11.457  16.246  12.230 -0.0703 -0.2141  0.0974
18417W        W33886   4.168  18.643   0.831 -0.3597  0.0532 -0.0205
18418W        W33887   5.598   2.076  10.739 -0.1012  0.1304  0.3093
18419W        W33888   4.728   3.132  15.264 -0.0055 -0.2448  0.0615
18420W        W33889   1.842   1.805   1.795 -0.0668  0.0123  0.0712
18421W        W33890  16.504   8.163  14.349 -0.3150  0.2514 -0.0030
18422W        W33891  16.336  13.383   0.394 -0.0296  0.0382 -0.3531
18423W        W33892   3.641   6.185  13.114  0.1802 -0.1554  0.2315
18424W        W33893  17.857   8.485  10.508 -0.2257 -0.0219 -0.3351
18425W        W33894   1.577   7.205   1.930 -0.4165  0.0946 -0.2780
18426W        W33895  15.362  14.782   3.010  0.1398  0.1090  0.0754
18427W        W33896  14.668  13.182  13.843  0.0043  0.0259  0.0602
18428W        W33897   8.735  10.848  11.172  0.4465 -0.1731  0.3028
18429W        W33898  17.088   3.613   3.931  0.0403  0.2094 -0.0002
18430W        W33899   4.514  14.519   4.665  0.1093 -0.1144 -0.2473
18431W        W33900   3.296   8.284   1.161 -0.0721  0.0988 -0.2190
18432W        W33901   4.294   7.105  11.675 -0.1089  0.1721 -0.3970
18433W        W33902  17.306   5.358   4.504 -0.0488 -0.0280  0.0598
18434W        W33903  11.982  17.726   5.265 -0.0239  0.2399 -0.0163
18435W        W33904   3.678   6.622   3.404 -0.0257 -0.2315  0.0540
18436W        W33905  11.312   1.702   3.990  0.0250 -0.1893 -0.2402
18437W        W33906  12.684  17.547  13.747  0.1281 -0.0582 -0.0914
18438W        W33907   4.788   0.281  14.533  0.3400  0.0757  0.0366
18439W        W33908  13.162   1.379  12.655 -0.0507 -0.2342  0.0223
18440W        W33909   9.216  17.889  12.659  0.1544  0.0381  0.1210
18441W        W33910  14.856   8.581  11.992 -0.1508  0.2191  0.1043
18442W        W33911   8.573  10.940   2.993 -0.0531 -0.2948 -0.1037
18443W        W33912  15.704  11.937  13.551 -0.0040 -0.0930 -0.2405
18444W        W33913  10.098   7.499  10.368  0.3077  0.2507 -0.1219
18445W        W33914  14.940  18.438  10.434  0.1999  0.0772  0.0981
18446W        W33915   7.602  14.277   4.649  0.2077  0.2617 -0.0532
18447W        W33916   0.058   9.659   3.626  0.0488 -0.1877  0.0250
18448W        W33917  16.876   9.103   0.003  0.1835 -0.0693  0.1404
18449W        W33918  12.631   9.467   5.178 -0.0298  0.0484  0.1492
18450W        W33919   7.494   6.114   3.499 -0.2721  0.1273 -0.1243
18451W        W33920  17.820  15.853   0.809 -0.0196  0.0988 -0.0812
18452W        W33921  19.039   2.545   0.719  0.3068 -0.1873  0.0754
18453W        W33922  19.007  17.305   2.584  0.3423 -0.2984 -0.1861
18454W        W33923  16.495   8.694   3.135  0.1601  0.1451  0.2269
18455W        W33924   7.625   9.185   2.444 -0.3677 -0.1795 -0.1099
18456W        W33925   7.587   3.045  11.022 -0.1462  0.1988  0.0947
18457W        W33926  15.544  18.790   4.022 -0.1403 -0.0287  0.3325
18458W        W33927  18.424   7.067  14.388  0.0968  0.1625  0.1156
18459W        W33928   3.893   7.082  14.729 -0.1415  0.2057  0.0440
18460W        W33929   7.189   0.151  13.766  0.0722  0.0995  0.0456
18461W        W33930  16.677   0.632   4.513  0.0514 -0.2554 -0.2066
18462W        W33931   7.580  12.261   1.761  0.1338 -0.0534 -0.0715
18463W        W33932  16.255   5.393  15.254 -0.0993  0.0768 -0.1023
18464W        W33933   9.041  15.446   3.080  0.5669 -0.0208 -0.1272
18465W        W33934  11.620  16.159  12.774  0.1953  0.1757 -0.0617
18466W        W33935   5.507  14.287   3.665  0.2839 -0.0170 -0.4070
18467W        W33936  13.360   6.338   5.149 -0.0941  0.3122  0.1052
18468W        W33937  17.104   5.813   2.638  0.0516 -0.1774 -0.3358
18469W        W33938   5.476  10.516  11.808 -0.1998 -0.0571  0.1405
18470W        W33939   7.891   3.421  11.200 -0.2019 -0.1515  0.3541
18471W        W33940   0.701   1.150   3.340 -0.0349  0.0822  0.0806
18472W        W33941  14.290   7.312   2.250  0.0601 -0.2662 -0.1559
18473W        W33942   1.088  15.652   4.281 -0.2151  0.3702  0.4607
18474W        W33943  15.013  16.327   5.230 -0.0590  0.0011  0.4536
18475W        W33944   5.586   1.758   1.763 -0.2955 -0.1273  0.0330
18476W        W33945  13.051   9.767   4.080 -0.0069  0.1120  0.1646
18477W        W33946   7.556   8.098   2.331 -0.1102  0.2853 -0.0405
18478W        W33947   5.562   9.512  14.897  0.2993 -0.2654  0.0538
18479W        W33948  14.782   8.200   1.656 -0.0742 -0.0195  0.1153
18480W        W33949   4.674   1.078  13.239  0.1827  0.0784  0.1834
18481W        W33950  13.620   5.706  10.374  0.0678 -0.1174  0.0385
18482W        W33951   6.220  18.794   2.528  0.5625 -0.0177 -0.2735
18483W        W33952   5.142  12.355   5.349 -0.0148  0.1763 -0.2015
18484W        W33953   8.950   0.531  10.909  0.3556 -0.1644 -0.1206
18485W        W33954  10.680   4.972  14.168 -0.2259  0.2348 -0.2855
18486W        W33955  16.077   5.973   0.637 -0.1049 -0.3280 -0.1828
18487W        W33956  12.907   1.497  14.942 -0.1639 -0.1743  0.1102
18488W        W33957   2.372  15.136  11.434  0.2248 -0.3160 -0.0262
18489W        W33958  16.315  17.434  11.460 -0.2120 -0.1403  0.2633
18490W        W33959  12.969  13.902  14.241  0.1296  0.1870  0.1613
18491W        W33960   3.693  11.556  13.197 -0.1604 -0.0993 -0.1643
18492W        W33961  17.240   6.268   2.931  0.1933  0.0302 -0.2934
18493W        W33962   0.439   4.964  15.223  0.0539  0.2610 -0.0202
18494W        W33963  17.598   7.776  14.603  0.2388 -0.3600  0.2579
18495W        W33964  17.661  13.865  13.224  0.0542  0.3054 -0.1193
18496W        W33965   7.837  16.163   1.596 -0.1587  0.1277 -0.0729
18497W        W33966  13.284   3.401  14.476 -0.1661  0.0779 -0.0554
18498W        W33967   7.350  13.442   4.284 -0.3067 -0.1477  0.1393
18499W        W33968  12.204  12.875   3.274  0.2103 -0.0100 -0.1571
18500W        W33969   1.516  10.499   2.282  0.0892  0.0746  0.0082
18501W        W33970  12.808   6.545   0.590  0.1917 -0.2326  0.1770
18502W        W33971   8.319  17.880  13.911 -0.0329  0.0188  0.1332
18503W        W33972   2.731   3.474  13.863 -0.0036  0.0798 -0.1280
18504W        W33973   1.369   3.343  14.469  0.0345  0.2957 -0.0960
18505W        W33974   0.483  18.226  10.817 -0.1579 -0.2836  0.2099
18506W        W33975  12.743   2.066   5.857  0.1379  0.1938 -0.1543
18507W        W33976  12.050   9.180  13.804  0.0891  0.1357 -0.4636
18508W        W33977   6.395   8.732   1.489  0.0535  0.0472  0.1636
18509W        W33978  17.601   2.763  10.912  0.4328 -0.3043  0.4545
18510W        W33979  10.747   6.793   3.534  0.0190  0.2797  0.1544
18511W        W33980   2.960   7.673  14.222 -0.0205  0.1661  0.0146
18512W        W33981   5.724  14.946   1.129 -0.2852  0.3662  0.1703
18513W        W33982  15.320  16.268   0.001 -0.1109 -0.3038 -0.2278
18514W        W33983  14.412  10.961  10.830  0.0099 -0.2660 -0.0406
18515W        W33984  11.671   7.263  12.994  0.0404  0.2567 -0.2119
18516W        W33985   3.822   2.915   2.757  0.2463  0.2179  0.1598
18517W        W33986   3.852  18.825  12.098 -0.1001 -0.1941  0.3148
18518W        W33987  11.263  11.351   2.808 -0.1697  0.2606  0.1082
18519W        W33988  11.088   2.568  13.860  0.2541  0.2086  0.3452
18520W        W33989   2.242  15.014  11.917  0.1057  0.3533  0.1258
18521W        W33990  12.211  13.772  12.160 -0.2639 -0.0989  0.2677
18522W        W33991   5.420   7.798   3.235 -0.0619  0.1980  0.1295
18523W        W33992   7.223   4.285   5.432  0.1391 -0.3084 -0.1409
18524W        W33993  16.588  13.085   5.108 -0.2328  0.0827  0.6206
18525W        W33994  14.820   5.391  13.810 -0.0957  0.0982 -0.1813
18526W        W33995  12.740   7.304  12.780 -0.1629 -0.1498  0.2920
18527W        W33996  13.056  16.088   3.297  0.0458 -0.0804 -0.4396
18528W        W33997   1.785  12.521   0.640  0.0045 -0.5183  0.3082
18529W        W33998  18.444  15.754  11.517 -0.0309 -0.2703 -0.1737
18530W        W33999   6.569   1.068   2.037 -0.1386  0.1951 -0.0219
18531W        W34000  17.244  16.304   2.103  0.0824 -0.0263  0.3476
18532W        W34001   2.746  14.720   1.960  0.1392 -0.0383  0.0862
18533W        W34002   0.693   1.939   4.744 -0.0569  0.3093  0.0255
18534W        W34003  10.088   2.791   0.285 -0.1006  0.1335  0.1926
18535W        W34004   8.837   3.201  13.074  0.3523 -0.1461  0.1114
18536W        W34005  11.370  10.730   9.523  0.4608  0.1997 -0.1871
18537W        W34006   6.094  14.102  11.826 -0.2581 -0.5732 -0.0412
18538W        W34007  10.316  16.332   0.790  0.0502  0.0342 -0.3195
18539W        W34008   3.996  13.935   2.889 -0.1447  0.0896 -0.0963
18540W        W34009   3.498   5.854  12.280  0.1408  0.1486  0.1773
18541W        W34010   9.114   4.479   4.374 -0.0905  0.3947  0.1878
18542W        W34011   7.448  15.797  11.260  0.3683  0.2923 -0.1144
18543W        W34012   5.644  15.928  14.885  0.2963  0.0803 -0.0310
18544W        W34013  16.952   4.851  11.971 -0.2796  0.1098 -0.0854
18545W        W34014   2.878   3.405   2.087  0.0033 -0.1515 -0.2029
18546W        W34015  18.892  12.410   3.545  0.3021 -0.1869  0.2837
18547W        W34016  12.817   2.655   5.936  0.0207  0.0581  0.0887
18548W        W34017   1.896   1.614   0.918  0.0736 -0.1319  0.0182
18549W        W34018   3.217   1.673  15.329 -0.0309  0.0105  0.2180
18550W        W34019  14.252  17.864   0.578 -0.0266  0.0025  0.2404
18551W        W34020   5.580   0.993   3.716  0.0610  0.1842 -0.2357
18552W        W34021   3.897   7.050   5.642 -0.2605 -0.0001  0.0578
18553W        W34022  12.622   7.346  10.812  0.1378  0.0784  0.1642
18554W        W34023   4.493  10.698   0.459 -0.1168 -0.2489 -0.1666
18555W        W34024  10.305   8.226   4.458  0.0946 -0.3062  0.2498
18556W        W34025   4.982  17.686   0.795  0.0746  0.2079  0.2549
18557W        W34026  18.558  11.355  11.806  0.2618  0.2714  0.0107
18558W        W34027   1.026  10.964  11.064  0.0494  0.0841  0.1988
18559W        W34028  14.584   5.126  14.268 -0.2963  0.3464  0.1775
18560W        W34029   6.962   6.482   0.268 -0.0601 -0.0037 -0.2067
18561W        W34030  12.896  10.873   1.257  0.0369 -0.0630 -0.0464
18562W        W34031  13.366  17.661   0.959 -0.1785 -0.1777 -0.0513
18563W        W34032   1.088   9.373  12.200  0.0017 -0.0776  0.4677
18564W        W34033   5.460   4.310   4.687  0.0925  0.3764  0.3694
18565W        W34034  11.196  11.293  10.403 -0.0093 -0.1224 -0.0529
18566W        W34035   1.843   3.198   1.255 -0.2132  0.2422 -0.0274
18567W        W34036  16.934   3.136   4.163 -0.1266  0.1809 -0.6310
18568W        W34037  16.546  14.463  14.470  0.0479  0.4366 -0.0180
18569W        W34038  14.147   2.412   3.897 -0.0011 -0.3863  0.1266
18570W        W34039   4.121   4.827  14.509 -0.1546  0.1056  0.1810
18571W        W34040  15.254  15.365  10.986  0.0784 -0.2005  0.2340
18572W        W34041   3.395   6.038  14.665  0.2227  0.0125 -0.0353
18573W        W34042  17.151  16.966   9.629 -0.1173  0.1116 -0.0509
18574W        W34043  10.179   2.172  14.837 -0.0596 -0.0016 -0.1672
18575W        W34044  17.153   9.699  11.132  0.3070 -0.1106  0.0057
18576W        W34045  13.085   7.615   1.293 -0.0424 -0.0131 -0.2177
18577W        W34046  11.392  17.623   4.458  0.0436 -0.5394 -0.0238
18578W        W34047  14.441   5.169   2.724 -0.0817 -0.0618  0.1459
18579W        W34048  15.578  15.815  14.953  0.0615 -0.1364 -0.1039
18580W        W34049   0.558   1.939   3.085 -0.0943  0.0361 -0.0567
18581W        W34050  13.820   7.257  12.627 -0.0441  0.1553  0.1614
18582W        W34051   0.129   9.479  11.637 -0.1131  0.2010  0.2156
18583W        W34052   4.232   9.422   4.822 -0.0620  0.1928  0.0442
18584W        W34053  10.648   1.734   3.280 -0.1392 -0.2596  0.4406
18585W        W34054  18.357   9.602   1.590  0.0211  0.3549 -0.1083
18586W        W34055  17.663   2.543  11.592 -0.1090 -0.2780  0.2498
18587W        W34056   6.902   9.453  13.825 -0.0496  0.5007 -0.3550
18588W        W34057  15.305  13.606  11.502 -0.0688 -0.0123  0.0259
18589W        W34058   6.135   7.716  14.502  0.3610  0.0051 -0.1060
18590W        W34059   2.784  12.373  10.287 -0.0974  0.0251  0.0000
18591W        W34060  13.642  18.426   2.430  0.1887  0.3428  0.3522
18592W        W34061  14.762   2.187   0.437  0.2486 -0.3122 -0.0164
18593W        W34062  13.572   4.004  14.673 -0.2935  0.1266  0.1956
18594W        W34063  10.611   2.625  12.090  0.1939 -0.1354 -0.4030
18595W        W34064  11.514  12.771   2.463 -0.0274 -0.2165  0.0281
18596W        W34065   7.763   5.828  14.488 -0.1862 -0.0474  0.0469
18597W        W34066  12.528  18.477  13.491  0.2208 -0.2164  0.3431
18598W        W34067  13.573  14.650  11.733  0.1330 -0.1339 -0.1535
18599W        W34068  10.449   7.762  11.091 -0.3388  0.5253  0.0864
18600W        W34069  16.206  14.289   0.518  0.2739  0.0740  0.0882
18601W        W34070  17.394  17.056  12.450 -0.1349  0.0115 -0.0050
18602W        W34071  16.936   0.601  11.208 -0.3033 -0.0499  0.2402
18603W        W34072   6.323   8.625   0.049  0.0931  0.1406  0.4912
18604W        W34073  12.257   6.031   2.844 -0.1425 -0.3561 -0.1083
18605W        W34074   4.684   7.770  15.017  0.0167  0.1284 -0.0268
18606W        W34075   3.705  10.398  12.288  0.0400  0.2154 -0.3608
18607W        W34076   7.017  16.626   1.544 -0.5895 -0.0725  0.1667
18608W        W34077  14.013  10.914   0.893 -0.3290  0.1018  0.1337
18609W        W34078   9.303  10.278  14.670 -0.1901  0.1011 -0.2222
18610W        W34079  18.516  12.101   5.179 -0.1348 -0.3923 -0.0866
18611W        W34080   6.468   4.297   3.792 -0.3431  0.0516  0.0835
18612W        W34081  12.411   6.989  14.160 -0.0044  0.0655  0.0285
18613W        W34082   1.862  11.388   3.461  0.1989 -0.0912  0.2402
18614W        W34083   9.183  16.555   1.599 -0.0967  0.0751 -0.0228
18615W        W34084  18.199   1.588  12.457  0.0960  0.3605 -0.3321
18616W        W34085   6.039   3.372   5.035  0.1759 -0.3441  0.0829
18617W        W34086  11.662   1.901   4.380 -0.0021  0.0029 -0.0424
18618W        W34087   2.852  18.753   3.540  0.1700 -0.0547 -0.1828
18619W        W34088   9.709   2.533   4.229 -0.0235 -0.0523  0.0365
18620W        W34089   5.342  18.865   2.463  0.4425 -0.2216 -0.0164
18621W        W34090   1.506   3.272   5.296  0.1330 -0.0086 -0.3331
18622W        W34091   9.700  15.490  11.033 -0.0819  0.4079 -0.1809
18623W        W34092   5.608  13.408   3.912  0.0691  0.0019  0.1533
18624W        W34093   6.862   8.616  15.216 -0.1521  0.3512  0.1151
18625W        W34094  15.259   1.493  14.297 -0.4716  0.0108  0.0660
18626W        W34095  12.055  17.077   2.010  0.1445 -0.0534 -0.2309
18627W        W34096   5.200  17.077   5.615 -0.2493  0.2720  0.3194
18628W        W34097  11.875   3.465   2.152  0.0684 -0.0559 -0.2660
18629W        W34098   6.432   6.614  14.828 -0.0272 -0.3328  0.3571
18630W        W34099  11.574   8.391  11.712 -0.2568  0.2248 -0.0659
18631W        W34100  13.970   6.958   0.475 -0.4309 -0.1856  0.1630
18632W        W34101  13.771  18.418   2.910  0.1481 -0.1760  0.1638
18633W        W34102  11.397   6.398  14.696 -0.7262  0.0352  0.3633
18634W        W34103   1.682  12.404   2.066 -0.0866  0.1200  0.0718
18635W        W34104   6.043  11.499   3.123 -0.0272  0.0255  0.0467
18636W        W34105  10.124   0.198  12.488 -0.1866 -0.0345  0.1793
18637W        W34106   2.598  11.597   4.877 -0.1245 -0.2142 -0.1902
18638W        W34107  10.940   6.457   1.070  0.1214  0.3346  0.2449
18639W        W34108   3.969   0.563   0.488 -0.0389 -0.2687  0.0277
18640W        W34109   9.051  14.350   2.728  0.1114 -0.3102  0.0138
18641W        W34110  15.439  12.818   2.810 -0.1915 -0.0965 -0.2732
18642W        W34111   1.680   3.673  12.305  0.1463 -0.1468 -0.3288
18643W        W34112  15.772   6.681   4.931  0.0932  0.0889  0.0790
18644W        W34113   6.737   5.950   1.965  0.0392 -0.2118  0.2084
18645W        W34114   1.946  11.655   1.616  0.0121 -0.0021 -0.3594
18646W        W34115   1.001   3.868  14.498  0.1747  0.3429  0.2689
18647W        W34116  13.699   7.763   0.807 -0.0652  0.0845  0.1032
18648W        W34117   8.662  13.021   1.967  0.1259  0.1569 -0.3025
18649W        W34118  15.515   0.623  11.297 -0.0873  0.0105 -0.0980
18650W        W34119   2.226   3.613  13.744 -0.3174 -0.1977  0.2193
18651W        W34120   9.469   1.544   2.443  0.3304 -0.3080 -0.0112
18652W        W34121   8.295  13.673  12.004  0.2493 -0.1686 -0.1943
18653W        W34122  14.602   2.666   0.423  0.1086  0.1072 -0.1818
18654W        W34123   3.029   7.157   3.548 -0.0189  0.0778  0.1727
18655W        W34124   7.757  13.482  14.692 -0.0628  0.0780  0.2937
18656W        W34125   2.387  10.760   1.492  0.1283 -0.1426  0.0280
18657W        W34126   3.151   1.539   5.014  0.0272 -0.0365 -0.1788
18658W        W34127  18.189  15.090  14.177  0.2055 -0.3201  0.0886
18659W        W34128   1.394   6.913   4.265 -0.3113 -0.1847  0.1957
18660W        W34129   8.852   9.327   0.986 -0.1022 -0.1730 -0.0981
18661W        W34130   1.750  15.871   2.984 -0.0010  0.0023  0.1699
18662W        W34131  17.395   9.281   4.050  0.0007  0.2679  0.1268
18663W        W34132  11.499  11.570  12.509  0.0503 -0.0172  0.0123
18664W        W34133   5.229  17.645  15.011 -0.1396 -0.0628  0.0514
18665W        W34134  16.991  14.364  14.789 -0.0075 -0.0367 -0.1113
18666W        W34135  10.395   8.860   3.490 -0.0036 -0.0258  0.1313
18667W        W34136   2.729  13.325  12.048 -0.2726 -0.1695 -0.0501
18668W        W34137  13.762  16.266  10.473 -0.1852  0.1609  0.2398
18669W        W34138  15.932  10.262   0.864  0.0727  0.4317 -0.1583
18670W        W34139   6.835  11.068  14.160 -0.0256 -0.0901 -0.3057
18671W        W34140   1.614   8.781  10.933 -0.2220  0.1037 -0.1265
18672W        W34141  17.821   2.388   4.788 -0.1506  0.3429  0.1672
18673W        W34142   2.136  15.589  12.667 -0.0185  0.2431  0.2218
18674W        W34143  18.106   6.142  11.617 -0.1003 -0.3382  0.2849
18675W        W34144  14.145   6.621   5.717 -0.0441 -0.2369 -0.3647
18676W        W34145  16.942   8.280   1.040  0.0903 -0.0160  0.2866
18677W        W34146   7.427  12.523   4.156 -0.3997  0.3733 -0.0393
18678W        W34147   5.745  15.441  11.955 -0.4463  0.1944 -0.1109
18679W        W34148  13.524   4.085   3.268 -0.1143  0.2365 -0.1236
18680W        W34149   3.733  14.411   1.686 -0.0006  0.0725  0.1081
18681W        W34150  17.934   5.541   1.773  0.0419  0.0789  0.3057
18682W        W34151  12.661   7.958   1.328  0.0954 -0.0223  0.3681
18683W        W34152  12.240  17.610  13.399 -0.0199  0.0162  0.1556
18684W        W34153   1.888   6.558   1.192 -0.0131  0.1037 -0.0741
18685W        W34154  16.683   7.023   2.053 -0.1963  0.0917  0.0973
18686W        W34155  17.958  10.166  12.956 -0.1596 -0.4319  0.2021
18687W        W34156   9.060   7.280  13.857  0.0860  0.3350 -0.1084
18688W        W34157   6.363   0.979  12.050  0.4068 -0.1873 -0.2021
18689W        W34158   2.223   6.101   1.332 -0.2852 -0.2799 -0.2741
18690W        W34159   4.603  14.365   1.396 -0.5893  0.0897  0.0245
18691W        W34160   7.872   6.774   1.273  0.2035 -0.1564  0.2318
18692W        W34161  13.383   0.548  10.783  0.3304 -0.0581  0.0003
18693W        W34162   0.309   0.170  11.743 -0.2635  0.0364 -0.2438
18694W        W34163  15.699  16.245   2.918  0.0044  0.1091 -0.0518
18695W        W34164   0.655   1.683  13.830  0.0252  0.3315 -0.1101
18696W        W34165  11.074   6.428   3.677 -0.1201 -0.0104  0.2236
18697W        W34166  18.477   3.187   3.082 -0.0731  0.0076  0.0462
18698W        W34167   1.535   9.815   1.739 -0.1008 -0.1351  0.2565
18699W        W34168   2.696   2.512  12.470  0.1956 -0.1823 -0.5382
18700W        W34169  11.805  11.462   1.987  0.1589 -0.1604  0.0202
18701W        W34170  11.617  10.014   0.694 -0.2419 -0.0307 -0.0165
18702W        W34171  12.521   0.894  14.488 -0.3568 -0.0310  0.3473
18703W        W34172   2.793   6.932  10.641 -0.1289 -0.1333  0.2298
18704W        W34173   2.486  19.009  14.803 -0.0430  0.0712 -0.0459
18705W        W34174   2.980   3.677   3.001 -0.1484 -0.0833 -0.0680
18706W        W34175   2.538  16.913   2.640 -0.1047 -0.3023 -0.2192
18707W        W34176   6.880   5.166   0.562 -0.0709  0.2289  0.1601
18708W        W34177  10.309  16.212   2.007 -0.2613 -0.0264 -0.2270
18709W        W34178  18.208   9.018   4.338  0.1396  0.0309  0.3477
18710W        W34179   7.118  13.335  13.538  0.2138 -0.2973  0.0268
18711W        W34180  14.761   3.214   4.384  0.2083  0.2608 -0.1350
18712W        W34181  13.317  17.228  12.212 -0.0931 -0.0076 -0.0296
18713W        W34182   4.055   7.344   4.140 -0.0535  0.0111  0.1081
18714W        W34183   5.584  12.973   0.826  0.2567 -0.1824  0.1250
18715W        W34184   8.754  10.306   9.470  0.4052  0.1373 -0.2273
18716W        W34185  14.439   9.993  12.911 -0.0388  0.1561  0.0007
18717W        W34186  17.027   1.899   1.789 -0.3390  0.1952  0.0100
18718W        W34187   9.352  19.032   2.619 -0.0324  0.3443  0.1127
18719W        W34188  11.177  12.135   2.333 -0.0756 -0.1201 -0.0073
18720W        W34189  10.711  18.776   1.916 -0.2171  0.0871  0.2301
18721W        W34190  17.561  18.735  11.121  0.1647 -0.0350 -0.0166
18722W        W34191  14.739   2.775   1.279  0.1369  0.2249 -0.3426
18723W        W34192   3.020  11.827  12.703  0.2363 -0.0771  0.0357
18724W        W34193  16.457   0.853  11.000  0.1421 -0.0155 -0.0761
18725W        W34194  15.651   4.531  12.221  0.1309  0.1005  0.2552
18726W        W34195  10.419   8.412   3.639 -0.0853  0.0760  0.0032
18727W        W34196  11.261  10.033   0.225 -0.0439 -0.0003 -0.1176
18728W        W34197   1.302  10.106  14.373  0.2067 -0.0660  0.1999
18729W        W34198  14.970   2.902  15.257 -0.0724  0.2396  0.1761
18730W        W34199  11.301  13.363   0.836 -0.2182  0.1744 -0.0288
18731W        W34200   5.091  13.532   4.151 -0.0940  0.1710 -0.3630
18732W        W34201   4.311  18.177  12.649 -0.1053  0.2005 -0.1502
18733W        W34202   0.127  14.293  14.389  0.0144  0.0470  0.0938
18734W        W34203   2.239  12.053  14.148 -0.0769  0.5287  0.0549
18735W        W34204  12.430   0.724  11.130 -0.2945 -0.0727  0.2170
18736W        W34205  14.116  13.661  10.614 -0.1294 -0.0675 -0.1914
18737W        W34206  12.913  11.718   4.109  0.1343 -0.3260  0.3153
18738W        W34207  16.200  13.446   3.284  0.1235  0.0221 -0.0104
18739W        W34208   4.338   2.951   3.607 -0.2568  0.1694 -0.0792
18740W        W34209  13.802  14.987  11.976 -0.1931  0.2122  0.0391
18741W        W34210  10.562   7.622   4.159  0.0553 -0.1074 -0.0908
18742W        W34211   0.583   2.133   4.295  0.0901 -0.1368  0.0554
18743W        W34212  14.393  18.081  13.216  0.0577  0.2224 -0.0451
18744W        W34213  15.006   8.540   3.766 -0.0809 -0.3989 -0.1360
18745W        W34214   4.917   9.067  15.167 -0.3523 -0.0717  0.1456
18746W        W34215   2.470  18.864  10.173 -0.3724 -0.0837  0.0569
18747W        W34216  16.866  11.082   1.687 -0.0316 -0.2136  0.4240
18748W        W34217   1.646   2.295  11.701 -0.1052 -0.1980 -0.0755
18749W        W34218  12.030   1.229   2.634 -0.1235 -0.3034  0.0441
18750W        W34219   2.188   7.939   1.952 -0.0605  0.2145 -0.0070
18751W        W34220   1.817  15.877  13.457  0.0182  0.0429 -0.1022
18752W        W34221   2.462   3.934   3.144  0.0550 -0.0403 -0.0087
18753W        W34222   1.899   7.273  12.367  0.3184 -0.2315  0.1268
18754W        W34223   1.183  17.187  14.479 -0.0091 -0.1140 -0.1910
18755W        W34224  17.462   9.883  13.589 -0.1945 -0.1463  0.0791
18756W        W34225  11.136  14.649   0.693 -0.2683 -0.0020 -0.4632
18757W        W34226  10.497  15.869  14.933 -0.1222  0.0894 -0.2425
18758W        W34227  12.258  16.373  12.659 -0.3124  0.0957 -0.2415
18759W        W34228  15.015   9.557   3.502 -0.0275 -0.1320 -0.0350
18760W        W34229  12.205  18.146  11.091 -0.0116 -0.3826  0.0077
18761W        W34230  14.662   0.925   9.258 -0.2051 -0.0305 -0.0960
18762W        W34231  11.881  11.174  12.460 -0.3825  0.0630  0.3363
18763W        W34232   4.611   2.869  10.950 -0.0780  0.0159 -0.1141
18764W        W34233   7.510  14.662   4.276  0.0437  0.1021  0.2435
18765W        W34234  10.710  14.830   0.523  0.0444  0.0118  0.1964
18766W        W34235  14.156   7.587   4.935  0.2725  0.0190 -0.1174
18767W        W34236  12.048   0.295  12.190  0.1164 -0.2522 -0.4160
18768W        W34237   5.250   1.211  14.606 -0.1493  0.1161  0.0442
18769W        W34238  16.878  10.158  14.677  0.3026 -0.0734  0.4219
18770W        W34239  18.957  16.035   4.129 -0.0507  0.2090  0.0550
18771W        W34240   5.478   5.296  14.915 -0.0089 -0.1655  0.1917
18772W        W34241  16.449  13.733  11.311 -0.0006  0.1687 -0.3429
18773W        W34242  15.725   4.191   3.550 -0.5882 -0.3357 -0.4070
18774W        W34243   3.067  11.408   4.780  0.1102 -0.2830 -0.0878
18775W        W34244   1.047  17.078  10.629 -0.1604  0.3525 -0.1040
18776W        W34245  10.316  13.723   5.019  0.1090 -0.0140 -0.0362
18777W        W34246  10.681   8.649  11.637 -0.2235  0.2243  0.1219
18778W        W34247  16.446   2.346   4.082  0.1069 -0.0379  0.0238
18779W        W34248  14.246  14.848  13.999  0.2337  0.1424 -0.0049
18780W        W34249   1.144  18.086  11.549 -0.0240  0.3516 -0.0222
18781W        W34250   5.946  13.591  12.088 -0.0854  0.4574 -0.1755
18782W        W34251   5.154   4.692   3.525 -0.0243  0.0836  0.3927
18783W        W34252  17.005  17.655  12.952 -0.3122 -0.2019  0.1966
18784W        W34253  15.001   1.705   0.250  0.2853  0.1736  0.1848
18785W        W34254   8.873  14.178  11.544 -0.0557 -0.2618  0.1740
18786W        W34255  11.703   9.677   1.836  0.1852 -0.3430 -0.2300
18787W        W34256   6.447   9.129   4.612  0.0603  0.1148  0.3886
18788W        W34257   8.672   0.351  14.773  0.3347 -0.2724 -0.1231
18789W        W34258   9.768   2.961   2.864  0.1537 -0.3610 -0.2126
18790W        W34259   6.178   7.122  12.152  0.2580  0.2372 -0.4288
18791W        W34260   4.046  12.787   0.467  0.0920 -0.3002 -0.0432
18792W        W34261   6.743  12.308  10.696 -0.0808 -0.0182 -0.0265
18793W        W34262   5.419   4.560   1.740  0.0229 -0.0356 -0.0523
18794W        W34263   5.680  15.619   3.356 -0.0108 -0.1149 -0.3568
18795W        W34264  16.017   0.738  13.038  0.0931 -0.0899  0.1493
18796W        W34265  12.941  17.804  14.995 -0.1582 -0.1126  0.0828
18797W        W34266   3.152  14.389   1.964 -0.1968 -0.3276  0.2814
18798W        W34267  14.045   7.959   4.559  0.1388 -0.0413  0.0976
18799W        W34268  13.774   4.558   3.195 -0.1983  0.0762 -0.0584
18800W        W34269   7.931  10.203   3.942  0.1300 -0.2447 -0.4679
18801W        W34270   4.982  10.496   1.751 -0.0764 -0.2512  0.3527
18802W        W34271   4.631   9.050  14.792  0.2575  0.3840 -0.2869
18803W        W34272   0.065  15.260  13.478 -0.0350  0.1516  0.0099
18804W        W34273  18.226   8.126   1.223 -0.0160 -0.0709  0.0483
18805W        W34274  11.060  18.119   0.432 -0.1588 -0.1953 -0.1756
18806W        W34275  18.734  16.004  10.389 -0.0545  0.2493  0.0767
18807W        W34276  18.885  15.295   0.458 -0.0515  0.2396 -0.4822
18808W        W34277  10.644   6.773   2.286 -0.1440 -0.3964 -0.1581
18809W        W34278  13.432  18.139  14.143 -0.1563 -0.0267 -0.1141
18810W        W34279  16.606   9.519  15.359  0.3785  0.0092  0.0532
18811W        W34280   0.505   8.258  12.168  0.0084  0.2404 -0.1345
18812W        W34281  18.923  14.231   2.402 -0.3019  0.2072  0.0114
18813W        W34282   7.598  10.223   4.472  0.0162  0.0595 -0.1244
18814W        W34283  11.782   1.322  14.344 -0.2074  0.0500 -0.0544
18815W        W34284  14.524   3.829   0.877 -0.0649 -0.1080 -0.1872
18816W        W34285   8.645  15.905   3.933  0.2237  0.1734 -0.0641
18817W        W34286   2.964  17.802  11.672  0.0270 -0.0229 -0.3037
18818W        W34287  18.722   5.613   0.068  0.1652  0.1269  0.0220
18819W        W34288   0.315   5.266   5.269 -0.1798 -0.0603 -0.1173
18820W        W34289  15.584  18.115  14.004 -0.0547  0.0278  0.2688
18821W        W34290   4.522  12.923   3.973  0.2807 -0.1687 -0.1510
18822W        W34291   9.272  15.172  10.968 -0.1847 -0.1468  0.2470
18823W        W34292  14.531   6.898   5.473  0.2908  0.1608  0.2027
18824W        W34293   2.891  17.447   1.606  0.1391 -0.1239 -0.0224
18825W        W34294   4.664   1.144   3.379 -0.0318  0.3622 -0.3689
18826W        W34295  18.187   2.551   0.223  0.0987  0.2249 -0.2178
18827W        W34296  18.535  12.570   2.598 -0.0275 -0.0195 -0.2714
18828W        W34297  13.356   0.836  12.455  0.0723 -0.2295  0.1134
18829W        W34298   5.966   1.608   3.302  0.0756  0.3815  0.1493
18830W        W34299   2.604   9.760   0.646 -0.3182  0.0216  0.1324
18831W        W34300  16.415  10.373   5.701 -0.1626  0.1043 -0.1465
18832W        W34301  15.919   5.252  10.056 -0.1797 -0.0928 -0.1532
18833W        W34302  11.784  11.263   0.078  0.1110  0.0660  0.0907
18834W        W34303   3.827  12.038  12.869  0.0541 -0.2235 -0.0299
18835W        W34304   9.089  10.669  13.334 -0.2456  0.3978  0.2724
18836W        W34305   9.387   0.023   4.064  0.1519  0.0875  0.2663
18837W        W34306  14.265   8.512  10.797 -0.1393  0.5455 -0.1201
18838W        W34307   3.739  10.381   0.854  0.3111 -0.0482 -0.1781
18839W        W34308   5.677   3.214  11.833 -0.0679 -0.1057 -0.1559
18840W        W34309  11.383  18.723  11.325  0.3785  0.2128  0.0523
18841W        W34310   8.188   6.057   1.794 -0.5500 -0.3765  0.0580
18842W        W34311  15.343   7.928  10.457  0.1416 -0.1492  0.1046
18843W        W34312   5.076   7.999  13.153 -0.0163  0.2262 -0.0410
18844W        W34313  18.965   8.921  14.149  0.1145  0.6496 -0.1462
18845W        W34314   1.093   1.157  11.754  0.0390 -0.2558 -0.2737
18846W        W34315  17.944  10.643  13.213 -0.2839 -0.4013 -0.0601
18847W        W34316  14.429   7.333   3.541 -0.1226 -0.0206  0.3312
18848W        W34317   5.228  14.224  11.158  0.0941  0.1871  0.1405
18849W        W34318   9.062   5.926   2.023  0.1219  0.0549  0.2963
18850W        W34319   5.019   7.087   4.372 -0.0539 -0.5070 -0.0487
18851W        W34320  15.856  14.677  12.682  0.1124  0.1056 -0.2992
18852W        W34321  11.009   2.521  14.363 -0.1514 -0.1324  0.3262
18853W        W34322   4.472  12.404   2.676 -0.0185 -0.1403 -0.0521
18854W        W34323   8.355  18.642  15.088  0.1581  0.0573  0.0603
18855W        W34324   4.358   4.077   4.893  0.1593 -0.1522  0.1592
18856W        W34325  14.356   6.077   2.964  0.0503  0.1218  0.3254
18857W        W34326   2.180   9.026   3.974 -0.0388  0.3218  0.1430
18858W        W34327   1.615  13.817   0.565  0.1337 -0.0115  0.1222
18859W        W34328  18.781   4.696  14.420 -0.3446 -0.2647 -0.0999
18860W        W34329   3.939   0.924  11.070 -0.1103  0.4350  0.1486
18861W        W34330   4.469   3.624  15.298 -0.1879 -0.2146  0.1603
18862W        W34331   0.965  15.336   1.854 -0.1201  0.0290 -0.1006
18863W        W34332   4.313   8.271  14.241 -0.0679 -0.0259  0.1906
18864W        W34333   7.366   2.409   1.086 -0.2320 -0.1491 -0.0436
18865W        W34334  13.573   8.308  11.687 -0.1071 -0.1365 -0.2501
18866W        W34335   7.383   1.505  13.079  0.2550  0.1764 -0.0227
18867W        W34336  11.535   9.640  11.438 -0.0770  0.1382 -0.0045
18868W        W34337  11.075  12.610   2.309 -0.0384 -0.0884  0.1257
18869W        W34338   2.290  16.343  10.126  0.2194  0.1501 -0.1453
18870W        W34339  10.638  12.427  11.534 -0.2211 -0.1981  0.3755
18871W        W34340   7.094  11.457   2.344  0.0027  0.2742  0.0259
18872W        W34341   0.807  16.338  14.233  0.1285 -0.3656  0.1968
18873W        W34342  14.617  10.000   4.015  0.0079  0.0001 -0.3080
18874W        W34343   8.453  16.148  10.518 -0.0326 -0.2429  0.0579
18875W        W34344  11.550   9.792  10.877 -0.0284 -0.1935  0.0526
18876W        W34345   6.395  11.656   3.503  0.0257  0.0159  0.2849
18877W        W34346   6.093  10.119  12.316  0.4445  0.0166 -0.0182
18878W        W34347   7.593  18.045   9.694  0.3184 -0.1494 -0.1964
18879W        W34348   3.270  10.944   0.950 -0.0376 -0.0346  0.2227
18880W        W34349  18.997  15.627   0.947  0.2377  0.0202  0.1083
18881W        W34350   8.789   0.954  14.989  0.0082  0.0542 -0.0846
18882W        W34351   7.187   8.624   2.007  0.2433 -0.4223  0.0789
18883W        W34352   4.962   3.543  10.257 -0.1895 -0.0958 -0.2670
18884W        W34353  17.676  14.011   3.484  0.0882 -0.2104  0.1792
18885W        W34354   3.948  12.021  14.086 -0.3873  0.3718  0.0247
18886W        W34355   7.730  12.870   5.842 -0.1075 -0.0130 -0.1465
18887W        W34356  15.195  16.171  14.823  0.1174  0.0775  0.0268
18888W        W34357  10.579   7.763   2.473 -0.1574  0.3200  0.0932
18889W        W34358   9.273  18.919   1.993 -0.0577 -0.1866  0.2301
18890W        W34359  16.888   6.210  11.988  0.2354  0.0787  0.1102
18891W        W34360  14.589  11.944  13.384  0.0683  0.0494 -0.2826
18892W        W34361  13.515   1.592  13.972  0.0199  0.0433  0.1740
18893W        W34362  11.015  11.513  15.257 -0.3022  0.2199 -0.4211
18894W        W34363  17.464  16.149  13.673  0.3562 -0.0700 -0.2276
18895W        W34364  13.517   9.658   2.879  0.1506 -0.1859  0.2500
18896W        W34365   6.324   0.383  13.298  0.0237 -0.0707  0.4274
18897W        W34366  17.981  12.896   5.224  0.5750  0.1992  0.0363
18898W        W34367   5.007   4.779  11.539  0.2634  0.2551 -0.0664
18899W        W34368   7.969  14.180   0.666  0.3338 -0.0908 -0.0197
18900W        W34369   0.557   7.085   5.201 -0.2440  0.1759  0.2436
18901W        W34370  15.136  18.489   0.426  0.1163  0.3050  0.0720
18902W        W34371  11.214   5.077   1.823 -0.0762  0.0348  0.2224
18903W        W34372  15.711  16.822  15.230  0.2488  0.3914 -0.0591
18904W        W34373  10.118   5.747  14.691  0.0099 -0.2384  0.0334
18905W        W34374  13.028   8.357  13.708  0.0963  0.1535  0.0131
18906W        W34375   3.114  13.278  14.832 -0.4031 -0.0540  0.1363
18907W        W34376  18.337  18.551  13.458  0.1677 -0.1414 -0.2773
18908W        W34377  14.536   6.700   0.509 -0.3490  0.2124 -0.0327
18909W        W34378  13.106   4.890   4.326 -0.0217  0.1169  0.0373
18910W        W34379   4.758  11.036   4.033 -0.2728  0.1990 -0.0056
18911W        W34380  14.806   6.941   4.992  0.1364  0.5895  0.3369
18912W        W34381   2.643   8.401  12.473 -0.0233  0.1451 -0.1442
18913W        W34382   6.751   0.825   0.193 -0.0802 -0.1437 -0.1260
18914W        W34383   3.276   6.729   0.442 -0.4158  0.1398  0.1182
18915W        W34384   8.883  14.417   1.413 -0.1601 -0.0886  0.0261
18916W        W34385  18.233  13.294   0.299  0.6565 -0.1499 -0.0382
18917W        W34386   5.909   8.313  11.679  0.0638  0.1808  0.1576
18918W        W34387  17.797  15.567  15.250 -0.2771 -0.4150 -0.0975
18919W        W34388   1.863   1.082  13.411  0.0963  0.0264  0.1721
18920W        W34389   1.430   6.203  10.812  0.1542 -0.2140 -0.3307
18921W        W34390  16.187  15.389   5.648 -0.0643  0.1360 -0.0860
18922W        W34391  11.320   9.583   3.902 -0.1923  0.1456 -0.1861
18923W        W34392  18.822  13.553  14.038 -0.5601 -0.1216  0.2141
18924W        W34393   1.822   2.285  13.394  0.2336  0.4191 -0.1303
18925W        W34394  18.579  17.588   0.129  0.2066 -0.0684 -0.2183
18926W        W34395   6.104  17.227  13.636 -0.1317 -0.2892  0.0760
18927W        W34396  16.763   8.276   3.303 -0.1513 -0.0187 -0.0544
18928W        W34397  13.989  15.918  15.234 -0.1059  0.0440 -0.1798
18929W        W34398  10.989  10.568  15.186 -0.1143  0.1215 -0.0900
18930W        W34399  10.193   3.159   2.485 -0.2137 -0.0699 -0.5549
18931W        W34400   5.926  11.588   3.735 -0.3678  0.0674  0.0840
18932W        W34401   4.920  18.982   5.098 -0.3188  0.2454  0.0463
18933W        W34402   4.267   4.347  11.743  0.0040 -0.4807 -0.0172
18934W        W34403   0.895   4.464   0.479 -0.0538  0.0186  0.0404
18935W        W34404  16.446   2.814   2.782  0.0132 -0.0244 -0.1864
18936W        W34405  11.308  10.389  14.296 -0.1001  0.1710  0.1467
18937W        W34406  11.411  14.728   1.716  0.0410  0.3917  0.4257
18938W        W34407   3.458   1.393   3.289 -0.1420  0.0259  0.0380
18939W        W34408  17.859   1.076  12.572 -0.5676  0.0639  0.1304
18940W        W34409   2.334   6.527  11.837  0.2696  0.0942  0.1389
18941W        W34410   7.604   6.969  12.729  0.2382 -0.0226 -0.5638
18942W        W34411  11.021   9.174  13.521 -0.4689  0.1515  0.1245
18943W        W34412  16.278  14.406  12.923 -0.0930 -0.1555  0.1933
18944W        W34413  16.569  11.030   0.923 -0.3336  0.2477  0.1227
18945W        W34414   9.865   4.966   4.916  0.0260  0.1975 -0.2438
18946W        W34415  13.687  17.490  13.188 -0.0077 -0.2971  0.3871
18947W        W34416   6.151   5.524  13.869  0.2348  0.0819 -0.1738
18948W        W34417   7.616  15.907   3.241 -0.1046 -0.0419  0.0334
18949W        W34418   2.427  11.499   5.368 -0.1741 -0.4707  0.2922
18950W        W34419   0.966  11.836   3.012 -0.0693 -0.1525 -0.1863
18951W        W34420  17.741  15.773   4.450 -0.5918 -0.0508  0.0253
18952W        W34421  13.819  15.226   0.887  0.0253  0.0784 -0.1844
18953W        W34422   6.629  11.612  12.116 -0.2653  0.2499  0.0111
18954W        W34423   9.112  15.644  13.726  0.0683  0.1781 -0.2999
18955W        W34424   4.144  14.469   3.287  0.1297 -0.1857  0.0686
18956W        W34425  17.286  10.389  13.603 -0.0866  0.1303  0.2077
18957W        W34426   7.027   7.639   5.183 -0.2630  0.1976  0.2619
18958W        W34427   2.008  16.155   1.366  0.0143  0.1661 -0.1146
18959W        W34428   6.862  17.801   0.943  0.3122 -0.0318  0.0231
18960W        W34429  12.016   4.966   3.448 -0.0282 -0.0517 -0.2468
18961W        W34430  12.971   2.416   3.635 -0.2639  0.2479 -0.0127
18962W        W34431   9.655   5.039   2.936  0.0022 -0.1279 -0.1261
18963W        W34432   2.837  16.849   4.162  0.1190  0.2911 -0.1018
18964W        W34433   6.140  13.877  14.924 -0.0957  0.0595 -0.0669
18965W        W34434   8.889  13.809  14.487  0.0308  0.0747 -0.0826
18966W        W34435   0.719   1.237  11.415 -0.0522 -0.0904 -0.1010
18967W        W34436  16.591  17.090   9.590  0.2650 -0.0973  0.0620
18968W        W34437   4.132   3.161   1.715 -0.2931 -0.1504 -0.0574
18969W        W34438   9.505  13.714  14.123  0.3706  0.1246 -0.1832
18970W        W34439   9.148  11.939   1.054 -0.1147 -0.1726  0.1964
18971W        W34440   5.885  18.538   5.159  0.0532 -0.1369  0.0557
18972W        W34441  16.914   5.150   4.812 -0.0743  0.0279 -0.1509
18973W        W34442   2.277   6.759   2.448  0.1651  0.2850  0.0841
18974W        W34443  12.680   3.070  11.366 -0.0972  0.1597  0.1929
18975W        W34444   5.249   5.370  14.412 -0.2681 -0.0204  0.1538
18976W        W34445   4.645   9.440  10.828 -0.0164  0.2817  0.0834
18977W        W34446   7.686  14.281  10.657  0.2074  0.3695 -0.0442
18978W        W34447  10.975  18.385  15.252  0.0838 -0.0767 -0.2250
18979W        W34448  12.179  13.244   0.338  0.1290  0.0444  0.1420
18980W        W34449   4.092  17.816   0.764 -0.1914  0.1413 -0.0084
18981W        W34450   6.922   6.025   0.147  0.3113  0.1095  0.1181
18982W        W34451  17.060  18.694   3.342  0.0718 -0.0064  0.1831
18983W        W34452   8.481  10.029  13.395  0.2500 -0.2801 -0.0355
18984W        W34453  18.493  10.903   1.518 -0.1447  0.0153 -0.1059
18985W        W34454  14.918   7.664   1.647 -0.2229  0.1147 -0.1077
18986W        W34455  15.121  10.860  14.336  0.0395  0.0663  0.4330
18987W        W34456   5.526  17.138  12.319  0.0499  0.0031  0.1193
18988W        W34457  13.541  16.287   5.558  0.0714 -0.2290  0.0168
18989W        W34458   4.231  16.637  13.207 -0.0565  0.0195  0.3654
18990W        W34459  15.323  13.433   5.122  0.4285  0.2302  0.0797
18991W        W34460   4.995  12.606  13.394  0.0655  0.2712 -0.2399
18992W        W34461  13.262  17.254  13.324  0.0196  0.0095 -0.0987
18993W        W34462  10.806  11.184   4.052 -0.1527  0.2788  0.4250
18994W        W34463   4.511  11.730   1.019 -0.1930 -0.1295 -0.3835
18995W        W34464  11.196   9.907  10.536  0.5475  0.2246  0.2749
18996W        W34465   5.119   0.519  13.886  0.0044  0.0588  0.1011
18997W        W34466   4.991   2.674   0.071  0.1481 -0.1539 -0.0096
18998W        W34467   8.127  15.115   3.881 -0.0735  0.2090  0.0318
18999W        W34468   8.550  16.903   5.839 -0.0486 -0.0918  0.0935
19000W        W34469  15.460  19.006  14.510  0.1769 -0.0849 -0.2316
19001W        W34470  15.839  14.471   5.623 -0.1099  0.0085 -0.1801
19002W        W34471  17.205   4.677  14.752 -0.2129 -0.0452 -0.1870
19003W        W34472  17.886  18.164   3.261 -0.1523 -0.2895 -0.0070
19004W        W34473  15.324  18.139  13.065 -0.1969 -0.0301 -0.2569
19005W        W34474  14.097  11.611   4.821  0.0656  0.1435 -0.0955
19006W        W34475  11.328   4.729   3.692  0.3716  0.3331  0.1664
19007W        W34476   4.050   4.669   4.370 -0.0719  0.5013  0.2763
19008W        W34477  12.435   8.275   4.422 -0.1398 -0.1271  0.0172
19009W        W34478   3.880  14.313  14.935 -0.0107  0.0585 -0.0779
19010W        W34479   1.448  17.928  13.605  0.0764 -0.3827  0.0080
19011W        W34480   8.469   7.245  11.720 -0.2938  0.3254  0.5591
19012W        W34481   9.260  15.613  11.767 -0.1247 -0.1261  0.1584
19013W        W34482   4.152   7.500   5.007  0.3750  0.1626  0.4441
19014W        W34483  16.395   7.227   5.063  0.2406 -0.0582  0.0873
19015W        W34484  10.237  15.148   2.350 -0.1347 -0.3224 -0.1819
19016W        W34485  15.314   5.304   4.594  0.2676 -0.1284 -0.1149
19017W        W34486   6.094  17.964   5.179  0.0556  0.0286  0.0691
19018W        W34487  11.853  17.431   2.773 -0.1103  0.0235 -0.1732
19019W        W34488  16.654  17.039   0.248  0.0905 -0.1451 -0.0131
19020W        W34489  11.495   6.182   3.967  0.1624 -0.1563 -0.0514
19021W        W34490   8.123   4.519  15.315  0.1826  0.1105  0.0508
19022W        W34491   1.648  17.191  10.499  0.1248  0.1655 -0.2574
19023W        W34492   5.740  10.884   1.730 -0.0967 -0.2264 -0.3295
19024W        W34493  11.355   0.144   3.703 -0.2623  0.0051  0.1246
19025W        W34494  15.286  16.907  13.459 -0.2763  0.3516  0.0323
19026W        W34495   5.189  12.245   4.134 -0.0175  0.1424 -0.1764
19027W        W34496   3.220  15.400  13.845  0.1226  0.3488 -0.2872
19028W        W34497   9.351   5.577  11.523  0.2355  0.1132 -0.0547
19029W        W34498   7.942   6.039  12.599 -0.0412  0.2288 -0.0767
19030W        W34499   7.316   9.558   2.377  0.2205 -0.0901 -0.2730
19031W        W34500  13.306   2.548   2.317 -0.0723  0.3747  0.1545
19032W        W34501  10.466  10.819  10.986  0.0400  0.0982 -0.3125
19033W        W34502   7.928   9.744   3.611 -0.0071  0.0096 -0.4587
19034W        W34503   9.754  16.252  11.377 -0.1062 -0.1922 -0.0535
19035W        W34504  13.038   9.687  10.552 -0.1155 -0.3155 -0.1503
19036W        W34505   7.210   6.821  14.408 -0.0514 -0.0603  0.2760
19037W        W34506  11.457  15.183  14.551 -0.0111 -0.0009 -0.0516
19038W        W34507   4.043  11.898   0.873  0.2823 -0.0036  0.1636
19039W        W34508  13.476   8.032   1.199 -0.1402  0.1479 -0.0257
19040W        W34509   5.919  15.573   0.681  0.0053 -0.2303  0.0395
19041W        W34510  11.398   3.424  14.137 -0.3738  0.0188 -0.2025
19042W        W34511  13.677  10.625   4.022  0.0366 -0.2307  0.0233
19043W        W34512   5.761  13.565  15.169 -0.0924 -0.1117 -0.2519
19044W        W34513   8.623   8.599  11.089 -0.0860 -0.0030  0.0774
19045W        W34514  16.608   5.797   1.144  0.1683  0.0242  0.1126
19046W        W34515  14.719  18.425   0.058 -0.0143  0.0547  0.3679
19047W        W34516  12.393  17.550   3.571 -0.0399  0.1362 -0.0777
19048W        W34517   2.326  13.672   1.036  0.0273  0.0260 -0.0115
19049W        W34518   8.692  14.774  11.660 -0.0592  0.2095  0.1065
19050W        W34519   8.472   8.054  14.026  0.0062 -0.0295  0.1590
19051W        W34520   0.028  16.136  11.684 -0.2901 -0.2846  0.3503
19052W        W34521  17.179  14.103   3.727 -0.1170 -0.1540  0.0578
19053W        W34522   5.975   0.906   1.486  0.0595  0.1018 -0.0516
19054W        W34523   8.703  15.393   4.248  0.0464  0.0423 -0.0290
19055W        W34524   3.538   4.848  14.716 -0.1923  0.3229 -0.2962
19056W        W34525   6.562  14.869   4.017 -0.0173 -0.3225  0.1581
19057W        W34526  17.607   8.991   1.085 -0.1080  0.1136  0.0019
19058W        W34527   3.449   8.612   0.247  0.0033 -0.0230 -0.3119
19059W        W34528   8.910   9.026  14.548  0.0125  0.1542 -0.4467
19060W        W34529   6.482  14.319  11.494  0.1062 -0.2271 -0.0500
19061W        W34530  13.976   2.924  10.173  0.1246 -0.1868  0.0432
19062W        W34531  14.324   2.468  14.391  0.0133  0.1780 -0.0074
19063W        W34532   2.081  10.771  10.495  0.0772  0.2125 -0.0136
19064W        W34533   4.733  17.953   3.856  0.0454  0.0319 -0.0998
19065W        W34534  13.474  15.780  11.565  0.0604  0.2544 -0.2173
19066W        W34535  13.196   5.317   1.962  0.0471 -0.0505 -0.1985
19067W        W34536  11.135  15.016   4.510 -0.0967 -0.0000  0.1574
19068W        W34537   6.090   9.971   0.573  0.0020 -0.1186 -0.2330
19069W        W34538  14.937  13.794   5.068  0.0619 -0.2721 -0.0712
19070W        W34539  10.311  12.553   1.350  0.2321  0.1299  0.1795
19071W        W34540  12.432  18.483   5.780  0.2247 -0.3199  0.1283
19072W        W34541  12.692   5.882   3.663  0.2136 -0.3242 -0.0882
19073W        W34542   5.916   1.565  15.152  0.0518 -0.1146  0.4231
19074W        W34543   9.563   9.632  11.320 -0.0888  0.1538  0.0016
19075W        W34544   4.355   4.234   3.456 -0.0965 -0.3555 -0.1960
19076W        W34545  15.489  11.626  10.414  0.4549  0.0285 -0.0245
19077W        W34546  13.358  14.490  13.443 -0.1549  0.3516 -0.1807
19078W        W34547  12.498  12.816  11.630  0.1417 -0.1851  0.3077
19079W        W34548   3.803   8.858   0.008  0.2149 -0.4195  0.2040
19080W        W34549   0.177  16.420   4.619  0.1689  0.0367  0.0456
19081W        W34550   8.067  17.209   4.178  0.0475  0.0218 -0.2336
19082W        W34551  18.652   7.255   4.715 -0.1217 -0.1865  0.2405
19083W        W34552  18.172   2.612   2.911 -0.1341 -0.0115 -0.1471
19084W        W34553  14.184   2.138  12.739  0.3258  0.1990 -0.1661
19085W        W34554   0.115  10.036  11.732  0.0677  0.1569  0.2533
19086W        W34555  11.872  13.351  11.104  0.0582 -0.0726  0.1141
19087W        W34556  15.144  15.204   2.092  0.1549 -0.2977 -0.0367
19088W        W34557  10.102   3.731   3.662 -0.0077  0.4632  0.0544
19089W        W34558  13.686  18.622   1.011  0.2359 -0.3501  0.4667
19090W        W34559   6.791  10.004   3.642 -0.2700 -0.0210 -0.2858
19091W        W34560   4.618   3.315   3.425  0.2013  0.2911  0.1537
19092W        W34561   6.175  11.713   2.099 -0.1879 -0.0403  0.1475
19093W        W34562  10.098   9.652   3.941  0.0541  0.0902  0.1222
19094W        W34563   2.360   3.789  13.094  0.2176 -0.1279 -0.1457
19095W        W34564   3.826  14.281  12.345  0.2281  0.2517  0.0047
19096W        W34565  10.062  13.778  12.228  0.1275  0.4001  0.1490
19097W        W34566   0.423  10.277  13.721 -0.0606 -0.1443 -0.1601
19098W        W34567  11.109   2.735   2.600 -0.2101 -0.0031  0.2341
19099W        W34568   0.235  11.996   0.076 -0.0000  0.0604  0.0009
19100W        W34569   9.705   9.742  14.116 -0.1346 -0.0242  0.0914
19101W        W34570   3.934   8.158  15.008 -0.0711 -0.0492  0.0389
19102W        W34571  17.121  10.925  11.678  0.2496  0.0544  0.0229
19103W        W34572  12.795   6.504  12.063 -0.0905 -0.1912  0.0253
19104W        W34573   5.772   6.031   0.280  0.1041 -0.4540  0.1575
19105W        W34574  17.829  12.911   1.703 -0.0763 -0.0616  0.1443
19106W        W34575  11.514  13.933   5.174 -0.0740 -0.1251 -0.1791
19107W        W34576   0.051   7.152   5.021  0.3707  0.2433 -0.1775
19108W        W34577   6.266   4.145   5.661 -0.4177  0.0025 -0.0522
19109W        W34578  12.091  12.729  11.878  0.1768 -0.1476  0.2169
19110W        W34579   7.488  14.246  11.244  0.1115 -0.1797  0.2954
19111W        W34580   3.851  17.273  13.523  0.1391  0.1535 -0.1779
19112W        W34581  11.869  12.903   4.357 -0.0692 -0.3558 -0.1589
19113W        W34582  14.750  11.405   4.985  0.1716 -0.1363  0.1190
19114W        W34583  11.796  18.365  10.711 -0.1609  0.2879 -0.2276
19115W        W34584  13.645  17.804  11.131 -0.0062 -0.0892  0.2937
19116W        W34585  13.152  15.720   0.017 -0.1862 -0.2892  0.0368
19117W        W34586   9.630  13.812  13.681 -0.2836  0.0965 -0.0879
19118W        W34587  17.761  18.624   5.590  0.1788 -0.1763  0.0648
19119W        W34588  16.830  13.416   2.334  0.2105  0.3143 -0.1079
19120W        W34589  11.655  17.049  12.311  0.1652 -0.1303  0.0109
19121W        W34590  18.767   3.444  13.002 -0.3360 -0.1740 -0.1792
19122W        W34591  15.615   7.411   0.426 -0.2163  0.0280 -0.2961
19123W        W34592  10.444   6.249   5.147  0.1160 -0.1263  0.4081
19124W        W34593  10.181  18.563   3.656 -0.0005  0.2012  0.0340
19125W        W34594   7.402  16.164  11.714 -0.1072  0.2234 -0.1140
19126W        W34595  18.493   8.561  11.039  0.4480  0.2104 -0.3863
19127W        W34596  13.177   8.387   3.232  0.1744  0.1651  0.3762
19128W        W34597   9.996  17.892   1.137  0.1183 -0.1798 -0.1501
19129W        W34598  15.213   6.670   4.902  0.1867  0.1684 -0.3285
19130W        W34599  18.994  10.193   4.056  0.1620 -0.1449  0.3027
19131W        W34600   9.552  17.273  14.772 -0.0611 -0.5163 -0.1382
19132W        W34601  12.490   6.889   4.381 -0.0266 -0.2461  0.1028
19133W        W34602  16.870  18.551   3.989  0.0228 -0.1627  0.0753
19134W        W34603  17.898  17.703  14.216 -0.1866 -0.4409 -0.1775
19135W        W34604   2.088   2.593   4.598  0.0217  0.5247  0.1186
19136W        W34605  15.556  13.655  11.933 -0.1619  0.0548  0.1249
19137W        W34606  11.501  16.482  13.652  0.1439  0.1256 -0.1071
19138W        W34607   7.067   6.080  13.816  0.0231  0.1815 -0.2084
19139W        W34608   0.983  14.269   2.163  0.2390  0.2008  0.0232
19140W        W34609   3.407  15.864   0.238 -0.0104 -0.0129 -0.2816
19141W        W34610   9.722  15.454   4.102 -0.0725 -0.1258  0.0004
19142W        W34611  13.437  10.313  10.843  0.0918  0.0940 -0.2469
19143W        W34612  18.501  11.538   3.130 -0.0917  0.1755  0.2187
19144W        W34613  15.302  10.183  12.539 -0.0063  0.2339 -0.0334
19145W        W34614   4.464  18.916   2.063  0.0628  0.0314  0.0428
19146W        W34615  18.596   9.224   2.813 -0.0914 -0.0754 -0.2273
19147W        W34616   5.129  17.752  14.202 -0.0153  0.1101  0.2214
19148W        W34617   5.716  18.762  10.274  0.0533 -0.0573 -0.3775
19149W        W34618   7.517   0.434   0.119 -0.0615  0.0395  0.0930
19150W        W34619   6.100  10.306   0.211  0.3026  0.1137  0.1470
19151W        W34620   6.488   2.985  12.332 -0.0697 -0.1758 -0.2443
19152W        W34621  11.946   3.940   0.399  0.2353 -0.2895 -0.1414
19153W        W34622  18.279   4.974   2.466  0.2316 -0.2442  0.0923
19154W        W34623   8.126   0.863  14.885 -0.0653  0.0961 -0.3170
19155W        W34624  18.461   6.543   5.446  0.0246 -0.1958  0.0873
19156W        W34625  17.808   9.347   5.001  0.1143 -0.2415  0.1980
19157W        W34626   3.700  16.118   0.726 -0.2530  0.1567  0.0688
19158W        W34627  18.956  11.301  12.055  0.2969  0.0068  0.1976
19159W        W34628  12.313  10.462  11.721 -0.3809  0.0703  0.6422
19160W        W34629  14.382   8.412   2.028 -0.3456 -0.0655 -0.1544
19161W        W34630   5.436   1.308   5.014  0.0416 -0.0912  0.1574
19162W        W34631  11.477   2.186   5.391  0.1126 -0.1507 -0.1771
19163W        W34632  11.712   8.425   0.858  0.4443  0.2053  0.0981
19164W        W34633   0.925   7.603  13.673 -0.0919 -0.0480 -0.0502
19165W        W34634   9.745   2.080   1.763 -0.0129  0.0372 -0.4545
19166W        W34635   8.975  10.211   9.941  0.0848 -0.1777  0.1282
19167W        W34636  12.335   8.255  12.289 -0.1528 -0.2519 -0.1890
19168W        W34637   7.482  15.280  12.071  0.2618 -0.1221  0.0840
19169W        W34638   4.295  18.767   4.009  0.2695 -0.2947 -0.2576
19170W        W34639   4.530   4.430  10.885 -0.2722  0.1524 -0.0489
19171W        W34640  16.545   1.481  13.387 -0.1083 -0.0111  0.0739
19172W        W34641   0.247  17.664  11.420 -0.4161 -0.1845  0.3565
19173W        W34642   2.088   8.562  10.011 -0.1651 -0.1653  0.0449
19174W        W34643   2.678   7.934  13.102  0.0317 -0.1485 -0.1721
19175W        W34644   7.480  11.130  10.741 -0.0467 -0.3207  0.0064
19176W        W34645   3.293  15.765   2.868  0.0307 -0.0660  0.0436
19177W        W34646  18.967   8.446  15.185 -0.0817  0.1379 -0.2558
19178W        W34647  17.513   0.460   1.289  0.0400 -0.0919  0.0471
19179W        W34648   0.805  15.177   0.899  0.0925  0.3701 -0.2412
19180W        W34649  11.083   4.583  14.730  0.0246 -0.0449  0.0397
19181W        W34650  13.740   4.266  12.676  0.1167  0.1289 -0.1068
19182W        W34651   4.596   8.958   9.861  0.3568 -0.0724 -0.0184
19183W        W34652  12.334  16.086   4.976  0.1502 -0.2158 -0.1065
19184W        W34653  17.574  14.976  11.092  0.0932  0.4712  0.2167
19185W        W34654  18.790  18.801   2.277  0.0837  0.0157 -0.0634
19186W        W34655  12.888  14.269   1.564  0.1713 -0.0023 -0.3805
19187W        W34656   0.472   9.114   2.044  0.0017  0.1228  0.1715
19188W        W34657  10.812  14.032   3.845 -0.1190  0.0947 -0.2940
19189W        W34658   9.646  10.331  12.693 -0.1331  0.5181  0.1943
19190W        W34659  10.407   2.330   0.152 -0.1624 -0.1234 -0.4731
19191W        W34660   2.324   9.216  13.978 -0.1847 -0.0611  0.1641
19192W        W34661  10.586  15.443  11.147 -0.2156 -0.0236 -0.0734
19193W        W34662   2.184   7.064  15.082 -0.2463  0.0359  0.0820
19194W        W34663   5.971   5.646   4.753 -0.0954  0.0924  0.1611
19195W        W34664   1.891  12.936   0.955 -0.1952 -0.2848 -0.0414
19196W        W34665  17.657   5.805   4.598  0.3378  0.2117  0.0667
19197W        W34666   7.870   1.094  14.546  0.2028 -0.1528 -0.0152
19198W        W34667   7.847   4.537  11.773 -0.2271 -0.2641 -0.2095
19199W        W34668  17.119   8.207  11.284 -0.1284  0.1586  0.2082
19200W        W34669   2.254  12.576  10.269  0.2051  0.2096  0.3174
19201W        W34670   2.188   2.485   1.201 -0.1366 -0.0713 -0.0367
19202W        W34671  11.437  13.040  13.608 -0.0364 -0.0728  0.1494
19203W        W34672   7.783  12.298   3.741 -0.0913 -0.0884  0.0463
19204W        W34673  17.932   5.751   2.296  0.0470  0.1727  0.0831
19205W        W34674   8.489   7.473  14.628  0.2045  0.1959  0.2684
19206W        W34675   2.526  10.077  14.919 -0.1408 -0.1563 -0.0998
19207W        W34676   1.252   2.488  11.950  0.3101 -0.1889  0.3874
19208W        W34677   1.385  10.631   0.532  0.0322  0.0079  0.2710
19209W        W34678   5.666   5.061  15.353 -0.1382 -0.2294 -0.1119
19210W        W34679   8.819  13.555  13.986  0.0278  0.2313  0.1386
19211W        W34680   0.008   7.133   3.078  0.4208  0.1159 -0.0970
19212W        W34681  13.432  11.404   2.725  0.4372 -0.1862 -0.2520
19213W        W34682  13.591  16.414   1.934 -0.0931 -0.1540 -0.2308
19214W        W34683  16.919   6.091  11.462 -0.2766 -0.0025 -0.2337
19215W        W34684   0.825   7.606   3.571 -0.0683  0.0584 -0.1769
19216W        W34685  13.287  18.176  13.610 -0.0683 -0.0307  0.0003
19217W        W34686  16.235   0.755  14.765  0.0091  0.0877  0.0533
19218W        W34687   2.032  12.417  12.082 -0.5083  0.2728  0.2040
19219W        W34688   0.765  15.961   3.382 -0.0652 -0.2499 -0.1240
19220W        W34689   0.387   4.574   4.017  0.1083  0.2879 -0.0944
19221W        W34690  10.993  11.819  11.419 -0.2534 -0.0380 -0.3087
19222W        W34691  16.933  15.307   1.989  0.0828  0.0504 -0.1110
19223W        W34692  12.547  17.220  11.004 -0.0220  0.0442  0.2081
19224W        W34693  18.810  10.842   1.968 -0.1112 -0.3333  0.0036
19225W        W34694   3.465   2.955   0.537  0.0415  0.0777  0.0971
19226W        W34695   0.951  16.316   3.010  0.2626 -0.0414 -0.1967
19227W        W34696  13.870  10.256  12.856 -0.3972 -0.1645  0.1100
19228W        W34697  13.077  16.299  11.278  0.0092 -0.0859  0.0154
19229W        W34698  15.766  17.181   4.222 -0.3902 -0.1072 -0.4185
19230W        W34699  10.734   9.009  10.725  0.0355  0.2633 -0.1914
19231W        W34700  12.484   7.282  11.837 -0.0707  0.0857 -0.1694
19232W        W34701   8.046  16.550   5.085  0.1799  0.0143 -0.1412
19233W        W34702  17.105  11.900  14.331  0.0734  0.0478 -0.2296
19234W        W34703   6.867  13.308   3.916  0.1005 -0.1661  0.0291
19235W        W34704  14.158  13.363  13.580 -0.0699 -0.1147 -0.0727
19236W        W34705   9.886   0.122  11.687 -0.1239 -0.3047  0.1514
19237W        W34706   3.772   6.212   3.206  0.1749 -0.0954 -0.0797
19238W        W34707   9.903   8.846  14.496 -0.1131 -0.3006  0.0038
19239W        W34708  17.877   4.229   0.526 -0.2170 -0.1547 -0.1182
19240W        W34709   9.726  13.502   0.030  0.0133 -0.2080 -0.0443
19241W        W34710   7.795   9.661   2.676 -0.0932  0.0152 -0.0412
19242W        W34711  14.928  12.794  15.248  0.0185  0.0655 -0.1672
19243W        W34712  16.649   2.445   3.081 -0.0193  0.3165 -0.1714
19244W        W34713   3.291   5.448   2.886  0.1024 -0.0045 -0.3308
19245W        W34714   6.501  12.616   4.574  0.1143  0.2669 -0.1725
19246W        W34715   8.045  10.241  10.608 -0.1074  0.0068 -0.2166
19247W        W34716  13.260  13.691   4.210  0.2940  0.0469 -0.1210
19248W        W34717  13.194  18.214  15.193 -0.4495  0.0203 -0.0182
19249W        W34718   9.520   5.878  12.994  0.1329  0.2322 -0.0552
19250W        W34719  16.665  18.026   1.607 -0.0225 -0.0272 -0.0247
19251W        W34720  14.099  11.823  15.060  0.0611  0.1936  0.1780
19252W        W34721  18.667  13.716  12.791  0.0988 -0.0701 -0.2656
19253W        W34722   6.796  13.775  14.330  0.1272  0.1670  0.1817
19254W        W34723   6.485   4.580  11.353  0.0423 -0.0791  0.2226
19255W        W34724   6.771   7.696   2.306  0.0607  0.0645 -0.3149
19256W        W34725  17.783  11.735   0.602  0.1526 -0.0564 -0.0304
19257W        W34726  18.516  12.421  14.024 -0.0013  0.0994 -0.0956
19258W        W34727   6.965   1.473   2.881  0.0429  0.0285  0.0030
19259W        W34728   9.714   3.015   2.252 -0.1529 -0.0856 -0.2829
19260W        W34729  18.331   6.178  12.438  0.2225  0.0468 -0.0577
19261W        W34730   2.340   0.882  15.285 -0.1851  0.0962  0.1654
19262W        W34731   1.361  16.663   3.753  0.1930 -0.1103  0.0281
19263W        W34732  16.554   4.290  10.365 -0.0809 -0.2490  0.0211
19264W        W34733  14.032   6.302   3.476  0.4653 -0.2802 -0.0280
19265W        W34734   3.577   1.674  11.567  0.2569 -0.0238  0.0907
19266W        W34735  18.666  14.802   5.593 -0.0786 -0.0001 -0.0868
19267W        W34736  14.300  13.607  11.058  0.0188  0.2034 -0.0021
19268W        W34737   7.003  16.671   2.060 -0.0094  0.2611  0.1059
19269W        W34738   7.032   5.560   0.245  0.0603  0.1723 -0.0443
19270W        W34739  11.418  12.878   4.728 -0.1468 -0.0373 -0.1162
19271W        W34740  12.521  14.753  11.854 -0.3490 -0.1390  0.0928
19272W        W34741  16.253   1.110  15.284 -0.1455  0.0966 -0.2423
19273W        W34742   5.443   5.525   5.149 -0.3809 -0.0376  0.4634
19274W        W34743  14.871   0.374   5.488  0.0280 -0.1535  0.0088
19275W        W34744   3.992   0.658   2.821  0.2258 -0.0422  0.0039
19276W        W34745   0.397   9.175  10.089 -0.0616 -0.0661 -0.0386
19277W        W34746  13.873   2.311  14.777 -0.5195 -0.2754 -0.2669
19278W        W34747   3.707  10.938  12.117  0.2693 -0.1114  0.1555
19279W        W34748   6.285   7.678  13.116 -0.1145 -0.2525 -0.1640
19280W        W34749  12.434  13.411  10.248  0.2765  0.1170 -0.0669
19281W        W34750  18.480  11.423  14.284 -0.1905 -0.1500 -0.0756
19282W        W34751   0.407   8.904  12.837 -0.0559 -0.1307 -0.0796
19283W        W34752   2.574   7.592   1.751  0.3110 -0.0342  0.0403
19284W        W34753   8.215   6.453   2.610 -0.1853 -0.0951 -0.1810
19285W        W34754   4.546   6.964  14.865 -0.1269  0.2913  0.1787
19286W        W34755   2.511   3.426  13.359 -0.0507  0.2499  0.0543
19287W        W34756   5.929   8.286  12.623  0.1071  0.1015  0.0365
19288W        W34757  10.232   9.831   0.644 -0.2139  0.0461  0.1694
19289W        W34758  10.855   6.145  13.623 -0.1751  0.0086 -0.0186
19290W        W34759   7.241   2.795  14.623  0.2371 -0.2205  0.1570
19291W        W34760   6.803   3.703   3.886 -0.1122 -0.1534  0.0109
19292W        W34761   0.973   2.743  13.593 -0.3515  0.0450 -0.0247
19293W        W34762  11.121   3.711   1.767  0.4560 -0.1314 -0.2607
19294W        W34763   1.001   7.549   0.232 -0.1100  0.0717 -0.1337
19295W        W34764  17.870   4.854   2.813  0.3541 -0.2798  0.2259
19296W        W34765  17.607   1.641  15.284  0.0509  0.0838  0.1368
19297W        W34766  12.916   4.108  13.249  0.2561 -0.0294 -0.3042
19298W        W34767  18.573   8.317   2.160  0.0549  0.1068 -0.1814
19299W        W34768   3.713  16.648   2.063  0.4123  0.2451 -0.1929
19300W        W34769   5.283  12.204  15.269  0.4260 -0.3711  0.1873
19301W        W34770   5.891   9.438  13.628  0.5784 -0.1979 -0.2611
19302W        W34771   5.165   9.284  14.794  0.2839 -0.0140  0.1457
19303W        W34772   4.044   1.314   4.758  0.3377 -0.0637  0.0286
19304W        W34773  18.497  12.902   4.711 -0.0202  0.2347 -0.1040
19305W        W34774   2.530   7.236  14.632  0.0973  0.0278 -0.3170
19306W        W34775  16.427   9.144   3.696  0.1541 -0.1979 -0.0035
19307W        W34776  12.465   9.067   1.888 -0.0666 -0.1188 -0.2173
19308W        W34777   4.939   3.352  13.117  0.2646  0.1674 -0.1726
19309W        W34778   0.287   5.841   3.599  0.0469  0.1785  0.1995
19310W        W34779   7.307  10.634  14.331 -0.0334 -0.1547  0.1278
19311W        W34780   0.640  15.951  13.094 -0.0515 -0.1893  0.1248
19312W        W34781   9.269  14.862   1.601 -0.0171 -0.1773 -0.0087
19313W        W34782   0.909   2.619  14.187  0.0844  0.0820  0.0706
19314W        W34783  13.957   4.583  13.410  0.2274 -0.0622  0.1532
19315W        W34784  18.756  12.079  13.633  0.0911 -0.2310  0.0525
19316W        W34785   0.007  18.693   1.206  0.3565  0.2691  0.0098
19317W        W34786  16.627  15.583   3.817  0.1238  0.0998  0.0235
19318W        W34787   1.171  16.247   8.871  0.2138  0.0081 -0.2236
19319W        W34788  16.806  13.699   2.755  0.2161  0.0665  0.1923
19320W        W34789  18.036  18.598  10.557 -0.1479 -0.2223 -0.1099
19321W        W34790  12.735   3.829   2.519 -0.4094 -0.0410 -0.0448
19322W        W34791   5.583   8.588  11.370  0.3847 -0.0821  0.3617
19323W        W34792  12.505   3.399   0.882  0.1268  0.0359 -0.0506
19324W        W34793   0.744   5.454   5.114  0.0153 -0.0962  0.0598
19325W        W34794  16.577  14.762  11.867 -0.0860  0.2166 -0.0794
19326W        W34795  17.630  16.057  15.126  0.0389 -0.3343  0.1899
19327W        W34796   9.599  14.554   4.169 -0.0983  0.1158 -0.3105
19328W        W34797  16.887  14.618   3.181  0.1637  0.1324 -0.1849
19329W        W34798   9.188  10.598   0.473  0.1340 -0.1463  0.1017
19330W        W34799   7.095   0.735  13.858 -0.0279 -0.0241  0.1263
19331W        W34800   0.216   2.749  11.896  0.3701 -0.1953 -0.0449
19332W        W34801  10.961   8.149   3.744  0.4179 -0.0263  0.0261
19333W        W34802   2.690  10.128   0.085  0.1383 -0.2107 -0.0103
19334W        W34803  12.453   1.087   2.921 -0.0019  0.3096 -0.1140
19335W        W34804   2.590  17.052   5.226 -0.3792  0.0811 -0.2742
19336W        W34805  15.075  11.745   1.412 -0.0524 -0.1347 -0.1047
19337W        W34806   4.673  16.106   5.241 -0.2168 -0.3586 -0.0190
19338W        W34807  10.532   1.430  12.422  0.2632 -0.0325 -0.2026
19339W        W34808  11.390   8.361  11.074  0.0260 -0.0103 -0.0427
19340W        W34809  18.126   8.697  13.126  0.0830 -0.1688  0.0762
19341W        W34810  11.657  15.340  14.064  0.0153  0.0348 -0.3524
19342W        W34811   2.447  17.035   4.734  0.0019 -0.1229  0.3424
19343W        W34812  16.693   3.278   1.818  0.2745 -0.1524 -0.3256
19344W        W34813  18.282   0.902   4.853 -0.0208 -0.2906 -0.2469
19345W        W34814   2.613  18.254   4.483 -0.0731 -0.0244  0.1731
19346W        W34815  15.685  13.988   1.865 -0.0095 -0.0620  0.2115
19347W        W34816   6.599   5.525  11.549 -0.2701  0.2532 -0.0912
19348W        W34817   8.343   7.504   3.774  0.1737 -0.0461  0.0088
19349W        W34818  10.415   0.922   1.366 -0.1115 -0.0627  0.1706
19350W        W34819   5.971   7.826   1.804  0.0365  0.3263  0.1018
19351W        W34820  17.519  11.607   0.089 -0.0742 -0.2271 -0.3144
19352W        W34821   2.488   5.272  11.654 -0.0298 -0.3387  0.3686
19353W        W34822  10.081  18.980   4.706 -0.3029  0.0182 -0.0941
19354W        W34823  10.440   2.838   3.972  0.1627 -0.1405  0.4343
19355W        W34824   1.260   6.674   0.822  0.0581 -0.3994 -0.1602
19356W        W34825   7.910  12.276  10.615  0.1869 -0.0611  0.0406
19357W        W34826   4.545   9.917   4.841  0.2567  0.1723  0.0348
19358W        W34827  13.273  15.848   9.904  0.1656 -0.2509 -0.0388
19359W        W34828  12.629  18.246  14.431 -0.0670 -0.0624 -0.2001
19360W        W34829  16.140   1.307   3.990 -0.0815 -0.1242 -0.0824
19361W        W34830   6.375  13.868   1.716 -0.1442 -0.0770 -0.3685
19362W        W34831  17.395  10.756  14.121  0.0769 -0.6882  0.0289
19363W        W34832   9.580  15.723   2.559 -0.1824  0.1258 -0.0724
19364W        W34833  13.932  17.400   0.581  0.1224  0.0778  0.4042
19365W        W34834   5.765   2.987   3.545 -0.0794  0.1359 -0.0028
19366W        W34835   1.794   5.385   5.932 -0.0388  0.0894 -0.3118
19367W        W34836  17.019  15.823   2.071 -0.2120 -0.1159  0.0505
19368W        W34837  15.975   0.300   1.203 -0.1367  0.1468  0.3198
19369W        W34838   2.726  12.795   2.014 -0.1959 -0.0155 -0.1208
19370W        W34839  18.333  10.094  12.149 -0.0206 -0.1337 -0.0740
19371W        W34840  11.773  12.138   4.087 -0.1533 -0.2249 -0.1184
19372W        W34841   3.105   4.163  10.731  0.3609 -0.3389 -0.2339
19373W        W34842   1.066  14.769  14.447 -0.2915  0.3522  0.2221
19374W        W34843  15.363   7.164   3.661  0.1043  0.0937 -0.1654
19375W        W34844  10.771  11.457   9.822  0.0742  0.0389 -0.2960
19376W        W34845   8.471   8.898  15.014 -0.1975  0.2724  0.2084
19377W        W34846   0.138   7.037   0.413  0.0335 -0.1790  0.0800
19378W        W34847  15.843   2.913  10.304 -0.1175 -0.0551  0.1807
19379W        W34848  17.902   7.117  11.495  0.3034 -0.1611  0.2235
19380W        W34849  16.704   4.442  13.887 -0.2142 -0.0089 -0.0310
19381W        W34850  13.863   2.034   2.497 -0.1267  0.1628  0.4374
19382W        W34851   3.972  15.527   9.638  0.2344 -0.0056  0.2950
19383W        W34852  16.741   2.948  15.262 -0.1007  0.0542 -0.0447
19384W        W34853   7.608   1.278   3.123 -0.2296  0.0883 -0.2611
19385W        W34854  16.366  14.806  10.224 -0.1189 -0.2952  0.2109
19386W        W34855   1.979  14.291   2.630  0.3735 -0.2042 -0.0745
19387W        W34856   5.193  10.094   2.659  0.2275 -0.1089 -0.2746
19388W        W34857   6.897   6.855   3.785 -0.2246  0.1501  0.2310
19389W        W34858  14.281   1.775   3.913 -0.0128 -0.3509  0.0597
19390W        W34859   4.286   6.666  13.522 -0.0115  0.1817 -0.1191
19391W        W34860   2.919   6.510  13.785 -0.0410  0.2626 -0.2615
19392W        W34861  14.020   2.641   0.384 -0.1665  0.1922 -0.1071
19393W        W34862  16.897  10.674  14.683  0.3034  0.0129  0.1120
19394W        W34863   8.924  11.668   4.203  0.0171 -0.1972  0.2769
19395W        W34864   3.491   9.031  14.235 -0.1079  0.0404 -0.2169
19396W        W34865  12.034  16.362   0.442 -0.2852  0.1949  0.1683
19397W        W34866   8.151  14.152  15.027  0.0142  0.0182 -0.2513
19398W        W34867  13.396  13.068  12.631  0.0263  0.0898  0.1449
19399W        W34868   9.510  15.246   1.748 -0.1196  0.1297 -0.1425
19400W        W34869  12.278  15.972  14.047 -0.2187  0.0213  0.0856
19401W        W34870  14.318  17.724  10.761  0.2572 -0.0929 -0.1214
19402W        W34871  13.283   0.398  15.299 -0.0020 -0.0682  0.2214
19403W        W34872  15.854   8.167  13.641 -0.1930  0.0944 -0.0332
19404W        W34873  12.053  16.717   4.317 -0.0956 -0.2843  0.1267
19405W        W34874   5.169   8.068  13.658  0.1969  0.1492 -0.1068
19406W        W34875  16.095  14.738  10.911  0.0606 -0.1932  0.2976
19407W        W34876   4.002   6.059   4.778 -0.0431 -0.0020 -0.1647
19408W        W34877   1.857  16.704   3.971  0.2659  0.1592  0.1967
19409W        W34878   5.765   8.167  15.217 -0.1008  0.3416  0.0205
19410W        W34879   2.629   0.938   4.580 -0.2277  0.0795 -0.2748
19411W        W34880  11.389   0.782  12.498 -0.1282 -0.3806  0.3649
19412W        W34881   7.042  12.564  10.330 -0.2929 -0.2121 -0.0184
19413W        W34882   4.633  11.940   1.460 -0.1424 -0.0271  0.2291
19414W        W34883   9.977   4.070   2.726  0.4307 -0.2658  0.1473
19415W        W34884  18.667   7.034   0.249 -0.2988 -0.0042 -0.2328
19416W        W34885   4.966   1.848  15.344  0.1645  0.0657  0.1010
19417W        W34886  10.899   2.433  10.683 -0.2824 -0.2047  0.4334
19418W        W34887  16.397  15.114   0.305  0.0726 -0.4374  0.1286
19419W        W34888   0.019  16.144   0.230 -0.1445  0.1762 -0.1907
19420W        W34889   0.385   5.656  11.786 -0.1823  0.1944 -0.0206
19421W        W34890  10.349  15.294   2.833 -0.1592 -0.1344  0.0760
19422W        W34891   3.482   8.810   2.748 -0.1840  0.0559 -0.0599
19423W        W34892   6.470   0.154  11.409 -0.2554  0.2454 -0.3330
19424W        W34893  12.401   5.415  12.981 -0.1136  0.1325 -0.0106
19425W        W34894  14.495   0.433   3.493  0.0857  0.1159 -0.4071
19426W        W34895   5.303  18.553   1.507 -0.0424  0.3198 -0.3328
19427W        W34896   5.482   0.762  13.633  0.1204  0.1662  0.2066
19428W        W34897   8.739   1.465  14.864 -0.2857  0.1173  0.1312
19429W        W34898  11.523  12.997  11.251  0.5419 -0.0308  0.0801
19430W        W34899   3.374   7.208   2.201 -0.0774 -0.2129 -0.1067
19431W        W34900   7.678   8.363  13.095 -0.2156 -0.2183  0.1647
19432W        W34901  15.587   9.033  14.698  0.4723 -0.0398  0.1767
19433W        W34902   6.304  12.761  12.614  0.0378  0.0880 -0.1724
19434W        W34903   5.562  12.601  11.580 -0.4375  0.0252  0.0528
19435W        W34904  16.036  10.382  10.954 -0.1441  0.2171  0.3234
19436W        W34905  15.400   3.893   2.182 -0.1665  0.2681 -0.0231
19437W        W34906   4.997   7.618  10.872  0.3317 -0.1355  0.3786
19438W        W34907   0.492  10.293  10.838  0.0145  0.2657  0.1410
19439W        W34908  17.350   7.608   4.425  0.0859  0.0722 -0.1232
19440W        W34909  12.668   0.925   5.593  0.3317  0.0105  0.2084
19441W        W34910   8.156   6.118   4.261 -0.2111 -0.1147  0.0061
19442W        W34911  14.428  13.844   5.043 -0.2711  0.3834 -0.0179
19443W        W34912   5.837  11.084  13.272  0.1182  0.5071 -0.1728
19444W        W34913   7.837  13.710   0.035  0.1558  0.0117  0.2946
19445W        W34914  17.359   3.790   1.962  0.1326 -0.0142 -0.0565
19446W        W34915  17.113  12.036   2.233  0.1412  0.2546 -0.0333
19447W        W34916   1.569  10.469  14.669  0.1876  0.0047 -0.2274
19448W        W34917  15.115   7.837  11.466 -0.0811 -0.0174  0.0405
19449W        W34918  10.673  16.827   0.007 -0.1144  0.1212  0.2195
19450W        W34919  17.470   4.846   4.666 -0.1357  0.1427 -0.1284
19451W        W34920  16.263   5.516   4.900 -0.2147  0.3642  0.2842
19452W        W34921  18.671   1.224  14.779 -0.0005 -0.2219  0.1094
19453W        W34922   1.024  14.248  13.064 -0.0877 -0.4236 -0.0786
19454W        W34923  16.155  18.049  10.465  0.1025  0.0184  0.1782
19455W        W34924  10.702  16.488  12.748 -0.2632  0.0247 -0.1889
19456W        W34925  10.582  12.782  13.868 -0.1084 -0.1144  0.2931
19457W        W34926   5.543  11.013   4.261 -0.1979  0.0757 -0.0215
19458W        W34927   6.451   3.134   2.438  0.5178  0.0581 -0.0529
19459W        W34928   4.674   9.143  12.816  0.0030 -0.4095  0.2655
19460W        W34929   5.799  10.639   3.089  0.0616 -0.0600  0.0836
19461W        W34930  13.533   6.492  14.691 -0.3428  0.1243 -0.1086
19462W        W34931  15.795   9.138  12.188 -0.2820  0.3361  0.2452
19463W        W34932   1.700  16.379  10.207 -0.2564  0.1568 -0.0338
19464W        W34933  16.519   1.644  14.244 -0.2007  0.1012 -0.0170
19465W        W34934  12.373  12.166   0.162  0.0899  0.2764 -0.0838
19466W        W34935   8.858   5.690   2.985  0.3691  0.0291  0.0968
19467W        W34936   4.234  15.407  11.385 -0.1031 -0.2069  0.1594
19468W        W34937   7.209  17.882   2.720 -0.1711 -0.0498  0.0585
19469W        W34938  16.565   1.528  11.166  0.0731 -0.1608 -0.1751
19470W        W34939   1.455  13.967   0.111 -0.1767 -0.2700  0.1646
19471W        W34940   5.073   8.704   4.187 -0.0358 -0.2396 -0.1155
19472W        W34941  11.441   1.814  10.558  0.0161  0.2831 -0.3606
19473W        W34942  14.091   0.906   0.127  0.1313  0.0032 -0.2471
19474W        W34943  14.242   8.749   1.153  0.1088  0.4735  0.2119
19475W        W34944  15.225  18.076  11.146  0.2733 -0.2188  0.1907
19476W        W34945  14.628  12.926   3.346 -0.1214  0.3529  0.2395
19477W        W34946  11.376  15.533   0.376 -0.2471 -0.2867 -0.1181
19478W        W34947  18.666  14.787   9.387 -0.2090  0.2324  0.1261
19479W        W34948   5.051  14.733   0.782  0.1665  0.2952  0.0009
19480W        W34949  15.891  14.982   1.279  0.1572  0.1737 -0.0636
19481W        W34950   6.417  16.572   4.000  0.1809  0.0895 -0.0772
19482W        W34951  12.932   4.166   0.599  0.2467  0.0338 -0.1003
19483W        W34952   3.917  14.847   1.444 -0.1160  0.0089 -0.0226
19484W        W34953   1.233  18.225  10.239 -0.1775 -0.2158 -0.0856
19485W        W34954   7.934   4.361   2.592  0.5082 -0.1194  0.1285
19486W        W34955   2.040  13.726  12.399  0.0246 -0.0123  0.2013
19487W        W34956   5.424   0.484   4.536  0.5453 -0.1862 -0.0517
19488W        W34957   6.396  10.997  10.219  0.2213 -0.1472 -0.0242
19489W        W34958  18.800   9.807  12.470 -0.0248 -0.3258 -0.1909
19490W        W34959  17.733  13.360   1.005  0.0126 -0.0823  0.0645
19491W        W34960  18.905   0.328   1.887 -0.2689  0.3772  0.1074
19492W        W34961   8.995  16.901   2.547 -0.0179 -0.0969  0.0869
19493W        W34962   1.860  13.431  11.211 -0.2422 -0.5272  0.1679
19494W        W34963  16.588  11.984  10.967  0.1222 -0.1152  0.1621
19495W        W34964   2.724  11.029  14.991  0.1029  0.3383 -0.3133
19496W        W34965   3.064   8.314  11.994 -0.0113  0.0212  0.4158
19497W        W34966  17.633  16.670   1.722 -0.0327 -0.0346  0.0643
19498W        W34967   1.163  11.638   0.891 -0.1989 -0.0622 -0.1133
19499W        W34968   2.322  14.404  10.892  0.4439 -0.0620 -0.4303
19500W        W34969   0.387   2.110   2.168 -0.0189  0.3054  0.1106
19501W        W34970   1.376  13.273  13.008 -0.2360 -0.1622 -0.0532
19502W        W34971   6.173  10.641   9.867  0.1604  0.3646  0.1473
19503W        W34972   3.024  12.994   4.967  0.0918 -0.1820  0.2018
19504W        W34973   0.659   1.780  12.463 -0.0633  0.2468  0.0643
19505W        W34974  15.740  17.144   5.116  0.0240  0.2768  0.1881
19506W        W34975   4.075  14.225  10.075  0.0245 -0.1354  0.0146
19507W        W34976   0.723  12.815   3.891  0.0561  0.4903  0.0343
19508W        W34977  16.930   4.047   1.987 -0.0071  0.3030 -0.2217
19509W        W34978   6.593  16.327   1.520 -0.0832  0.1700 -0.1606
19510W        W34979   5.405  14.862   3.927 -0.0534 -0.0305 -0.0342
19511W        W34980   0.044  17.302   0.035  0.4796  0.0461 -0.2128
19512W        W34981   3.148   1.166   4.576 -0.0972 -0.1508 -0.2692
19513W        W34982   2.988   9.699   2.829 -0.0558 -0.1804 -0.2321
19514W        W34983   7.553   0.923   0.878 -0.0125 -0.0515  0.1761
19515W        W34984  11.067   0.560  13.939 -0.0250 -0.1421 -0.2426
19516W        W34985  15.677   0.973   0.455  0.3637  0.1087  0.0456
19517W        W34986   6.660   2.542  11.599  0.0983  0.2370  0.2681
19518W        W34987   9.325   9.038   0.898  0.0073  0.3567  0.2958
19519W        W34988  10.697  14.267  14.620 -0.2659  0.1784 -0.0691
19520W        W34989  16.962  14.039   4.190  0.4392 -0.2469 -0.2190
19521W        W34990  12.816   2.710   2.431 -0.1634  0.0857 -0.3194
19522W        W34991   0.610   4.312   5.295  0.0161  0.0660 -0.1231
19523W        W34992  12.534  10.593   5.010  0.4793  0.0454 -0.2053
19524W        W34993   5.613  13.694  10.039  0.2055 -0.3110 -0.0763
19525W        W34994   7.619   1.580   4.428  0.1800 -0.1626 -0.0171
19526W        W34995   7.334   0.253  11.978  0.2882  0.1145  0.1132
19527W        W34996   1.358   4.468   1.405  0.0684 -0.2295  0.0963
19528W        W34997   8.054  10.103   4.506  0.1779  0.1824  0.1648
19529W        W34998  11.714  18.957  11.843  0.0827  0.0102 -0.0187
19530W        W34999   3.068  14.044  14.350  0.1127  0.0833 -0.2237
19531W        W35000  18.179  13.507  12.458 -0.2320 -0.0252 -0.1100
19532W        W35001  14.355  18.832   1.413  0.1267 -0.0223 -0.0451
19533W        W35002   3.489  12.035  14.408  0.3710  0.2975 -0.0809
19534W        W35003   6.415   7.766   2.886 -0.2754 -0.1676 -0.0064
19535W        W35004   4.210  17.186   5.674  0.1632  0.2547 -0.2900
19536W        W35005   4.617  15.443   3.487  0.1110 -0.1379  0.1918
19537W        W35006   5.994  17.243   0.616 -0.1438  0.2166 -0.2600
19538W        W35007   1.992   0.500   2.905 -0.0199 -0.0859  0.2829
19539W        W35008  10.462   5.294   4.491  0.0009  0.0557  0.0632
19540W        W35009  14.346  10.741  12.004 -0.2218  0.0304 -0.0751
19541W        W35010   0.766   9.496   4.903  0.2062 -0.0528  0.1157
19542W        W35011  17.903  15.823  13.064  0.1007  0.3371 -0.0190
19543W        W35012   9.555  11.986   1.955  0.2543  0.1951 -0.4272
19544W        W35013   8.221   2.818   0.254 -0.1038 -0.1412 -0.2051
19545W        W35014   5.171   0.326   2.514  0.0222  0.1526 -0.0164
19546W        W35015  13.923   0.513  13.939  0.0857  0.1021 -0.0409
19547W        W35016  12.502   3.938  15.063  0.2365 -0.1493 -0.2307
19548W        W35017  10.170   0.823   4.722  0.0802  0.0683  0.1545
19549W        W35018  14.970  16.967   5.662 -0.0030  0.1336  0.1405
19550W        W35019   9.708  12.073  11.903 -0.3279 -0.0264  0.3448
19551W        W35020  12.381  12.847  14.271 -0.1164 -0.3415 -0.3853
19552W        W35021  14.569   6.837   3.900 -0.2019  0.1849 -0.0054
19553W        W35022  19.026   5.612  12.624 -0.2494 -0.1678  0.0594
19554W        W35023   6.562   2.150   4.471 -0.2066  0.3715  0.0306
19555W        W35024   1.635  12.873  12.770  0.3797  0.0666 -0.0820
19556W        W35025  18.461   2.261  13.267  0.1860  0.0506 -0.3066
19557W        W35026   6.653   6.091   0.929 -0.0414  0.0429 -0.0375
19558W        W35027  18.797   6.888  15.132 -0.0627  0.1283  0.0461
19559W        W35028  10.834  16.973   5.147 -0.1855  0.3252 -0.1296
19560W        W35029  12.807   4.938   2.179  0.1677  0.1043  0.2131
19561W        W35030   6.198  15.182   1.850 -0.3824 -0.1480 -0.0624
19562W        W35031  12.871  18.275   3.127  0.1367  0.1278 -0.0037
19563W        W35032   0.837   7.883  11.265 -0.0627  0.2430  0.0539
19564W        W35033   1.015  13.308  13.492 -0.0981  0.0020  0.0716
19565W        W35034  14.735   3.110   0.271  0.0103 -0.0545  0.2256
19566W        W35035   5.900  17.487   5.520 -0.1806  0.0028  0.3029
19567W        W35036  12.492   2.010   4.308 -0.1578  0.1959  0.3240
19568W        W35037   8.721   7.911  14.441 -0.1324  0.1686  0.1541
19569W        W35038  18.704  11.966  14.168  0.0364 -0.2828  0.0209
19570W        W35039   9.877  17.002  12.553 -0.3211 -0.5880 -0.1104
19571W        W35040  10.876   0.630   1.583 -0.0884 -0.1160  0.1142
19572W        W35041  11.051   4.230   2.814  0.3132 -0.2478 -0.1259
19573W        W35042  14.397  13.916   3.154 -0.0993  0.0581 -0.1521
19574W        W35043  11.005  14.410  12.166 -0.2347  0.0109  0.0468
19575W        W35044   1.569  15.426  14.986  0.1130  0.0466  0.2240
19576W        W35045  14.671  10.755  14.134 -0.0520 -0.0026  0.0583
19577W        W35046   7.946   5.558   1.841 -0.1743 -0.0244 -0.1516
19578W        W35047   9.452  12.431   2.999  0.0321 -0.0898 -0.2345
19579W        W35048  18.236  12.734   3.475  0.0548 -0.1912 -0.0914
19580W        W35049   3.465  13.318  14.452 -0.1363 -0.1845  0.3115
19581W        W35050  11.172  12.420  12.671 -0.3024 -0.0316  0.2150
19582W        W35051   2.228   6.245   4.324 -0.0731  0.2499  0.1333
19583W        W35052  12.947  12.214   1.232  0.2298 -0.1606 -0.0739
19584W        W35053   2.102   2.197   2.665  0.2366 -0.2685 -0.1676
19585W        W35054   4.223   8.477   0.984 -0.1680 -0.3063 -0.0211
19586W        W35055   6.336   0.709  15.193 -0.3058 -0.0526  0.1220
19587W        W35056  18.812  15.295  15.286 -0.3879 -0.1428 -0.1517
19588W        W35057   4.091  17.950   9.610 -0.4986 -0.1583 -0.0182
19589W        W35058   7.017  17.472  13.091  0.0402  0.1310  0.2084
19590W        W35059   6.676   7.623   0.657 -0.0696 -0.1558  0.0118
19591W        W35060  17.127  18.276  13.906  0.0744  0.1951  0.0994
19592W        W35061   3.225  14.886  12.937 -0.0685 -0.0735 -0.1728
19593W        W35062   1.999   4.654   4.106 -0.2507  0.0208 -0.1375
19594W        W35063  11.476  13.196   1.329 -0.2112 -0.3664  0.0984
19595W        W35064  18.062   2.888  12.879 -0.0397 -0.0942  0.1694
19596W        W35065  17.889   5.371   0.284 -0.1246 -0.0566 -0.1172
19597W        W35066  18.040  12.849  11.852  0.0087 -0.0550  0.1643
19598W        W35067   1.275  14.052   3.158 -0.0841 -0.0490  0.3123
19599W        W35068   3.024   1.697   3.499 -0.0018  0.0231  0.1357
19600W        W35069   7.547   1.696   3.372  0.1791  0.1007  0.2029
19601W        W35070   9.474  10.034   1.051  0.0211 -0.1208 -0.0656
19602W        W35071   7.535   3.417  11.540  0.0485  0.0186  0.1172
19603W        W35072   4.147   2.629   4.361 -0.4068 -0.1749 -0.5294
19604W        W35073   2.423   3.008   3.627 -0.1491 -0.2521 -0.0176
19605W        W35074   0.536   1.682  11.425  0.1524 -0.4363  0.2699
19606W        W35075  14.770  18.980  12.813  0.2041 -0.1634  0.1034
19607W        W35076  14.694  15.912   5.170 -0.2893  0.3465 -0.0905
19608W        W35077   1.410   4.226  13.613 -0.0386 -0.1630 -0.0957
19609W        W35078  15.847  18.529   3.723 -0.1434 -0.1460  0.0247
19610W        W35079  15.713   0.853  12.485  0.1014  0.0146  0.2646
19611W        W35080  11.709  14.648   3.713 -0.1337  0.0155  0.1450
19612W        W35081   7.462  12.738  15.294  0.0822  0.1210  0.0236
19613W        W35082  14.380   5.996   9.842  0.2162  0.1804 -0.0113
19614W        W35083   1.958  12.961   3.169  0.0407  0.0075 -0.1208
19615W        W35084   1.798  17.446   2.886  0.0340 -0.1265  0.0612
19616W        W35085  16.231  18.869  11.094  0.0368  0.0952  0.0380
19617W        W35086   5.374  18.188  14.025 -0.0529 -0.1652 -0.1580
19618W        W35087  15.235   6.975  10.387  0.1407 -0.2990 -0.0264
19619W        W35088  13.752   2.117   1.188 -0.0904 -0.0966  0.0738
19620W        W35089  15.770   5.070  13.944  0.2303 -0.0366 -0.2544
19621W        W35090   0.159   6.939  13.911  0.2332  0.0677 -0.2938
19622W        W35091  13.436   8.760   0.776 -0.3168  0.0516 -0.2198
19623W        W35092   9.558   7.398  14.573 -0.1431  0.0873 -0.0150
19624W        W35093  18.354   3.078  14.686  0.2923  0.1332  0.1313
19625W        W35094   3.824  18.240  15.277 -0.2157  0.1975 -0.0811
19626W        W35095   4.191   6.795   3.284 -0.1559  0.0527  0.1070
19627W        W35096   7.518  18.702   1.416 -0.2404  0.2082  0.1045
19628W        W35097   8.350  11.854   2.703 -0.1788 -0.3721 -0.0188
19629W        W35098  13.499   9.757   0.057 -0.1623  0.0715 -0.1175
19630W        W35099  16.840   1.223  12.983 -0.1512 -0.1178 -0.1503
19631W        W35100  13.260  13.006  14.407 -0.0990  0.0849  0.1386
19632W        W35101  10.842   0.871   1.096 -0.3388 -0.0868  0.1964
19633W        W35102  11.553   9.683   2.738  0.3146 -0.1036 -0.0650
19634W        W35103   4.346   8.727  10.720  0.3033 -0.2658  0.1718
19635W        W35104   7.438  17.830  13.008 -0.1271 -0.0004 -0.1976
19636W        W35105   0.141   1.441   4.017 -0.2176 -0.2276 -0.4612
19637W        W35106   4.125  18.956   5.827 -0.1889  0.0253 -0.3179
19638W        W35107   9.587   2.548   6.419  0.0079  0.2693  0.1377
19639W        W35108   2.044  10.836   9.427  0.0507  0.1694  0.0552
19640W        W35109  15.220   0.284  13.866 -0.0816  0.3203 -0.0981
19641W        W35110  15.026  13.814  13.319  0.3441  0.1418 -0.0247
19642W        W35111  15.855   4.565   1.433 -0.2768  0.1616 -0.0862
19643W        W35112   9.748   1.659   2.845 -0.3527  0.2154  0.1585
19644W        W35113   0.641   5.158  14.387 -0.0485  0.2304  0.0730
19645W        W35114  12.673  11.270   3.920 -0.3031 -0.1753 -0.1245
19646W        W35115   7.744   1.288  12.548  0.3146  0.0524 -0.0526
19647W        W35116   5.617  11.159  10.998  0.0634  0.1562 -0.3390
19648W        W35117   4.767  17.433   1.717 -0.0019 -0.1961 -0.0958
19649W        W35118  13.362  11.504  12.083 -0.1318 -0.2646  0.1892
19650W        W35119   1.405  14.848   2.685 -0.1449 -0.0105 -0.1525
19651W        W35120   7.573  18.359   1.819  0.0605  0.1291 -0.1225
19652W        W35121  15.231  11.292  14.632  0.3431  0.0104  0.0224
19653W        W35122   7.850   8.411  12.592 -0.2277  0.1280 -0.1591
19654W        W35123  13.519  16.757  13.494 -0.0183  0.0777 -0.3151
19655W        W35124  18.637  12.002   3.363  0.3582 -0.2832 -0.0739
19656W        W35125   7.596  18.483  14.635 -0.2216  0.1393 -0.0031
19657W        W35126  10.072  13.446   3.883 -0.0870  0.0885  0.1143
19658W        W35127   8.734   0.768   5.341 -0.2805  0.1287 -0.0928
19659W        W35128  10.502   6.938   0.891  0.0205 -0.2682 -0.2238
19660W        W35129  13.639   5.836  15.302  0.0979 -0.1347 -0.1762
19661W        W35130   3.049  11.504  11.513 -0.1046 -0.1178  0.1143
19662W        W35131  19.000  15.094   2.630 -0.2016  0.0072 -0.2263
19663W        W35132   3.542  12.310  11.567  0.4501 -0.0795 -0.0181
19664W        W35133   5.866  12.794   9.473  0.0701  0.0710  0.1509
19665W        W35134  15.577   5.806  12.315  0.0147  0.1011  0.2689
19666W        W35135   4.190   7.424   2.280 -0.0065  0.1951  0.2279
19667W        W35136   3.787   4.197   4.240  0.2018  0.3356  0.1962
19668W        W35137   6.330  12.168  10.418 -0.0746 -0.2113  0.2756
19669W        W35138  15.108  15.934   1.642  0.1016 -0.0998 -0.1915
19670W        W35139  17.358   4.641  11.842  0.2360 -0.0384  0.2868
19671W        W35140  13.209   5.224  11.010  0.1579 -0.1400 -0.0340
19672W        W35141  18.276   2.060  12.373 -0.0154  0.1502  0.1738
19673W        W35142  15.893  11.521   5.488  0.0310 -0.1063 -0.1258
19674W        W35143  17.385   3.360  12.832 -0.2374 -0.3596  0.0707
19675W        W35144  17.429  18.176  11.067  0.3471 -0.1066  0.1068
19676W        W35145  11.146   4.101  14.299  0.0400 -0.0194 -0.3458
19677W        W35146  18.647   8.395  11.916  0.2884 -0.2555  0.1085
19678W        W35147   2.617   0.961   2.489 -0.0483 -0.4588 -0.1556
19679W        W35148  13.671   0.058  10.534  0.1243  0.0194 -0.1829
19680W        W35149   6.042  10.050   4.860  0.1228 -0.0839  0.4609
19681W        W35150   7.808  15.472   4.095  0.2813 -0.2316  0.1893
19682W        W35151  13.083   2.320  11.513 -0.0843 -0.0896 -0.0819
19683W        W35152  10.960   9.697   2.696  0.3102 -0.0496 -0.1968
19684W        W35153  11.475   4.567  13.378  0.2170 -0.6452 -0.2343
19685W        W35154  15.461   0.420  13.436  0.0812 -0.0494  0.0575
19686W        W35155  18.850  13.508   2.267  0.1365  0.1418 -0.1602
19687W        W35156  13.710  18.755  12.947  0.2542 -0.1748  0.2664
19688W        W35157   4.392   9.142  13.290  0.0474 -0.1587  0.2033
19689W        W35158   5.465   6.768  10.810 -0.1749 -0.0939 -0.4096
19690W        W35159   4.336   0.958   4.144  0.1100 -0.0113  0.3931
19691W        W35160   9.514   9.737   2.101 -0.0595  0.2175 -0.1367
19692W        W35161  16.225  13.283   2.188 -0.0197 -0.1375  0.1863
19693W        W35162   1.921  11.851  11.981  0.0070 -0.1973  0.2317
19694W        W35163   4.795   9.547   3.309  0.1673 -0.0407  0.1261
19695W        W35164  13.853   5.821   4.523  0.0490  0.0310  0.1768
19696W        W35165  11.501   0.884   1.014  0.0986  0.4353 -0.0958
19697W        W35166  17.659   7.539   0.715 -0.2388  0.2599 -0.2405
19698W        W35167   3.079   5.458  11.125  0.0241 -0.1994 -0.2402
19699W        W35168  17.310  18.438  12.972 -0.0236 -0.0280 -0.1047
19700W        W35169   2.484   9.885   4.074 -0.0650  0.0480  0.1829
19701W        W35170   4.297   2.366  12.020  0.0820  0.0118  0.0473
19702W        W35171  11.657   1.873  14.538  0.1065 -0.3867 -0.0672
19703W        W35172  17.006  13.195  14.605 -0.2220 -0.0467  0.0507
19704W        W35173   0.610  11.038  12.710 -0.0733 -0.1174 -0.1114
19705W        W35174  18.273  17.510  10.543  0.0314 -0.1144 -0.3240
19706W        W35175   7.861   7.241   1.284 -0.2434 -0.2666 -0.2389
19707W        W35176  11.740   3.035  11.749 -0.1673 -0.1024  0.3455
19708W        W35177  11.271   2.130   2.116  0.3682 -0.0231  0.1780
19709W        W35178   9.307   5.199   1.417 -0.2420 -0.2567 -0.1587
19710W        W35179   4.629   3.077   5.603  0.1584  0.1830  0.1907
19711W        W35180   4.916  15.735   0.575 -0.2426  0.1887  0.1630
19712W        W35181  11.841  14.245  10.325  0.0969 -0.1271 -0.1455
19713W        W35182   0.229  10.168   3.628 -0.0871  0.0692 -0.3580
19714W        W35183  15.081   4.514   4.296  0.3165  0.1343 -0.1644
19715W        W35184  14.552  13.433   4.329 -0.0966 -0.1740 -0.1356
19716W        W35185  15.612  18.140   0.380 -0.0764  0.3030  0.0016
19717W        W35186  14.298   3.462  12.666  0.1092 -0.2192 -0.0251
19718W        W35187   6.432   5.018  14.612 -0.1710  0.0048  0.2656
19719W        W35188   4.365  10.959  13.420  0.0036  0.2877  0.0309
19720W        W35189   8.445   7.516   4.333  0.0894  0.5242 -0.4485
19721W        W35190  17.250  13.739   2.351  0.2091 -0.3738  0.0339
19722W        W35191  10.046  13.149  13.577 -0.0629 -0.3264  0.0378
19723W        W35192  10.602   8.990  11.987  0.2637 -0.0934  0.2549
19724W        W35193  12.222  11.163   1.943 -0.0282 -0.1106 -0.0347
19725W        W35194  18.197  13.672  10.221  0.5005  0.0325  0.0931
19726W        W35195   0.896  12.348  12.582 -0.3597  0.1923 -0.0826
19727W        W35196   9.549   5.251  12.861  0.0341 -0.3081 -0.2052
19728W        W35197   9.640   9.019  11.267 -0.3550 -0.1839 -0.2432
19729W        W35198   2.536  10.796  13.351  0.1855  0.1092  0.1101
19730W        W35199   5.184  12.506  14.632 -0.0901 -0.2007 -0.0816
19731W        W35200  17.432  17.588  13.264 -0.1408  0.1366  0.2002
19732W        W35201   2.728   2.625   4.383 -0.0672 -0.2880  0.0420
19733W        W35202   0.394   3.064  14.944 -0.0334 -0.0607  0.2839
19734W        W35203  14.789  16.981  13.722 -0.0309 -0.0945  0.1351
19735W        W35204   5.565  16.642  13.497 -0.1772  0.0939 -0.2509
19736W        W35205  14.201   9.373  11.598  0.3190  0.0515 -0.0696
19737W        W35206  15.240  11.306  12.297 -0.2193 -0.2274  0.0483
19738W        W35207  18.232   1.449   5.030 -0.0972 -0.3226  0.1655
19739W        W35208  12.750  15.364  14.597  0.2041 -0.1367  0.2188
19740W        W35209   7.831  17.294  12.276  0.0549  0.2305 -0.2176
19741W        W35210  12.045  18.357   3.760  0.1426  0.2909  0.0689
19742W        W35211  12.857  14.935   2.889  0.2547 -0.1570  0.3167
19743W        W35212  11.152   5.517   1.047  0.0667 -0.1078 -0.3383
19744W        W35213   6.804  12.029   5.039 -0.1341  0.0059  0.5210
19745W        W35214   5.171  13.703  10.417 -0.3513  0.3071  0.0431
19746W        W35215   6.910   4.742   4.362 -0.2561  0.0999  0.1566
19747W        W35216  13.124  16.839  13.056  0.1007 -0.1949  0.3805
19748W        W35217   8.371  11.495   0.261  0.2960  0.3994  0.0067
19749W        W35218   3.308   4.660  14.331 -0.2064  0.1333  0.0026
19750W        W35219   6.435  15.228  10.878 -0.1896 -0.2414  0.1648
19751W        W35220  17.789  10.117   1.221  0.1572 -0.0347  0.1813
19752W        W35221  11.827   5.124  14.183 -0.1977  0.2178 -0.0772
19753W        W35222   5.140   7.338   5.438  0.0637  0.0592 -0.0637
19754W        W35223   1.431   9.732  11.136 -0.1779 -0.0967 -0.0511
19755W        W35224   2.768   7.585   4.425  0.2494 -0.5782  0.1042
19756W        W35225   1.318   7.094  14.657 -0.0660  0.0039  0.0405
19757W        W35226   3.732   4.215   2.675  0.0089  0.0767  0.3306
19758W        W35227  16.675  15.390  11.252  0.0927 -0.1423  0.0144
19759W        W35228   6.007  16.349  13.159  0.2196  0.1868  0.0875
19760W        W35229  15.223  10.286  11.348 -0.1184  0.2272  0.0346
19761W        W35230  17.094  16.503  14.039  0.0572  0.1684  0.0966
19762W        W35231   6.635  16.845   1.718 -0.0808  0.1326 -0.2038
19763W        W35232  13.395   6.849  13.729  0.3314 -0.0382 -0.2175
19764W        W35233  12.072   3.592   5.309 -0.1314  0.1211 -0.0090
19765W        W35234   8.688  14.675   3.564 -0.1703 -0.1356 -0.3080
19766W        W35235   3.476  16.191  13.868 -0.1952  0.0471 -0.0601
19767W        W35236   7.923  15.359  13.741  0.2412  0.0488 -0.1305
19768W        W35237   8.353   2.575   2.252 -0.3087 -0.1413  0.3612
19769W        W35238  17.358   1.377  14.236 -0.0255 -0.1692  0.1240
19770W        W35239   4.018  15.915  11.296  0.0414  0.1929 -0.1805
19771W        W35240  17.222   0.531   4.451  0.4226  0.1331 -0.1411
19772W        W35241   9.880  11.710  12.780  0.3261 -0.0055 -0.0636
19773W        W35242   7.654   4.482   0.151 -0.0340  0.4121  0.1568
19774W        W35243  11.562   5.635   4.011  0.0369  0.1553 -0.1147
19775W        W35244  12.707  15.552  15.072  0.0029  0.0020 -0.0446
19776W        W35245   1.903  16.419   4.985  0.0157  0.0400  0.2745
19777W        W35246  16.763  16.293  11.056 -0.0858 -0.0090  0.0364
19778W        W35247  17.996   4.902  13.938  0.2269 -0.0647  0.0471
19779W        W35248   8.676   5.883  12.971 -0.2622 -0.4111  0.2399
19780W        W35249   6.198  15.387   5.744 -0.0415 -0.3995  0.2124
19781W        W35250   0.095   6.246  14.609 -0.0839 -0.0273  0.0568
19782W        W35251   5.879  13.405   0.389 -0.0122  0.3571 -0.0973
19783W        W35252  14.694  12.958   4.812 -0.1742  0.0284  0.1308
19784W        W35253   5.976  17.330   4.683  0.3164 -0.0525  0.0063
19785W        W35254  18.230   2.158   0.622  0.4936 -0.0790  0.2571
19786W        W35255  10.228  17.582   1.451 -0.0245 -0.0225  0.0213
19787W        W35256   6.540   7.070   1.429 -0.1198  0.0092  0.1990
19788W        W35257  11.961   9.286  11.942  0.3127  0.0580 -0.2561
19789W        W35258  18.889   5.640   0.664 -0.3334 -0.0947 -0.1876
19790W        W35259   8.655  11.316   3.330 -0.0892  0.0308 -0.1566
19791W        W35260   5.120   1.345   0.090  0.0274 -0.0846  0.1112
19792W        W35261  17.967   2.107   9.183 -0.3601  0.1636 -0.1471
19793W        W35262   9.273   4.033  14.843  0.0088  0.1889  0.1041
19794W        W35263   1.125   9.823   3.516  0.1142  0.1840 -0.1631
19795W        W35264   6.908  18.865  12.329  0.3441 -0.0771  0.2403
19796W        W35265   7.634   3.107   2.887 -0.0274 -0.0380  0.1270
19797W        W35266   1.175   3.624  10.481 -0.0293 -0.1759 -0.3769
19798W        W35267   9.928  12.249   3.052 -0.3174 -0.1180  0.0259
19799W        W35268   1.257   8.764  11.580  0.1465 -0.0947  0.1101
19800W        W35269  15.976  13.290  14.102 -0.1402  0.2630  0.4284
19801W        W35270   4.332  15.649   3.828  0.4264  0.4523  0.2334
19802W        W35271   0.935   0.835   3.036  0.0796  0.3619  0.0291
19803W        W35272  12.010   6.044  12.447  0.2190 -0.0486  0.0334
19804W        W35273   5.891   2.923   0.461 -0.0256  0.5185  0.1013
19805W        W35274  17.389  14.944  11.696  0.0917 -0.0201 -0.1998
19806W        W35275   2.952  15.099   4.166 -0.1662 -0.3699  0.3712
19807W        W35276  13.134  16.385   2.826  0.2843  0.3266  0.0384
19808W        W35277   4.288   2.596  11.576  0.1560  0.1847 -0.3714
19809W        W35278   9.394   6.914  14.413 -0.3679 -0.1512  0.0221
19810W        W35279   7.885  11.270  11.328  0.2853 -0.0555  0.1105
19811W        W35280   1.933  15.864  11.840 -0.0267  0.0541  0.1182
19812W        W35281  15.224   7.298   3.115  0.1511 -0.1226  0.0668
19813W        W35282   4.576   6.237  12.832  0.0990 -0.2004 -0.3699
19814W        W35283   5.559  12.095  11.465  0.1778 -0.0817 -0.2540
19815W        W35284  14.760   4.683  15.038 -0.3246 -0.3014 -0.3645
19816W        W35285   2.395  15.497   4.670  0.1343 -0.4078  0.2575
19817W        W35286  17.196   4.232  11.037 -0.0532  0.2728  0.0347
19818W        W35287  10.962  13.122   1.546 -0.0098 -0.0418 -0.1778
19819W        W35288  17.817  17.573   4.424 -0.0137  0.1222  0.0741
19820W        W35289  14.513  11.103  13.090 -0.5713  0.0038  0.0121
19821W        W35290   8.751  11.011   0.011 -0.3301 -0.2120  0.1902
19822W        W35291  11.816  17.898  11.047  0.0217 -0.0294 -0.1556
19823W        W35292   0.681   5.077  11.100  0.2868  0.1165 -0.3310
19824W        W35293  17.363  18.715   0.325 -0.2296  0.1089  0.1050
19825W        W35294  10.593  15.532  13.453  0.0714 -0.0397 -0.0607
19826W        W35295   4.017   8.368   0.117  0.2855  0.4473 -0.2124
19827W        W35296  13.078   2.880  14.257 -0.0181 -0.0518  0.1025
19828W        W35297  16.952  15.044   0.152 -0.3815  0.0311 -0.0225
19829W        W35298   6.794  13.835   2.558 -0.0853 -0.2593  0.2544
19830W        W35299   6.486   0.466  11.051  0.0872 -0.2862 -0.0017
19831W        W35300  15.639  17.425   0.835 -0.1848  0.3997 -0.0168
19832W        W35301  11.868  15.485   4.335 -0.0934 -0.0870  0.2206
19833W        W35302   5.477   7.285   2.847 -0.0208  0.1182 -0.0995
19834W        W35303   0.465  15.588   1.948 -0.4657 -0.1348 -0.1961
19835W        W35304   3.940   8.005   5.239 -0.0031 -0.1824  0.0954
19836W        W35305  14.945  15.367  15.253  0.0325  0.1123  0.1618
19837W        W35306  13.024   2.692  14.778 -0.3423  0.1632 -0.0572
19838W        W35307  14.894   8.100   2.193 -0.3184  0.0277 -0.0064
19839W        W35308   6.525  14.203  14.048 -0.2987  0.3686  0.2490
19840W        W35309   9.946  15.506   5.119 -0.0034 -0.2529  0.1243
19841W        W35310   5.798   9.517   0.431 -0.0998 -0.2381  0.0444
19842W        W35311  16.082  13.385  11.218  0.3729  0.2177 -0.1262
19843W        W35312   8.088  16.284   3.239 -0.2343 -0.2718  0.3517
19844W        W35313   8.124  15.968  14.283  0.0227 -0.0984 -0.1177
19845W        W35314  13.301   1.517  14.471  0.1903  0.0391 -0.0804
19846W        W35315   3.802  12.691  11.067  0.0707  0.0970  0.0742
19847W        W35316   1.622   2.948  10.987  0.0844 -0.2233 -0.0681
19848W        W35317  13.745  13.037  12.273  0.3010  0.0911 -0.2938
19849W        W35318  13.281  16.014   1.842 -0.1326  0.1159 -0.0455
19850W        W35319   8.789   5.450  11.510 -0.1020  0.0582  0.3243
19851W        W35320   9.471  18.266  14.245 -0.1500  0.0238 -0.0900
19852W        W35321  13.997  17.579   2.383 -0.1734 -0.1994  0.0584
19853W        W35322  18.939   5.384  10.592 -0.0980 -0.0151 -0.0448
19854W        W35323  16.945  15.853  11.306  0.1092 -0.0873  0.0284
19855W        W35324  16.368  11.768  12.641  0.1986  0.1064  0.1760
19856W        W35325   3.507   8.777   5.030 -0.0373  0.2362  0.1191
19857W        W35326   4.009  15.151   5.031 -0.1295  0.0599 -0.0373
19858W        W35327   0.175  13.455   4.553 -0.1088  0.0447 -0.1026
19859W        W35328  11.026  18.935   3.336  0.1312 -0.0655 -0.0388
19860W        W35329   6.166   4.038  12.919  0.0757  0.1330 -0.0108
19861W        W35330  14.887   1.468  10.530 -0.1752  0.0634  0.5074
19862W        W35331  17.375  11.624   1.338 -0.1932 -0.1431  0.0023
19863W        W35332   2.752   5.401   0.928  0.1197 -0.3093  0.1584
19864W        W35333  10.006  16.945   4.674  0.2039  0.3088 -0.1102
19865W        W35334   7.703  14.981  11.659 -0.1825  0.1466  0.4679
19866W        W35335  10.714   6.357   3.223 -0.0272 -0.1159 -0.0364
19867W        W35336  10.097  16.821   3.700  0.1928 -0.1143 -0.0095
19868W        W35337  16.051  14.975  15.136  0.3235  0.0931 -0.1635
19869W        W35338   3.883  15.584   2.103  0.6740  0.2741  0.3054
19870W        W35339   8.486   9.528   4.812 -0.2859  0.0491 -0.0575
19871W        W35340  14.867   3.629   0.368  0.1422  0.1973  0.1939
19872W        W35341   0.498  15.700   4.093  0.1955 -0.4516  0.3589
19873W        W35342  16.011   0.820   3.936  0.0998 -0.0206  0.0076
19874W        W35343   5.791   8.001  12.212 -0.4960  0.0449 -0.2925
19875W        W35344  13.834  15.525   3.665 -0.1188 -0.2394  0.2494
19876W        W35345   7.311  16.324  13.440  0.0128 -0.1310 -0.0057
19877W        W35346  15.334   5.511  14.758 -0.2912  0.0780  0.2588
19878W        W35347   1.203   0.957   0.090  0.0292  0.2047 -0.3651
19879W        W35348  11.242   4.223   3.374 -0.0333  0.0985  0.0481
19880W        W35349   7.931  15.482   0.315  0.2396  0.2509  0.0027
19881W        W35350  15.067  11.869  14.742  0.0555 -0.1408  0.3002
19882W        W35351   9.895   2.067  12.211  0.0262 -0.2162 -0.0199
19883W        W35352   4.644  16.709  11.898  0.1643 -0.1477  0.0024
19884W        W35353   6.577   0.392   0.232  0.4508 -0.3620 -0.0382
19885W        W35354  12.753  14.237  11.677  0.0188 -0.0165  0.0665
19886W        W35355  15.027  19.003   3.953  0.0511  0.0732 -0.0839
19887W        W35356   1.508   9.645  13.582 -0.2469  0.2218 -0.1243
19888W        W35357   0.447  12.280   3.833  0.0242 -0.0213 -0.2173
19889W        W35358  11.528  18.347   2.339 -0.1534  0.2375 -0.3212
19890W        W35359  10.875   5.394  12.036  0.0233 -0.1733  0.0713
19891W        W35360   8.061  16.456  11.244  0.4078 -0.1512 -0.0220
19892W        W35361   1.551  15.008  13.269  0.0367 -0.5365 -0.0084
19893W        W35362   8.124   8.491  13.726  0.0302  0.3792 -0.1543
19894W        W35363   8.574   2.363  14.398 -0.0448  0.3419  0.0129
19895W        W35364   1.983   2.826   3.495  0.1972  0.1124  0.0618
19896W        W35365   9.891  16.827  15.064 -0.2614 -0.1382  0.2483
19897W        W35366  15.588  10.538   0.607 -0.0588  0.0586 -0.0191
19898W        W35367  12.487  10.976   9.945  0.1487  0.0665 -0.0391
19899W        W35368   3.843   9.114   1.450  0.1009  0.0789 -0.2858
19900W        W35369   6.481  13.373   1.886 -0.0393 -0.1448  0.1142
19901W        W35370   3.451  13.764  10.605 -0.1761  0.1470 -0.0659
19902W        W35371   5.842  10.342  13.332  0.3642  0.1474  0.0696
19903W        W35372   6.930  17.428   4.575  0.0330  0.2476 -0.2805
19904W        W35373  18.839   7.491  12.746  0.0260 -0.1750  0.2750
19905W        W35374  11.370   1.308   4.795 -0.1933  0.1058  0.1181
19906W        W35375   1.793   5.627   0.843  0.1675 -0.2372  0.2130
19907W        W35376   5.625  16.958  12.761 -0.0045  0.1565  0.0354
19908W        W35377  11.589  12.492  11.942 -0.3492 -0.0488  0.0293
19909W        W35378  16.834  16.171   0.252  0.0799  0.1144 -0.2094
19910W        W35379   2.903   2.482  14.829  0.3597 -0.1506  0.1395
19911W        W35380  17.557  15.626  14.826  0.1069  0.0336 -0.1088
19912W        W35381  10.557  14.240   3.466 -0.1019  0.2263  0.1389
19913W        W35382  15.783  15.815   3.900 -0.0645 -0.1137 -0.5143
19914W        W35383  10.349  11.359   5.083 -0.3805 -0.3499 -0.2427
19915W        W35384   2.754   5.719  11.376  0.0724  0.0694 -0.1160
19916W        W35385  16.699  13.160   1.913  0.2432 -0.2236  0.0284
19917W        W35386  16.294  15.221  13.374 -0.1315 -0.2684  0.0994
19918W        W35387   4.176   1.668  14.217  0.0082 -0.0658 -0.0570
19919W        W35388   7.602  15.494   0.811 -0.0200  0.2297  0.2325
19920W        W35389   0.596  12.262   3.241  0.1001 -0.0852  0.1779
19921W        W35390   6.915  18.457  12.078  0.0464  0.2179  0.0896
19922W        W35391   1.303  14.043  10.453  0.1133  0.1143  0.1754
19923W        W35392   9.454   6.571   3.067  0.0916 -0.0080 -0.1412
19924W        W35393   7.903   7.373  14.445 -0.1486  0.0822  0.2375
19925W        W35394  18.486  16.437   1.153  0.0638 -0.2225  0.0624
19926W        W35395   9.260  17.921   1.629 -0.4226 -0.2918 -0.2060
19927W        W35396  17.652  18.196  13.310 -0.0325  0.1459  0.2114
19928W        W35397   2.218   2.866  10.757  0.3872  0.3114  0.0330
19929W        W35398  13.888  18.951  12.354  0.3665 -0.1717  0.7407
19930W        W35399  10.176  10.182  11.911  0.0787 -0.0177  0.3539
19931W        W35400  11.967  14.902   5.154  0.3807  0.2621 -0.0881
19932W        W35401  14.344  12.230  15.244 -0.1834 -0.1111  0.1899
19933W        W35402   3.703   4.078   1.230  0.0058  0.2602 -0.1749
19934W        W35403   4.963   1.574   5.577 -0.0590 -0.3833 -0.2419
19935W        W35404  10.852   0.811   2.545 -0.2151  0.0791 -0.2600
19936W        W35405   2.875   9.818  10.871 -0.1404 -0.0454 -0.1354
19937W        W35406   5.515   7.450  13.085 -0.1891 -0.0031 -0.3556
19938W        W35407  10.646   2.031   6.048  0.0551  0.1544 -0.0285
19939W        W35408  13.267  10.083   3.486  0.0204 -0.3134  0.1186
19940W        W35409  17.067  17.817  12.064  0.0359  0.1032  0.2005
19941W        W35410  11.358   5.127   1.343 -0.4328 -0.0960  0.0521
19942W        W35411   3.718  11.393  11.611  0.0049 -0.1294  0.0025
19943W        W35412   0.202   3.197  14.354  0.0017 -0.0046  0.2953
19944W        W35413  17.300  16.082   9.931  0.1629  0.1713 -0.3590
19945W        W35414   1.944   7.768  12.440 -0.3557 -0.3550 -0.0048
19946W        W35415  17.984   7.466   9.692 -0.0408  0.1098  0.1010
19947W        W35416   5.779   8.096   2.947  0.3736  0.0070  0.4230
19948W        W35417   0.108   9.459   2.205  0.2325  0.4819  0.2122
19949W        W35418   1.311   6.660   2.785  0.0103  0.1866  0.2160
19950W        W35419   4.822   6.000   3.386  0.0032  0.0166 -0.2696
19951W        W35420  17.771   4.126   5.179  0.2237 -0.3658 -0.2058
19952W        W35421   1.179  14.687   0.176 -0.2256 -0.0172 -0.0710
19953W        W35422   1.463  16.231   2.797 -0.1584 -0.0139  0.2256
19954W        W35423  10.630   1.658  14.767 -0.1208  0.1522 -0.1416
19955W        W35424   0.942  12.754  10.616 -0.3621 -0.0549 -0.0998
19956W        W35425   6.081  17.264  11.880  0.2859 -0.1262  0.3580
19957W        W35426  12.271  14.339  12.626 -0.0463  0.1212  0.1844
19958W        W35427  13.799   3.232  14.403  0.2202  0.0960 -0.1204
19959W        W35428  13.764   8.977  14.496 -0.1311 -0.1231 -0.0493
19960W        W35429  16.555  12.041   3.063 -0.0989 -0.0366 -0.1582
19961W        W35430  15.155  13.247  11.157 -0.2334  0.1365 -0.0532
19962W        W35431  16.494  14.204   0.907 -0.2559 -0.0853  0.0108
19963W        W35432   1.256   7.897  11.612 -0.0912 -0.0653  0.1524
19964W        W35433  11.730  12.723   1.152 -0.3159  0.0798  0.0813
19965W        W35434   9.276  18.529  13.563  0.0091  0.0086 -0.0712
19966W        W35435   7.768  16.687  12.349 -0.0509 -0.0753 -0.2906
19967W        W35436  16.830   4.049  12.586 -0.0713  0.0242 -0.0135
19968W        W35437  16.754   2.111   0.403  0.1545 -0.0868 -0.5882
19969W        W35438   2.331  11.793  15.358  0.1504  0.1365 -0.1411
19970W        W35439  18.461  14.022   4.564 -0.1512 -0.0775  0.0608
19971W        W35440  15.156   1.896  10.963  0.1531  0.6444  0.0870
19972W        W35441  14.794  16.804   5.217  0.1111 -0.1737 -0.0522
19973W        W35442  14.139  14.892   2.763  0.0852  0.2402  0.1547
19974W        W35443   4.781  15.442  11.540 -0.1989  0.1816 -0.4758
19975W        W35444  13.019   1.072   4.192  0.0508  0.2723  0.0576
19976W        W35445  11.016   5.773   0.646 -0.1400  0.0086 -0.1838
19977W        W35446   7.526  18.931   0.104  0.2931  0.3019 -0.1478
19978W        W35447  10.907   0.211  14.337  0.1079  0.0465  0.1990
19979W        W35448  12.040   3.936   0.957 -0.0036 -0.0281  0.0669
19980W        W35449  15.285   8.028   1.491 -0.2073  0.0203  0.1340
19981W        W35450   6.035   9.937  14.542 -0.3978 -0.4251  0.1639
19982W        W35451   6.778   8.166  14.935  0.2802  0.0351  0.1245
19983W        W35452  17.966   0.299   2.271  0.2868 -0.2954  0.0704
19984W        W35453  10.442  16.798  14.872  0.1930  0.5148  0.0405
19985W        W35454   8.353   6.585  12.538 -0.0309  0.1494 -0.2012
19986W        W35455   9.976  11.792   4.844  0.1936 -0.3667  0.2625
19987W        W35456   4.893  18.072   3.418  0.1400  0.2004 -0.0370
19988W        W35457   7.187  12.977  11.675 -0.2501 -0.0699 -0.1777
19989W        W35458   8.427   9.032   4.947  0.2024 -0.1354 -0.0302
19990W        W35459   4.424   0.583   5.401 -0.1417  0.0276 -0.2610
19991W        W35460  17.023   3.426   2.221  0.0488 -0.1789  0.2414
19992W        W35461   3.008  15.407  10.406  0.0603 -0.2058 -0.0910
19993W        W35462   4.766  15.291   1.457 -0.2232  0.1107  0.0676
19994W        W35463  10.226  16.762   1.864  0.3025  0.1591  0.1806
19995W        W35464   4.650  14.214  14.040  0.0815 -0.0481 -0.0204
19996W        W35465   4.870   3.921   1.631  0.3269  0.0724 -0.0677
19997W        W35466  13.082   7.749  14.846 -0.2154  0.1837 -0.5081
19998W        W35467   5.654   4.086  14.380  0.2293 -0.0142 -0.3060
19999W        W35468  11.759   3.199   5.435  0.3408  0.0881  0.0678
20000W        W35469  10.976   3.472  11.843  0.1296  0.0313 -0.3230
20001W        W35470  10.919  15.145   0.914 -0.0197 -0.1410  0.0339
20002W        W35471   4.036  16.870   5.322  0.4704  0.0224  0.1091
20003W        W35472   8.458  19.003   0.311 -0.0111  0.0641  0.1612
20004W        W35473  10.401   2.702  13.766 -0.0733 -0.1615 -0.2772
20005W        W35474   3.811  17.147  15.208 -0.0555  0.2705 -0.0753
20006W        W35475  11.618  16.651   4.087  0.2052 -0.1752  0.2867
20007W        W35476   2.686  16.976   5.735  0.0048 -0.0659  0.0413
20008W        W35477   7.181   0.975   2.880 -0.1144  0.1724  0.0831
20009W        W35478   7.722   9.717  12.830 -0.2141 -0.1207 -0.0596
20010W        W35479   8.800  11.098  13.704 -0.0760  0.0584  0.2645
20011W        W35480  13.687  13.777   4.490  0.3275 -0.0119  0.1540
20012W        W35481  15.636   8.043   3.280  0.2326 -0.2385 -0.0704
20013W        W35482   9.053  11.813   1.986  0.1143  0.1129 -0.1547
20014W        W35483  16.689   4.089  13.161 -0.1979 -0.0999 -0.0795
20015W        W35484   8.942   3.461   1.254  0.0671 -0.0081  0.0475
20016W        W35485  17.358  16.588   2.535  0.1223 -0.0277 -0.0875
20017W        W35486   1.323  13.767   1.948 -0.1998  0.0802  0.2441
20018W        W35487  12.477  10.819   0.994  0.2835  0.1069 -0.1954
20019W        W35488   6.293   1.410   4.858 -0.0704  0.2392 -0.2594
20020W        W35489  14.362  10.802   5.434  0.1387  0.2786  0.1892
20021W        W35490  13.195  11.811  13.582 -0.0393  0.1888 -0.3638
20022W        W35491   2.569   6.559  14.743  0.4356  0.1654 -0.2804
20023W        W35492   8.789   1.537   3.059 -0.1021 -0.0009  0.1423
20024W        W35493  14.492  13.844  12.017  0.1625 -0.1889  0.2282
20025W        W35494   8.937   5.628   1.583  0.1328 -0.1317  0.1086
20026W        W35495   9.294  15.504  14.210  0.0049 -0.2414  0.0380
20027W        W35496  10.801  10.980   2.385 -0.1084  0.0347 -0.2952
20028W        W35497   7.726   2.022   1.922 -0.2241  0.0558  0.0652
20029W        W35498   2.364   0.494   5.419  0.1422 -0.1452 -0.1356
20030W        W35499   5.051   5.739   5.001  0.0118 -0.1964 -0.0559
20031W        W35500   4.224   0.541  10.862  0.4602 -0.1242  0.1704
20032W        W35501   6.367  12.887   3.134  0.2624  0.0668 -0.3374
20033W        W35502  14.071  13.722   3.518  0.0733  0.3063  0.1947
20034W        W35503  12.218  15.447  13.195  0.1021 -0.0275  0.2126
20035W        W35504  12.556   0.798  10.572  0.0138  0.2468  0.2120
20036W        W35505  14.135  14.446   3.077  0.1672  0.0101 -0.2083
20037W        W35506  13.805   0.896  12.253 -0.1198  0.3181 -0.1081
20038W        W35507   2.601   8.075  10.404 -0.1547 -0.1462 -0.0697
20039W        W35508  16.505  16.747   3.273  0.2466 -0.0973  0.1473
20040W        W35509   6.592  11.866   0.771  0.1029 -0.0156 -0.0962
20041W        W35510   1.544   3.863   4.625 -0.0014 -0.1635 -0.1716
20042W        W35511  12.751   1.630  12.502 -0.2311 -0.4346  0.0369
20043W        W35512   5.541   4.856   1.357 -0.0235 -0.1629  0.2107
20044W        W35513   0.120  10.788   3.294  0.1170 -0.0536  0.1448
20045W        W35514  17.153  15.238  12.814  0.3165  0.1026  0.1065
20046W        W35515  14.447  15.070  10.571  0.1650  0.2938 -0.1091
20047W        W35516  14.912   4.282  13.254  0.0265 -0.4754  0.1374
20048W        W35517  16.551  14.571  10.641 -0.2512  0.1870 -0.0687
20049W        W35518  16.110  12.512   0.110 -0.0188  0.1545 -0.1268
20050W        W35519  17.515  15.150   0.135 -0.2837  0.0376 -0.3281
20051W        W35520  13.914  10.460  15.209  0.2860 -0.0782  0.0054
20052W        W35521  11.686  17.628   1.162  0.0154  0.4543  0.0675
20053W        W35522   6.550   7.721  13.559  0.0729  0.0647  0.1933
20054W        W35523  18.808   3.270   5.021 -0.2045  0.1152  0.0811
20055W        W35524   4.273  15.475   4.743  0.0304  0.1427 -0.0209
20056W        W35525  15.274  14.875   4.140  0.2513 -0.0406  0.5521
20057W        W35526  12.602  15.482  13.559  0.3599  0.1144 -0.2480
20058W        W35527   0.062  17.791  15.143 -0.2876 -0.1078  0.0115
20059W        W35528  16.121  18.117  13.937 -0.0676 -0.0412 -0.1995
20060W        W35529   3.267  13.769  14.753  0.6115  0.0702  0.2485
20061W        W35530   3.537  12.033   3.501 -0.0701  0.0992 -0.0346
20062W        W35531  18.997  13.213  14.469 -0.4131 -0.0634 -0.0071
20063W        W35532  17.942  11.347   5.419 -0.1866 -0.2772  0.1627
20064W        W35533  12.253   1.478  12.554 -0.0358 -0.2717 -0.0736
20065W        W35534   6.228  12.069   1.640  0.1213  0.1171  0.1242
20066W        W35535  17.573  18.143   1.512  0.0199  0.0537 -0.0321
20067W        W35536   2.124   8.615   3.718 -0.1555 -0.1366  0.0686
20068W        W35537  18.176   7.962   3.176  0.1991  0.0988 -0.1998
20069W        W35538  14.382   2.204   2.644 -0.0550  0.2214  0.0816
20070W        W35539   5.520   1.351   3.396 -0.2942 -0.0351 -0.1609
20071W        W35540  17.141   0.902  13.318 -0.1139  0.0024  0.0579
20072W        W35541  18.296   1.841   1.050  0.2479 -0.3173  0.0649
20073W        W35542  13.794  17.899  11.683  0.2400  0.3666 -0.1498
20074W        W35543  12.979   0.854  14.206 -0.1809 -0.1442 -0.0319
20075W        W35544   0.654   7.770   5.562  0.0145  0.1840 -0.1235
20076W        W35545  12.326   8.199  14.481  0.3867  0.1318 -0.0578
20077W        W35546  15.177   7.374  15.338 -0.5792  0.2576 -0.0215
20078W        W35547   9.418  17.738  14.506 -0.0311  0.0038 -0.3369
20079W        W35548  15.078  14.988  11.998 -0.2047 -0.1205  0.2867
20080W        W35549   8.110   4.135  13.666 -0.2455 -0.0909  0.2781
20081W        W35550   4.621  14.962   2.446  0.2573  0.2542  0.1141
20082W        W35551   9.664  18.673  14.494  0.0851 -0.1474 -0.0915
20083W        W35552   6.840  11.901  13.041  0.2254 -0.1980  0.1390
20084W        W35553  18.552   8.859  13.872  0.3344 -0.3138  0.0318
20085W        W35554  13.605   1.421   4.490 -0.0197 -0.3008 -0.1882
20086W        W35555  18.116   6.367   0.401 -0.2646 -0.3686 -0.0068
20087W        W35556   4.684   7.424   3.447  0.0893  0.0984  0.0808
20088W        W35557  18.012  13.237   1.367  0.0163  0.2506  0.1107
20089W        W35558  15.855   9.983   2.496  0.0129  0.1503 -0.1944
20090W        W35559   3.765  17.948   5.450 -0.0647  0.1092  0.1123
20091W        W35560  16.636   9.295  13.776 -0.0987  0.1256  0.4916
20092W        W35561  12.842   1.091  12.288  0.1271  0.4142  0.0643
20093W        W35562   9.715  10.374   3.309 -0.0589 -0.2412 -0.0476
20094W        W35563   0.191   2.583   5.021  0.2500 -0.0348  0.1358
20095W        W35564   9.029  11.549  14.450  0.1174 -0.4650  0.1727
20096W        W35565  18.117   6.697   2.349  0.0219 -0.1694 -0.0548
20097W        W35566   6.926   6.469   3.458  0.0013  0.0794  0.2914
20098W        W35567   6.840  12.638  12.562 -0.2213 -0.0518  0.3315
20099W        W35568   2.476  10.598  11.444  0.0786  0.0746  0.1673
20100W        W35569   8.394   3.037  12.932  0.0847  0.2481 -0.4078
20101W        W35570   6.790  12.081   3.507 -0.1059 -0.0501  0.1238
20102W        W35571  10.332   4.095  14.327  0.1595  0.1144 -0.4453
20103W        W35572   9.236  16.008   2.318 -0.0474 -0.4275  0.1333
20104W        W35573  15.140   4.018   0.369 -0.6032  0.0693 -0.0246
20105W        W35574   2.543   9.233   0.828 -0.0111  0.0632 -0.2671
20106W        W35575  13.674   0.868   2.266 -0.0978  0.3899 -0.2536
20107W        W35576   5.430   2.865   3.972 -0.0384  0.2574 -0.2045
20108W        W35577  10.322  16.672  11.613 -0.1591  0.0350 -0.1093
20109W        W35578  12.418  18.698   2.577  0.3655 -0.0458  0.0555
20110W        W35579   6.157  18.531   0.480 -0.0242 -0.1767  0.0373
20111W        W35580   0.263  12.218   1.417 -0.1683 -0.1976 -0.0849
20112W        W35581  10.189   1.628  12.035 -0.0315  0.2836  0.0879
20113W        W35582   2.930  15.493  14.273 -0.0179 -0.3384 -0.2501
20114W        W35583  12.601   6.049  11.810 -0.0683  0.0541 -0.1305
20115W        W35584  15.524   6.278  11.983  0.0689 -0.0206  0.1219
20116W        W35585   2.796   3.315   4.116  0.3378 -0.0168  0.2349
20117W        W35586  15.069   8.416   4.283 -0.1136 -0.3192  0.2973
20118W        W35587  12.446  15.639  10.746  0.3360 -0.1148  0.1434
20119W        W35588   3.183  13.556   5.094 -0.0750  0.1473  0.0147
20120W        W35589   3.023   6.746   4.574  0.1210  0.1423 -0.0067
20121W        W35590   1.401   6.210   2.001 -0.2795  0.0354 -0.0558
20122W        W35591  15.919  14.851  13.182 -0.2483 -0.4099 -0.1872
20123W        W35592   9.776  14.463  14.857  0.0264  0.3951 -0.0576
20124W        W35593  16.699  16.956   1.311  0.2924 -0.4619 -0.1708
20125W        W35594   2.050   3.092   2.432  0.2264  0.2550 -0.2618
20126W        W35595  15.477   9.406   0.969 -0.0770  0.3654 -0.0979
20127W        W35596  18.234  14.789  11.154  0.1032 -0.2882  0.1297
20128W        W35597  14.166   5.961   1.973 -0.2663 -0.2452 -0.0769
20129W        W35598   7.706   2.495   4.083 -0.2924  0.2523 -0.1032
20130W        W35599  13.277   8.676  11.383 -0.2151  0.2750  0.2477
20131W        W35600   6.993  14.432  11.297 -0.0668  0.0701  0.3402
20132W        W35601   6.331   2.770   5.698 -0.3117  0.1076 -0.1329
20133W        W35602   5.783  19.029   3.864  0.1891  0.2248 -0.2195
20134W        W35603  14.748   3.750   4.552  0.0339 -0.4327  0.1750
20135W        W35604   8.317  18.635   4.160  0.2021  0.1254 -0.5507
20136W        W35605  14.770   8.423  13.536 -0.0319  0.1500  0.2705
20137W        W35606  10.594   5.958   2.305 -0.0504  0.0113  0.0492
20138W        W35607  17.968  12.336  14.341 -0.0503 -0.0620 -0.1043
20139W        W35608  18.300  18.505   3.226  0.1830  0.1005 -0.4861
20140W        W35609  16.219  16.779   0.984  0.0106  0.1060  0.0878
20141W        W35610   4.844  10.265  11.235 -0.0899  0.0584 -0.0746
20142W        W35611  10.111  10.018  10.433 -0.1231 -0.0415 -0.0448
20143W        W35612  10.402   0.822  12.598 -0.2151 -0.1414  0.0006
20144W        W35613  17.746   0.690  11.034 -0.0531  0.0620  0.2636
20145W        W35614   6.924  18.052  13.239 -0.1014 -0.2340 -0.1425
20146W        W35615  13.018   9.199  13.340 -0.3056 -0.1629  0.1191
20147W        W35616  15.973   5.725   9.072 -0.1174 -0.5839 -0.0681
20148W        W35617  14.610   3.839  14.599  0.0835  0.1492 -0.1938
20149W        W35618   7.760   3.907   3.792  0.0726  0.3501  0.0756
20150W        W35619  10.406  15.326   3.876 -0.0206 -0.2202  0.2542
20151W        W35620  14.975   9.593   4.002  0.1978  0.0673  0.0136
20152W        W35621  13.080  18.098   1.435  0.1100 -0.2078  0.1144
20153W        W35622   0.572  17.675  10.867  0.0086 -0.3863 -0.2116
20154W        W35623  18.315  11.263   5.780  0.0661 -0.0063 -0.1647
20155W        W35624  15.439   7.549   2.734  0.1967  0.1899 -0.1756
20156W        W35625   1.513  14.388  12.970 -0.0065 -0.2453  0.3164
20157W        W35626   9.101   9.576   4.760 -0.0407 -0.3614 -0.0872
20158W        W35627   6.625   2.722   1.513  0.0193  0.0083  0.1127
20159W        W35628   4.714  13.368   5.294 -0.0887  0.0354  0.2377
20160W        W35629  11.529   4.873  10.439  0.4395  0.0287  0.1844
20161W        W35630  11.004  12.388  10.540 -0.3365 -0.2391 -0.3221
20162W        W35631   1.385   8.337  11.863 -0.0953  0.1034 -0.2560
20163W        W35632  17.218   3.634  10.233  0.0663  0.0970  0.2970
20164W        W35633   1.058  17.830   3.428 -0.0695  0.0859  0.2912
20165W        W35634  17.978   2.781   0.646 -0.3050  0.1645 -0.2283
20166W        W35635   8.845  15.153   2.724  0.0176 -0.1227 -0.1821
20167W        W35636  17.608   0.073  11.611  0.1275  0.2564  0.0097
20168W        W35637  13.968  11.353  14.334  0.0710  0.3286 -0.0261
20169W        W35638   6.016  10.227   2.242 -0.0554 -0.0641 -0.0992
20170W        W35639  14.478  13.382   2.364 -0.3056  0.2065  0.0787
20171W        W35640   5.075  17.611   2.822  0.1272 -0.1746 -0.0183
20172W        W35641   3.413  15.332  14.316 -0.2941 -0.1982 -0.1330
20173W        W35642   5.596  13.965  14.180  0.0197  0.0371 -0.1254
20174W        W35643   5.140  18.610   1.074 -0.2412  0.4327  0.3294
20175W        W35644   0.646  11.906  12.285 -0.1397  0.1958 -0.0937
20176W        W35645  18.140  13.384   2.317 -0.1172 -0.3429  0.1943
20177W        W35646   2.528  11.138   4.654  0.0245 -0.0109  0.2357
20178W        W35647  13.982  16.617  13.442  0.0225  0.3296  0.1240
20179W        W35648  12.303   8.594   3.527  0.3369  0.0555  0.1162
20180W        W35649  12.287  12.176  12.924  0.0529 -0.3479  0.2097
20181W        W35650   4.647  11.065   2.541  0.3715 -0.0405  0.3208
20182W        W35651   0.057  14.130  12.134 -0.0296  0.4159  0.0494
20183W        W35652  16.142   1.954   4.178  0.2865 -0.1036  0.1870
20184W        W35653   5.141   8.319   0.924 -0.0242 -0.2482 -0.0198
20185W        W35654  17.395   7.066   1.074  0.1545 -0.2200 -0.0414
20186W        W35655   9.994   7.824   4.818  0.0451  0.1204 -0.0588
20187W        W35656   6.374   3.137   1.915 -0.0966 -0.0157  0.0623
20188W        W35657   2.623   9.720   2.219 -0.1748  0.2798  0.5061
20189W        W35658   3.370  13.471  11.057  0.0091 -0.0201  0.2215
20190W        W35659   7.143   9.090   3.685 -0.2985  0.0428  0.0506
20191W        W35660  12.645   9.928  12.437  0.0878 -0.0239 -0.1440
20192W        W35661  13.369   3.993   4.607 -0.3004 -0.0384  0.3712
20193W        W35662   6.648  15.308  11.795  0.1122  0.2380 -0.1857
20194W        W35663  14.480   0.168   2.809 -0.0588  0.2241  0.1555
20195W        W35664  13.283   3.164   4.188  0.3040 -0.1228  0.1408
20196W        W35665   9.078  18.713   4.743 -0.0331 -0.2216  0.0086
20197W        W35666   7.009  12.881  14.886 -0.1432 -0.3651 -0.0908
20198W        W35667   4.022   7.863   3.599  0.2193 -0.1493 -0.0243
20199W        W35668  12.096   4.313  11.721  0.1035 -0.2601  0.2936
20200W        W35669  11.780  15.186   3.868  0.3288 -0.2178 -0.1636
20201W        W35670  11.048   5.699  12.663  0.3180  0.0542 -0.2564
20202W        W35671   9.104   3.090  12.641 -0.1470  0.2873 -0.3068
20203W        W35672   9.502  12.032  12.971 -0.2964 -0.1171  0.0621
20204W        W35673  10.047   0.033   3.064 -0.3488  0.3555  0.2135
20205W        W35674   6.632  16.912   2.322 -0.0089  0.0242 -0.4354
20206W        W35675  15.328  15.914   3.047  0.1077 -0.0144  0.1703
20207W        W35676   7.316   8.287  14.925 -0.0495  0.1315  0.0235
20208W        W35677   8.616  13.822   1.508 -0.1823  0.0748 -0.2193
20209W        W35678   7.553  10.518  15.293  0.0193 -0.0947  0.0965
20210W        W35679  10.503  14.555  12.263 -0.0549 -0.1700  0.2043
20211W        W35680   3.173  18.712   4.288  0.1206  0.0724  0.1130
20212W        W35681  10.159   3.958  13.384 -0.2809  0.2652  0.0139
20213W        W35682  14.605   5.588   5.121  0.1067 -0.1314  0.1316
20214W        W35683   9.851  12.851   3.824 -0.0157 -0.1224  0.0335
20215W        W35684   7.897  18.546   3.861 -0.1409 -0.0234 -0.2650
20216W        W35685   8.780   5.172  14.331  0.0293 -0.0062 -0.3768
20217W        W35686   5.078  10.980  10.660 -0.0812 -0.0369  0.1239
20218W        W35687   8.980   3.245   1.705 -0.0458 -0.2433  0.1219
20219W        W35688   9.663   4.621  12.158  0.2799  0.1899  0.3121
20220W        W35689  15.787   0.866   4.425 -0.1112 -0.0580 -0.0730
20221W        W35690   4.109   8.125  13.436 -0.0577 -0.2692 -0.1152
20222W        W35691   6.696  10.639   0.196  0.2305 -0.0103  0.1640
20223W        W35692   2.226   2.933  14.223 -0.5000 -0.3223 -0.1195
20224W        W35693   5.202   5.474  12.651  0.0364 -0.0756  0.2199
20225W        W35694   9.577   6.958   0.499 -0.1197  0.1260  0.0472
20226W        W35695  15.761   6.067   3.613 -0.0380  0.1270 -0.6725
20227W        W35696   7.192   1.164   1.117 -0.0183  0.0036 -0.0548
20228W        W35697  14.499   8.568  14.392 -0.0810 -0.1598  0.0698
20229W        W35698   7.794   9.641   1.177 -0.2045  0.0217  0.0303
20230W        W35699  18.709   2.584  13.567 -0.0355 -0.0906 -0.0260
20231W        W35700  17.565   0.319  14.847  0.1969  0.1964 -0.2204
20232W        W35701   6.039   2.423   5.946  0.2003 -0.0037 -0.1129
20233W        W35702  17.095  10.399   3.586  0.0545  0.0201  0.0053
20234W        W35703   8.959  13.697  11.567  0.1681  0.3281 -0.3413
20235W        W35704   3.832  14.292   4.273 -0.2086 -0.1395  0.0462
20236W        W35705  14.958   0.235   1.413  0.2597 -0.0720 -0.2297
20237W        W35706   4.824  10.797  11.102  0.1725  0.3406  0.4261
20238W        W35707   4.544  15.985  14.062 -0.3372  0.0445 -0.2788
20239W        W35708   0.252  16.030   0.661 -0.0849  0.1301  0.1040
20240W        W35709   8.696   6.488   1.326 -0.0188 -0.0997  0.0961
20241W        W35710   2.072  14.437   9.492 -0.0032 -0.1180 -0.1583
20242W        W35711  16.851  17.067  12.446 -0.2651  0.0841  0.0258
20243W        W35712  17.316   3.258   3.334 -0.0556 -0.3447 -0.2347
20244W        W35713   4.973   9.222  10.097  0.3053  0.2725  0.1189
20245W        W35714  18.413   3.731  12.797 -0.3551  0.2589  0.2681
20246W        W35715   9.366   5.448  15.235  0.0460 -0.0167  0.0919
20247W        W35716  18.914   9.211  13.748  0.0168  0.0987 -0.1059
20248W        W35717   5.075   1.469   6.064  0.2731  0.3024  0.0533
20249W        W35718  15.747  10.630   4.593 -0.0315 -0.1936  0.0604
20250W        W35719   6.627  16.168   4.216 -0.2703  0.0240 -0.0507
20251W        W35720  13.270  18.625   3.189 -0.2918 -0.0592  0.2312
20252W        W35721   4.529   5.753  14.092  0.1890  0.0198  0.0742
20253W        W35722   3.660  13.375  13.923  0.1787  0.3716 -0.2430
20254W        W35723  12.194  10.206   4.872 -0.2814 -0.2979 -0.4715
20255W        W35724   7.971  14.732   2.586  0.2170  0.3422 -0.0339
20256W        W35725   1.945  10.620  12.103 -0.0789  0.3015 -0.0751
20257W        W35726  13.105  18.888  11.252  0.2651  0.1025 -0.3084
20258W        W35727  18.328  13.530  13.834  0.3238  0.0300 -0.2190
20259W        W35728  10.879  11.179  14.640 -0.0255 -0.0485 -0.1391
20260W        W35729  15.940  12.525  13.629  0.2688  0.2772 -0.3352
20261W        W35730   6.295   2.331   5.411  0.4469  0.1476  0.1636
20262W        W35731   7.074   2.324   5.961  0.1781  0.2509  0.0513
20263W        W35732   9.223  16.068   1.635 -0.0078  0.2397 -0.0326
20264W        W35733   8.982  12.699  10.673  0.1177 -0.1767  0.1600
20265W        W35734  12.004   6.940  13.870  0.1733  0.0206  0.1387
20266W        W35735  10.641   6.202   2.767  0.1973 -0.0081  0.3688
20267W        W35736  14.123   3.554   5.181  0.1002 -0.2053 -0.3061
20268W        W35737   2.306  16.051  10.887 -0.0308  0.1109  0.0021
20269W        W35738   6.344  14.189   4.695  0.1477  0.0074 -0.2157
20270W        W35739   0.752  15.588  10.265  0.1560 -0.0537 -0.2712
20271W        W35740  15.120  15.679   5.018  0.4208 -0.1661 -0.1606
20272W        W35741  12.862  15.430   3.685 -0.1198 -0.0233 -0.0321
20273W        W35742   5.947   9.809  14.994 -0.0940 -0.1688  0.1094
20274W        W35743   8.721   0.536   4.857 -0.1946 -0.3635 -0.0055
20275W        W35744   1.668   8.259  10.761 -0.1325 -0.1069  0.3361
20276W        W35745   6.961   9.107   1.097  0.0209  0.0778  0.0481
20277W        W35746  11.780  12.123  12.749  0.3440  0.6045  0.3294
20278W        W35747  16.524  13.653   1.938 -0.1912 -0.0762  0.2681
20279W        W35748  16.132  11.299  15.055  0.1022 -0.3869 -0.1794
20280W        W35749   0.711  16.936   0.839  0.0049 -0.1696  0.4430
20281W        W35750   5.961  11.999  10.076  0.1094  0.1144  0.0289
20282W        W35751  14.891   9.771   0.886  0.0909  0.3050  0.0943
20283W        W35752   6.356   8.032  14.097  0.4143  0.2115  0.0055
20284W        W35753  13.771   6.981  11.713 -0.0775  0.3700 -0.0823
20285W        W35754  14.844  18.274   5.152  0.0855 -0.1267  0.4163
20286W        W35755  12.824   6.888  11.752  0.0535 -0.3331 -0.0650
20287W        W35756  11.189   9.312  13.052  0.0613 -0.1205  0.3822
20288W        W35757   1.748   6.806  14.349  0.3286  0.0010  0.2584
20289W        W35758  17.231  11.356  11.003  0.0675 -0.1355 -0.0790
20290W        W35759  11.283  14.330   3.957  0.2143  0.1263  0.0177
20291W        W35760  18.825  14.552  12.418  0.1041 -0.0751  0.2188
20292W        W35761   1.676   8.191  14.024 -0.0053 -0.0713 -0.1430
20293W        W35762   3.826   4.371  13.070  0.3609 -0.4468  0.0767
20294W        W35763   4.298   9.819  14.264  0.0435 -0.2031  0.2562
20295W        W35764   3.945   4.726   2.741  0.1297 -0.0568 -0.1589
20296W        W35765   6.287   1.074   5.507 -0.0603  0.1130 -0.2581
20297W        W35766  15.781   5.441  13.572 -0.0218  0.2009  0.0403
20298W        W35767   7.630  12.823   0.945  0.0202 -0.0124 -0.0349
20299W        W35768  17.899   0.400   4.938  0.0083 -0.0455 -0.2142
20300W        W35769   0.856  15.851  14.163  0.4078  0.1147  0.2604
20301W        W35770   2.391   8.786  14.199 -0.0461  0.1935  0.1605
20302W        W35771  10.317   5.661  10.692 -0.0417  0.4165 -0.0385
20303W        W35772  11.931   3.603  15.138 -0.3143  0.2233 -0.1656
20304W        W35773   0.753  18.260  12.936 -0.4182 -0.0493 -0.3195
20305W        W35774  11.509   5.683   4.774 -0.4118  0.0787 -0.0659
20306W        W35775   5.660   1.113   4.171  0.0008  0.1962 -0.0978
20307W        W35776  10.198  10.555  10.352 -0.1417  0.0013  0.2249
20308W        W35777  11.427   3.014   2.956 -0.0647 -0.0941 -0.1758
20309W        W35778   5.272   1.556  12.280 -0.3257 -0.0996  0.1527
20310W        W35779  16.084  10.423   2.820  0.0794 -0.3202  0.1691
20311W        W35780   4.543  13.103  13.340 -0.3769 -0.0822 -0.0438
20312W        W35781   1.781  17.671   4.226  0.0391  0.1541 -0.1134
20313W        W35782  18.634  12.346  13.049 -0.2894  0.0377 -0.3825
20314W        W35783  11.068  15.936   3.703  0.0965 -0.2787  0.1779
20315W        W35784   3.022  10.363  14.601  0.0407  0.0088 -0.0914
20316W        W35785  14.641   0.245   0.102 -0.2083 -0.0294  0.1400
20317W        W35786   4.299   3.160   3.062  0.1488 -0.0834  0.3338
20318W        W35787   5.898   3.222   1.806 -0.1846  0.0071 -0.0848
20319W        W35788  15.031   6.260   4.565  0.2258  0.1023 -0.2103
20320W        W35789  10.293   4.748  11.374 -0.1466 -0.0564 -0.0184
20321W        W35790   3.613   5.469  10.976  0.0082 -0.2613 -0.0003
20322W        W35791   8.405   9.604  13.644 -0.3409 -0.2360 -0.0624
20323W        W35792   0.575  13.709  13.219  0.1822 -0.1095  0.1170
20324W        W35793   7.467  12.863  10.972 -0.1949 -0.2023  0.2710
20325W        W35794   7.236   1.167   1.907 -0.0478  0.1135  0.4623
20326W        W35795  17.560  18.968  14.576 -0.0531  0.3593 -0.3018
20327W        W35796   3.158  15.947  14.193  0.0111 -0.0806 -0.0384
20328W        W35797   8.243   0.082   1.902  0.0535 -0.0975  0.4422
20329W        W35798  17.647   1.658   9.055  0.0060 -0.1883  0.2791
20330W        W35799   5.333   2.566  13.107  0.2568 -0.2065 -0.2058
20331W        W35800   5.497  11.820   4.848 -0.0416  0.1182 -0.0817
20332W        W35801  10.696  12.268  10.970 -0.4262 -0.1932  0.1717
20333W        W35802   9.296   4.740  10.458 -0.0572 -0.1861 -0.3371
20334W        W35803  12.803  15.737   1.967 -0.3662  0.0203  0.0306
20335W        W35804   2.531  17.362   1.972 -0.1872 -0.0752  0.2211
20336W        W35805   5.463   7.023   4.194  0.1685  0.1346 -0.4674
20337W        W35806  16.259  10.116  13.046  0.0453 -0.3044 -0.1568
20338W        W35807  14.732  13.860   2.586  0.0276 -0.1539  0.0162
20339W        W35808  16.686  12.410  11.303  0.1415  0.0908 -0.1399
20340W        W35809   9.445  11.837  10.512 -0.2642 -0.0268 -0.0975
20341W        W35810  18.097   7.064   3.120 -0.0564 -0.2534  0.0711
20342W        W35811   6.127  14.950  14.513  0.0138  0.0358 -0.0764
20343W        W35812   8.791   1.494   4.360  0.0066 -0.3044  0.0304
20344W        W35813   4.990   1.058   1.416 -0.1431 -0.3048 -0.1055
20345W        W35814  11.076   2.691   1.752  0.0173 -0.0205 -0.2494
20346W        W35815  11.404  11.632   1.636 -0.0783  0.1848  0.2069
20347W        W35816  15.828   5.758  14.557  0.3428  0.1952  0.1982
20348W        W35817  10.433   0.072   0.208  0.0434  0.0714  0.0528
20349W        W35818   2.137  13.828   2.156  0.0915 -0.1583 -0.0316
20350W        W35819  12.218  18.121   3.352 -0.0324 -0.1129 -0.1897
20351W        W35820  11.842  17.430  13.875  0.0798 -0.0168  0.1902
20352W        W35821  14.335   5.252  13.832  0.1159 -0.0618 -0.1158
20353W        W35822  13.775  11.029  10.191 -0.1372  0.1958 -0.0007
20354W        W35823  15.430   0.374   2.672  0.1043 -0.3648 -0.0901
20355W        W35824   2.503   6.548   5.499 -0.0136 -0.3305 -0.1477
20356W        W35825   3.164   6.468   1.388  0.3123  0.0626  0.0213
20357W        W35826  11.982  11.276  13.275  0.1872  0.0694  0.2979
20358W        W35827  11.764   8.069   4.888 -0.1301 -0.3380 -0.3108
20359W        W35828   5.847   3.921  10.831 -0.2264  0.1328 -0.1414
20360W        W35829   5.671  17.068  14.565  0.2473 -0.1146  0.5085
20361W        W35830  11.332   9.492  12.604 -0.1388 -0.0643  0.0421
20362W        W35831   6.411  10.300  13.296 -0.2483  0.0124  0.3129
20363W        W35832   9.056  14.085  13.319 -0.0289  0.4908  0.2113
20364W        W35833  11.910  13.329  14.558 -0.0430  0.0250  0.1912
20365W        W35834   8.370   5.781  11.526  0.1534 -0.0473 -0.0211
20366W        W35835   5.310  10.994  12.650  0.0032  0.1856 -0.2757
20367W        W35836  15.280   0.623  15.223  0.0616  0.0423  0.1021
20368W        W35837   5.183   3.871   2.319  0.1652  0.3728 -0.1653
20369W        W35838  11.554  15.044   0.429 -0.1488 -0.1085 -0.2000
20370W        W35839   5.538   2.257  11.199  0.2093 -0.2449  0.0770
20371W        W35840  12.210   5.610   0.737  0.1278  0.2971  0.0323
20372W        W35841   7.590  17.930  12.533  0.1565  0.0018  0.0196
20373W        W35842   3.165   9.007  12.428  0.1205  0.2172 -0.0711
20374W        W35843  14.985   0.314  13.016  0.0460 -0.4708 -0.1020
20375W        W35844   9.851   8.132   2.154 -0.0432  0.1192  0.1744
20376W        W35845   5.894  17.618  11.501  0.0417 -0.0543  0.2007
20377W        W35846  13.112   3.274   3.696 -0.2616 -0.0442 -0.4002
20378W        W35847  14.861   7.945  14.545  0.0411 -0.2318  0.3100
20379W        W35848  16.454   6.547   4.034  0.0198  0.1090 -0.0924
20380W        W35849  12.150   5.860  11.976  0.0597  0.0417 -0.0148
20381W        W35850  10.568  16.470   5.044  0.3131 -0.0581 -0.1502
20382W        W35851   3.793   5.984   3.664 -0.0131 -0.2379 -0.0519
20383W        W35852   4.845  15.583   5.535  0.0933  0.3473 -0.0531
20384W        W35853  11.342   5.488  11.839  0.0972 -0.0203 -0.0976
20385W        W35854  15.989  14.494  15.041  0.0901 -0.2742 -0.1220
20386W        W35855   8.272  11.513   4.754  0.0699  0.0358 -0.2516
20387W        W35856   4.845   0.022   2.276 -0.0552 -0.3888 -0.0034
20388W        W35857  17.655  17.107   1.154  0.2850  0.0487  0.1259
20389W        W35858  16.948  14.565  13.480  0.0974 -0.2585  0.0213
20390W        W35859   9.262  10.899   0.044 -0.1182 -0.0557  0.1586
20391W        W35860  12.431   0.837   3.342  0.0016 -0.2660  0.0131
20392W        W35861   3.336   2.884   2.936  0.1724 -0.1329 -0.0093
20393W        W35862  15.930   6.973   1.525 -0.1778 -0.2019 -0.2237
20394W        W35863   1.576   3.816  14.496 -0.2357 -0.0105 -0.0865
20395W        W35864  13.329  13.655  11.022  0.2325  0.2808 -0.3350
20396W        W35865  12.274   7.479   2.709  0.1209 -0.1798 -0.0181
20397W        W35866  16.619  12.900  10.052  0.0182 -0.0653 -0.2401
20398W        W35867  13.879   2.037   3.802 -0.0259 -0.1505  0.0856
20399W        W35868   7.252  15.306  13.267 -0.1506 -0.0446  0.1218
20400W        W35869  11.754   7.460   1.430 -0.3016 -0.1480  0.1325
20401W        W35870  13.949   0.603  11.412 -0.2140  0.3524  0.3242
20402W        W35871   7.693  14.401   2.347 -0.3276 -0.1368  0.0782
20403W        W35872   8.441   2.779   5.545  0.0474  0.1261  0.1388
20404W        W35873   8.194  16.709  12.550  0.0711 -0.1646 -0.2164
20405W        W35874   0.723  10.856   4.695 -0.0794 -0.0632  0.1672
20406W        W35875   4.933  13.496  11.103  0.1492  0.1097  0.1091
20407W        W35876   6.249   7.495  11.088  0.1916  0.0183  0.1099
20408W        W35877  15.336   9.155  12.443  0.0256 -0.2171  0.1029
20409W        W35878   4.754   3.069   3.902 -0.1430  0.0678 -0.0137
20410W        W35879   4.195  10.268   1.652  0.1848 -0.1002 -0.1610
20411W        W35880   8.190   9.774  10.532  0.3323  0.2902 -0.1560
20412W        W35881  11.682   3.434  11.440  0.0438 -0.0468 -0.4932
20413W        W35882  12.756   3.638  13.059 -0.2998 -0.1597  0.0297
20414W        W35883   4.116  14.640  10.995 -0.2408 -0.0258 -0.1654
20415W        W35884  16.366   5.804  14.399 -0.2542 -0.2103  0.2377
20416W        W35885  13.435  17.683  13.617  0.0968 -0.4656  0.2749
20417W        W35886   6.674   6.075  13.536  0.1527  0.1439  0.2087
20418W        W35887  17.115   2.386  11.588 -0.0920  0.0937 -0.0337
20419W        W35888   5.436   7.048  11.215  0.1459  0.1709 -0.1615
20420W        W35889   3.164  16.444   4.112 -0.2681  0.0488 -0.1686
20421W        W35890   2.834   4.457  14.440 -0.2481  0.2063 -0.0510
20422W        W35891  12.299   1.641   2.372 -0.2299 -0.1168  0.1672
20423W        W35892   1.771   8.981  11.800 -0.0374 -0.1938 -0.0147
20424W        W35893  12.043   8.069   3.450 -0.3959  0.1577 -0.0358
20425W        W35894   8.175   1.428  14.741  0.3680 -0.4676 -0.0273
20426W        W35895   1.370  18.824   1.818  0.1970  0.0376  0.2275
20427W        W35896  17.899   4.056  12.393 -0.1644  0.1063 -0.0182
20428W        W35897  13.971  15.340  12.714  0.0582 -0.1980  0.1454
20429W        W35898  18.884  13.849   4.822  0.1303  0.0736  0.1894
20430W        W35899   3.871   6.730   2.849 -0.3552 -0.4883 -0.0527
20431W        W35900   5.733  16.368  15.172 -0.0527  0.4902 -0.1387
20432W        W35901  16.399  18.928  15.313 -0.4647 -0.4390 -0.0870
20433W        W35902   4.597  18.364   4.127  0.3057  0.3806  0.0157
20434W        W35903   5.427   4.356   3.803 -0.1268 -0.0273 -0.1099
20435W        W35904   5.731  10.751   0.021  0.3768  0.2816 -0.1364
20436W        W35905  12.692  13.840   1.723  0.1932 -0.0388  0.2639
20437W        W35906  13.930  14.472  13.985 -0.1195 -0.2504 -0.0785
20438W        W35907   9.095  11.326  15.154 -0.1096 -0.5364 -0.1588
20439W        W35908  14.079  17.926   3.716 -0.2799 -0.1248 -0.1342
20440W        W35909   2.452   1.994  11.031  0.0005  0.2307  0.2734
20441W        W35910  13.000   6.642   3.466 -0.0718  0.0117  0.0784
20442W        W35911   4.451  13.720   0.143  0.2289 -0.2305 -0.1307
20443W        W35912   1.885  11.018  10.911  0.0689  0.0163 -0.2220
20444W        W35913  10.972   4.324  12.524 -0.2656 -0.0761 -0.1618
20445W        W35914   7.162   4.951   1.455  0.2012 -0.0325 -0.0980
20446W        W35915   2.728  14.112  10.855 -0.0277 -0.0892 -0.0225
20447W        W35916   1.346   9.757  11.760  0.0789 -0.2685  0.1611
20448W        W35917  10.427   8.728   2.624  0.0206 -0.2280  0.4044
20449W        W35918   0.354   8.536   4.458  0.1457 -0.1534  0.0513
20450W        W35919  17.872   9.404  12.343  0.1508 -0.2438 -0.1077
20451W        W35920   7.330   4.824   4.611  0.1990  0.1507 -0.0964
20452W        W35921  16.231  15.734   5.291 -0.2479 -0.1664  0.1312
20453W        W35922  15.706   5.023   5.066 -0.0892 -0.2331  0.0566
20454W        W35923   1.747  10.015  14.662 -0.1481 -0.0095  0.1163
20455W        W35924  16.595   5.108   2.734  0.0290 -0.0794 -0.4840
20456W        W35925  18.660   0.499  12.523 -0.0625 -0.0367 -0.2515
20457W        W35926  17.135   3.569   2.727  0.1976  0.4147 -0.0228
20458W        W35927   8.980   0.028   4.342  0.0689 -0.2215  0.3383
20459W        W35928   0.128  18.946  14.031  0.1054 -0.0118  0.0879
20460W        W35929   3.442   3.351   2.731  0.1594 -0.3035 -0.0448
20461W        W35930  11.765  16.655   1.352 -0.1109 -0.0327 -0.0413
20462W        W35931   5.013   7.891   2.009  0.0493 -0.1170 -0.1263
20463W        W35932   2.488   6.690   4.354 -0.0706  0.2623 -0.1154
20464W        W35933  15.863  19.015   0.556 -0.0616 -0.1338  0.0933
20465W        W35934  15.316  13.187  15.214 -0.2343  0.0945 -0.1401
20466W        W35935   5.928   0.711   0.973 -0.1637 -0.1200 -0.0562
20467W        W35936   0.817  14.567  11.545 -0.1531 -0.0240 -0.1318
20468W        W35937  11.918  15.580   2.926 -0.2896  0.1807 -0.1553
20469W        W35938   6.685   5.723   0.556  0.3123 -0.0510 -0.1106
20470W        W35939  14.076   6.295   5.368  0.0760  0.2458  0.0523
20471W        W35940   3.843  14.079  11.108  0.1900  0.0422  0.0453
20472W        W35941  14.176  12.421   3.892 -0.0035  0.0851  0.1653
20473W        W35942  10.538  12.558   0.855 -0.1491 -0.0347  0.1734
20474W        W35943  17.195  10.253   1.452 -0.2087  0.0605 -0.2546
20475W        W35944  16.141  12.112  11.752 -0.3243 -0.2739 -0.2083
20476W        W35945  14.611   9.095   4.335  0.0144  0.0976 -0.3113
20477W        W35946   7.836  14.626  11.319 -0.0676  0.0289  0.1435
20478W        W35947   3.784  16.220   1.711  0.2222 -0.0701  0.2019
20479W        W35948   8.826   2.393  13.855 -0.1201 -0.2860  0.1584
20480W        W35949   2.747  14.144  11.918  0.0981 -0.2573  0.1450
20481W        W35950   2.002  12.694   1.777 -0.0366  0.0888  0.4710
20482W        W35951  14.995   5.958   1.770  0.2564 -0.1538 -0.1825
20483W        W35952   9.911  16.750   2.664 -0.0508  0.0356 -0.1525
20484W        W35953   6.659   8.514  14.067 -0.0637  0.0232 -0.0018
20485W        W35954  10.662  14.324   2.158 -0.1166  0.2826  0.0220
20486W        W35955   8.985   9.438   9.477 -0.0795 -0.0178  0.0763
20487W        W35956   6.474   9.039  13.680 -0.2860  0.0027  0.0468
20488W        W35957  17.358   7.803  14.049 -0.0269  0.4110  0.0475
20489W        W35958   5.993  17.514   1.525  0.3192  0.0800 -0.1064
20490W        W35959  10.389  11.929   2.428  0.0827  0.4519 -0.0153
20491W        W35960   0.322  15.992  15.000 -0.2025  0.1930  0.0466
20492W        W35961  14.213  12.430   4.371 -0.1183  0.3172  0.0099
20493W        W35962   2.993   1.520  11.078 -0.2037 -0.4162  0.0330
20494W        W35963  17.035   2.290  10.399  0.2829  0.2858 -0.0483
20495W        W35964   7.469   3.512  12.022 -0.1073 -0.2989 -0.2079
20496W        W35965   4.656   3.530   2.992 -0.0896  0.2288 -0.0248
20497W        W35966   2.289  15.083   4.945 -0.0400  0.0619 -0.1851
20498W        W35967  11.777   0.681   0.555  0.0695 -0.0821  0.1370
20499W        W35968   2.456  18.349   4.944 -0.2514  0.0252  0.1747
20500W        W35969  15.967  15.327  12.993 -0.0488  0.2848  0.3908
20501W        W35970  16.217  14.069  11.599 -0.3271 -0.1680  0.1542
20502W        W35971   3.518   4.115  14.483 -0.0227  0.0940  0.0491
20503W        W35972  11.496   7.972   4.447  0.0273  0.0118  0.0645
20504W        W35973   4.373  11.900  11.257  0.0031 -0.3404 -0.1944
20505W        W35974  17.585  12.190   2.349 -0.0980  0.2398  0.0551
20506W        W35975   9.959  18.282   4.933 -0.2184 -0.1136 -0.3085
20507W        W35976  17.502  16.342   5.442 -0.0442 -0.0713  0.0479
20508W        W35977  15.563   7.116   1.231  0.2277 -0.1788  0.0222
20509W        W35978   6.310  16.959   3.694 -0.5971  0.0480  0.0273
20510W        W35979  11.033  10.030  13.791 -0.0759 -0.3329 -0.0489
20511W        W35980   4.995   9.833   5.033 -0.0571 -0.0611 -0.1772
20512W        W35981  14.577  15.441   4.526 -0.0053 -0.1994  0.1766
20513W        W35982  17.794   8.256  15.359 -0.0769  0.1758  0.2036
20514W        W35983  13.849   9.409  13.474 -0.0967 -0.1558  0.0320
20515W        W35984  18.291   4.822   3.364  0.3252  0.0523 -0.1639
20516W        W35985   1.111  15.763  15.283 -0.1841 -0.0122 -0.0817
20517W        W35986  18.831   0.697   2.360  0.0974 -0.2508  0.2458
20518W        W35987   4.690   9.499  14.610 -0.0931 -0.0182  0.0897
20519W        W35988  10.119  11.425   1.337  0.0136  0.1340 -0.2441
20520W        W35989  13.225  16.823   0.883  0.0802  0.5586  0.3530
20521W        W35990  13.506  17.092   5.145  0.1921 -0.0331  0.1509
20522W        W35991  10.082   7.692  11.656 -0.1650  0.0506  0.1811
20523W        W35992  16.311   8.085  13.904  0.0828 -0.2479 -0.0561
20524W        W35993  16.350   2.980   5.039 -0.1630 -0.1832 -0.0159
20525W        W35994  13.615   1.871  10.984 -0.1147  0.1376  0.0384
20526W        W35995   9.573   6.107   1.056 -0.2447 -0.1519  0.0430
20527W        W35996   5.370  17.546   5.477 -0.1713  0.1190  0.0621
20528W        W35997   0.853   6.577   2.527  0.2555  0.1408  0.2398
20529W        W35998   2.745  17.435   4.922 -0.0746 -0.0667  0.3239
20530W        W35999  13.138  11.774   1.363  0.2033 -0.1238 -0.0923
20531W        W36000   6.131   2.690  14.521  0.2278  0.0449  0.3864
20532W        W36001   7.086   6.899   1.821 -0.1257 -0.0752  0.1017
20533W        W36002   3.038   5.281   4.092 -0.2145 -0.1034 -0.0482
20534W        W36003  13.647  13.079  13.233 -0.2260 -0.2160 -0.0615
20535W        W36004  14.669   2.305   2.119  0.0449 -0.0076 -0.0834
20536W        W36005   6.224   6.733  11.749 -0.0076 -0.1918  0.4655
20537W        W36006  18.783   2.005  10.538  0.4099 -0.1512 -0.0197
20538W        W36007   3.360  12.909   3.286 -0.1985  0.3008 -0.1086
20539W        W36008   6.767  16.880   5.340  0.3402 -0.0079 -0.1142
20540W        W36009   5.374   7.935  14.973 -0.1710  0.0122 -0.3333
20541W        W36010   9.841   8.666   5.445  0.1428 -0.2277 -0.3182
20542W        W36011   5.497  10.209   3.124 -0.1817 -0.2190  0.1275
20543W        W36012   8.628  15.122   0.076  0.3544  0.0205  0.4062
20544W        W36013  14.922   4.655  12.832 -0.1905  0.0830 -0.0171
20545W        W36014   7.981   1.430  12.992  0.1888 -0.2126 -0.0306
20546W        W36015   3.875  14.472   5.528 -0.4164  0.2500  0.4905
20547W        W36016   5.534  17.684  13.821 -0.0730 -0.1017  0.3396
20548W        W36017  13.528   6.222   5.588  0.1409  0.0926  0.0662
20549W        W36018  13.368  10.446  12.691 -0.0995  0.0686 -0.2583
20550W        W36019   6.573   3.821  14.152 -0.0406  0.1690 -0.1290
20551W        W36020  13.843  12.644   4.680 -0.1356 -0.0566  0.3808
20552W        W36021  11.972  13.375   1.077 -0.2484 -0.0880 -0.1026
20553W        W36022   3.086  18.152   4.243  0.1687 -0.0522 -0.1819
20554W        W36023   4.801  15.173  12.055 -0.1394 -0.0514 -0.1270
20555W        W36024  14.978  11.746  10.187 -0.2369  0.3290  0.1833
20556W        W36025  18.570  15.187  13.460 -0.2311 -0.3457 -0.1837
20557W        W36026  14.555   0.681   4.568 -0.2051 -0.0645  0.0856
20558W        W36027  13.529   0.505   4.804 -0.2235  0.0561 -0.1545
20559W        W36028  11.980   7.047  13.368  0.0468 -0.1362 -0.0417
20560W        W36029   5.101  12.194   0.551  0.3366  0.1674 -0.1400
20561W        W36030  18.177   9.947   4.083  0.0267 -0.1825 -0.0104
20562W        W36031  17.810  14.785   4.106  0.1047 -0.0621 -0.0138
20563W        W36032  16.650  10.169   1.301 -0.0815 -0.1578  0.0840
20564W        W36033   9.219   1.068  12.148  0.1521 -0.4691 -0.1978
20565W        W36034   5.858   1.029   4.738 -0.1063  0.5199 -0.0025
20566W        W36035  10.818   9.533  15.316  0.3688  0.0782 -0.2762
20567W        W36036  10.882  17.256   2.875  0.0767 -0.0945  0.4877
20568W        W36037   3.574  11.312   1.825  0.0940  0.2920  0.0753
20569W        W36038  15.295   1.941  14.146  0.2252  0.0430  0.1349
20570W        W36039  13.134  15.744   4.037 -0.2143 -0.0498 -0.2689
20571W        W36040  15.818   9.657  11.435 -0.0094  0.3103  0.0383
20572W        W36041  11.464   7.689  10.544 -0.0588  0.2201  0.0815
20573W        W36042  15.397  12.099   1.710 -0.1412 -0.1493  0.0017
20574W        W36043  11.099  18.718  14.254  0.0355  0.0292 -0.3019
20575W        W36044  13.009  10.033   0.136  0.0453 -0.2697  0.0426
20576W        W36045  15.665   2.100  13.209  0.0069 -0.1694  0.1773
20577W        W36046  11.047   3.507  14.872 -0.0499 -0.1083  0.0862
20578W        W36047   4.942  15.235   0.813 -0.4534  0.2505  0.2191
20579W        W36048   2.070  10.959  12.537  0.1997 -0.0312  0.3356
20580W        W36049  11.868   4.576   0.674 -0.0422  0.3426  0.2120
20581W        W36050  13.589  10.267  12.231  0.0612  0.0601 -0.0793
20582W        W36051   4.710  11.319  10.607 -0.2215  0.0548  0.2393
20583W        W36052   8.761   6.899  13.406  0.0632  0.1326 -0.3403
20584W        W36053   6.877   9.986   0.658 -0.0176 -0.1161 -0.1678
20585W        W36054  17.211  15.420  11.890  0.2586 -0.4210 -0.0478
20586W        W36055  14.398   9.414  10.816 -0.0976 -0.3299 -0.2542
20587W        W36056  13.150   4.914  10.621  0.0304  0.0922 -0.2830
20588W        W36057  10.799   1.964   0.173 -0.1070  0.1875  0.1093
20589W        W36058   1.991   1.152   0.766 -0.2667  0.1111 -0.2239
20590W        W36059  16.420   3.982  14.140  0.0066  0.1664  0.5051
20591W        W36060  10.813   6.522   1.719 -0.0522  0.0552  0.2741
20592W        W36061   0.407   4.398   3.537  0.0884 -0.0141  0.2363
20593W        W36062  12.981   3.146  11.750  0.1552 -0.0603  0.1064
20594W        W36063   5.283  13.955   4.409 -0.0163 -0.2376 -0.0564
20595W        W36064   9.432   0.271  11.708 -0.0697 -0.1761  0.1850
20596W        W36065  14.330   9.494   0.086 -0.1764  0.0944  0.1576
20597W        W36066   7.361   2.641   4.882 -0.2651 -0.3253  0.0525
20598W        W36067  12.041   2.452   3.694 -0.1090 -0.0177  0.2997
20599W        W36068  13.255   1.444   0.154 -0.0601  0.0288 -0.0829
20600W        W36069   0.181   1.746   5.261 -0.2771  0.0508  0.2637
20601W        W36070   7.545  10.548  12.104  0.4136 -0.5058  0.1269
20602W        W36071  18.400  13.992   0.805  0.0998  0.2065 -0.0313
20603W        W36072   3.316   7.296  15.285  0.0086  0.1949 -0.1674
20604W        W36073  14.200  15.223   3.543 -0.1835 -0.1956  0.1391
20605W        W36074  11.283  16.173   4.196  0.0086 -0.1725  0.1895
20606W        W36075  11.761   1.955  13.493 -0.0116 -0.1222 -0.1428
20607W        W36076  13.607   5.488   0.283  0.0561 -0.0492  0.1627
20608W        W36077   2.899   6.895  14.605  0.1703  0.0634 -0.2565
20609W        W36078   4.861  14.838   3.013  0.0103  0.0105 -0.0396
20610W        W36079   6.816   4.930   4.988 -0.2913 -0.1482  0.1065
20611W        W36080   2.073   0.441  15.152  0.1455 -0.2917 -0.2328
20612W        W36081  13.555   3.391   0.441 -0.2846  0.1800  0.2256
20613W        W36082   7.230   0.894   3.486 -0.1181  0.1982 -0.2674
20614W        W36083   0.958  18.276   0.218  0.0155 -0.1344  0.1007
20615W        W36084  12.907  17.266   4.420 -0.1044 -0.1777  0.0961
20616W        W36085   9.135   4.835  14.533  0.0653  0.1063  0.1973
20617W        W36086  15.210  10.842  11.406  0.0645 -0.2997 -0.1597
20618W        W36087   9.085   8.546   0.962 -0.2595 -0.1725 -0.0054
20619W        W36088   5.374  13.883  13.700 -0.0782 -0.3918  0.0241
20620W        W36089  12.965   7.912  15.290  0.0441 -0.1477  0.2752
20621W        W36090  17.654   4.847  13.160 -0.0599  0.2857  0.0240
20622W        W36091  11.199  16.541  11.893  0.0929 -0.1915 -0.0155
20623W        W36092   9.710   0.513   3.980 -0.0724  0.1275 -0.0875
20624W        W36093  18.538   4.104  14.303  0.3929  0.2941  0.1086
20625W        W36094   2.759  18.169  14.749  0.0335 -0.1332 -0.1492
20626W        W36095  12.104  18.364   1.561  0.1989 -0.0847 -0.0346
20627W        W36096  18.826   4.482   5.900 -0.1066  0.4096  0.4755
20628W        W36097  12.098  16.638   3.782 -0.2105  0.3164 -0.0658
20629W        W36098   5.732   2.379   4.154  0.1786  0.2343 -0.2053
20630W        W36099   6.774   8.243  10.018 -0.0983  0.2066  0.3928
20631W        W36100   1.942   4.089  12.936 -0.0960 -0.1475 -0.1231
20632W        W36101   1.590   0.697  13.218  0.0325  0.0148 -0.1124
20633W        W36102   8.571  11.346  14.099  0.0372  0.3465 -0.1508
20634W        W36103   9.810   8.296  13.528 -0.2082  0.0262  0.0072
20635W        W36104   2.088  14.658   5.109  0.3945  0.1345 -0.0223
20636W        W36105  10.292  12.047   1.489  0.1941  0.1416 -0.0125
20637W        W36106  18.626  15.370  14.309  0.0145  0.1115 -0.0003
20638W        W36107  15.949   9.701   1.830 -0.1508  0.0158  0.0068
20639W        W36108   2.549  12.105   0.287  0.3256 -0.1988 -0.3441
20640W        W36109  18.427   9.661   4.795 -0.0540 -0.1075 -0.1623
20641W        W36110  12.133  15.276  12.232 -0.1272  0.0556 -0.1882
20642W        W36111  16.499   2.939   0.418  0.2536 -0.1006  0.3300
20643W        W36112   1.796  10.709  15.101  0.1456 -0.1885  0.2110
20644W        W36113  15.438  11.540   0.590 -0.0244  0.2493  0.1210
20645W        W36114   7.710   5.479  11.128  0.1796  0.0829 -0.0393
20646W        W36115  18.695   3.827  14.768  0.1624  0.5192 -0.4517
20647W        W36116   2.785  11.675  14.174 -0.0676  0.0036 -0.4276
20648W        W36117  15.528   7.626  11.183 -0.2463 -0.1130 -0.0101
20649W        W36118  18.763   6.946   0.755  0.1959  0.1587 -0.0517
20650W        W36119   5.625  15.435   0.278  0.0568  0.0431  0.1014
20651W        W36120   3.211  12.913   1.399  0.0451 -0.3069  0.0307
20652W        W36121   8.688  16.501   1.715 -0.0710 -0.1270 -0.1992
20653W        W36122   0.277  10.320  11.285  0.2637  0.0097 -0.3648
20654W        W36123  11.512   6.163   0.822 -0.3049  0.3403 -0.1837
20655W        W36124   8.019   3.853  14.052 -0.1513  0.1845  0.1151
20656W        W36125   3.038   1.646  12.819 -0.0939  0.1081  0.1107
20657W        W36126   8.120  16.750   3.102  0.2435  0.1831  0.1932
20658W        W36127   9.818  14.068   4.915 -0.1937 -0.1505  0.1863
20659W        W36128   1.775  16.391  13.322 -0.0496  0.1986 -0.0706
20660W        W36129   0.319   7.826   1.968  0.2190  0.1289  0.0778
20661W        W36130   8.537  10.770   5.116 -0.0529 -0.0242  0.1135
20662W        W36131   3.293  10.235  13.234  0.1981 -0.1253  0.3878
20663W        W36132  13.567   0.436   3.343 -0.0582  0.1039  0.1314
20664W        W36133  17.188  11.145   9.663  0.2698  0.0895  0.0163
20665W        W36134   8.929   0.921   5.793 -0.1766  0.0957  0.3287
20666W        W36135  10.107  10.031   3.137  0.1345  0.0393  0.1407
20667W        W36136   8.855   9.106   2.633  0.0168 -0.0557 -0.1349
20668W        W36137  14.782  15.668   1.904 -0.0805  0.2125  0.0834
20669W        W36138  10.589   7.543  12.210 -0.3430 -0.1088 -0.0498
20670W        W36139   3.772   1.149   1.057  0.1764  0.1545  0.4441
20671W        W36140  11.705  13.342   4.528  0.0518  0.4428 -0.1199
20672W        W36141  10.951   0.327   2.395  0.0981 -0.3308 -0.3973
20673W        W36142   6.091  18.935   5.588  0.2652  0.3829 -0.5118
20674W        W36143  14.812   8.026   1.195  0.0425 -0.0001  0.0905
20675W        W36144  10.186   0.999  11.517 -0.2362 -0.1423 -0.0258
20676W        W36145   3.088  10.458   1.576 -0.0038 -0.1460  0.0688
20677W        W36146  13.752  18.210  12.712  0.2666  0.1869 -0.0558
20678W        W36147   3.790  15.714   3.760 -0.1641 -0.2632 -0.4018
20679W        W36148   6.045   6.383   2.221  0.3125  0.1114  0.1361
20680W        W36149   6.428  18.560   1.594 -0.0919  0.1341 -0.1776
20681W        W36150  10.240   4.942  14.455  0.0143  0.1064  0.0691
20682W        W36151   3.887  10.069   5.336 -0.0738  0.3420 -0.0907
20683W        W36152  10.563  18.105   1.703 -0.4457 -0.0029 -0.3071
20684W        W36153   8.204   1.914  13.222 -0.2802  0.0808  0.2795
20685W        W36154   6.894  17.635   1.448 -0.1703  0.1581  0.0494
20686W        W36155   8.225   8.584  10.276 -0.2641  0.4068  0.1152
20687W        W36156   4.779   4.338  13.884  0.2431  0.2846  0.2498
20688W        W36157  12.480   0.699  12.192  0.0100  0.0986 -0.1476
20689W        W36158   6.531  10.390   0.621 -0.1259 -0.0306 -0.0156
20690W        W36159  17.178  15.448   3.882  0.0178  0.1118  0.0444
20691W        W36160  11.767   3.983  11.397  0.0739  0.1419  0.2732
20692W        W36161   7.557  10.486  13.907  0.0431  0.2201 -0.0973
20693W        W36162   1.619  14.509   1.274 -0.2048  0.0574  0.0439
20694W        W36163   1.843   6.580  11.827  0.3968 -0.1240  0.0026
20695W        W36164   3.572  16.295   5.738  0.0303 -0.1747  0.0767
20696W        W36165  10.034  12.603   0.116  0.1872  0.1590 -0.2036
20697W        W36166  17.767  17.424  11.387 -0.1823  0.1735  0.4145
20698W        W36167   0.001  12.579   1.195 -0.0840  0.0442  0.2049
20699W        W36168  11.439  10.036  13.262 -0.1323 -0.0483 -0.0331
20700W        W36169  10.215   5.159   3.435 -0.0792  0.0437 -0.0865
20701W        W36170  15.259  13.435  14.322 -0.3924  0.0396  0.0259
20702W        W36171  17.655   6.784  13.865 -0.1114 -0.2992  0.2219
20703W        W36172   5.908   4.704  11.688 -0.0221  0.2212 -0.0041
20704W        W36173   3.665   7.673   2.292 -0.2473  0.0756  0.3379
20705W        W36174   7.752  18.255   3.468 -0.3790  0.0920 -0.2172
20706W        W36175  11.555  18.993   4.133  0.1979 -0.0478  0.1598
20707W        W36176   5.851   9.412   4.586  0.0327  0.0165 -0.2370
20708W        W36177   6.460   0.499  11.982  0.1194 -0.1188  0.1516
20709W        W36178   1.318  14.938   3.732 -0.2773  0.0525 -0.1129
20710W        W36179   0.962  12.374  10.991 -0.0219 -0.1242  0.1825
20711W        W36180  12.095   9.740   2.892 -0.1504 -0.1833 -0.2053
20712W        W36181   0.838  14.293  12.619 -0.2280  0.3709  0.3415
20713W        W36182   9.317  17.506   5.704 -0.1781  0.0190 -0.4885
20714W        W36183   5.036  14.462   1.799 -0.1473 -0.2477  0.3255
20715W        W36184   9.416   6.523  11.283 -0.1261 -0.0828  0.1878
20716W        W36185  10.238   2.979  11.192 -0.1384 -0.0844 -0.1700
20717W        W36186   6.458  10.370  13.788 -0.1033 -0.0590 -0.3498
20718W        W36187   3.206  10.191   0.113  0.2098 -0.0085  0.0527
20719W        W36188   6.454  12.888  13.091  0.1537  0.1283 -0.2186
20720W        W36189   5.461   6.356   0.063 -0.0714 -0.1428 -0.0022
20721W        W36190   1.039   6.195   1.503 -0.2294  0.0957 -0.1551
20722W        W36191  14.617  14.841   2.767 -0.0167  0.1287  0.0069
20723W        W36192  16.651   2.804  13.298 -0.3570 -0.2347  0.0506
20724W        W36193  12.846   5.592  11.883  0.1946  0.1671  0.0842
20725W        W36194   9.819   0.478   5.569  0.0135 -0.2720 -0.0640
20726W        W36195  15.127   9.603   2.369 -0.1738 -0.0971  0.2036
20727W        W36196  14.723   1.108  11.362  0.2076 -0.0024 -0.2660
20728W        W36197  16.951  12.726  11.617 -0.0736 -0.1626 -0.0258
20729W        W36198   6.972   2.602  14.187 -0.1117  0.4137 -0.0439
20730W        W36199  14.043  18.176  14.739  0.0300  0.1914 -0.0598
20731W        W36200  13.600  11.787   2.364 -0.4300 -0.3198  0.0929
20732W        W36201  11.284   6.010  13.402  0.0830  0.1474  0.0631
20733W        W36202   0.916  14.548   1.628  0.2057  0.0315 -0.3490
20734W        W36203   5.547   1.696   5.341  0.0294  0.1042 -0.1722
20735W        W36204  11.954   5.357   5.870 -0.1864 -0.1356 -0.4704
20736W        W36205  10.164   4.516   4.824 -0.2819 -0.0097 -0.1100
20737W        W36206  12.646  15.366  12.215  0.0096 -0.0858 -0.2095
20738W        W36207  12.248   1.963   5.611 -0.1359  0.1007  0.2651
20739W        W36208   7.899  13.643  12.312 -0.0668  0.0424 -0.0299
20740W        W36209  12.470  10.985  10.741 -0.3292  0.1450 -0.0733
20741W        W36210  10.540   9.021   1.237 -0.1023 -0.1560 -0.2431
20742W        W36211  17.456   4.068   0.811 -0.3658  0.1717 -0.0507
20743W        W36212  13.765   6.253   4.897  0.1788  0.1446 -0.2842
20744W        W36213  12.042  11.509  13.728 -0.2115  0.3117  0.1524
20745W        W36214  12.885  17.768  11.727  0.0915  0.1375 -0.4646
20746W        W36215  16.313   8.150   3.049 -0.1101  0.0585 -0.0710
20747W        W36216   9.997   6.586  15.101 -0.3402 -0.0641 -0.1742
20748W        W36217   0.631   2.766   0.548  0.2813  0.3278 -0.2917
20749W        W36218   1.611   9.374   1.519 -0.0367  0.2272 -0.1693
20750W        W36219   0.787  16.068   2.070  0.2043  0.0320  0.1089
20751W        W36220   5.451   8.157  11.852 -0.2460 -0.0236  0.0703
20752W        W36221  10.539  15.856   0.134 -0.3293  0.0660  0.1453
20753W        W36222  13.351  14.633   2.056 -0.0446 -0.0711 -0.2738
20754W        W36223   9.230   7.392  11.402 -0.0481 -0.1517  0.1923
20755W        W36224  10.702   7.882   1.426 -0.0634  0.1922 -0.3950
20756W        W36225   4.441  16.769   5.880  0.2247 -0.0276  0.0123
20757W        W36226  15.395   2.768  14.840  0.3158  0.2127  0.4835
20758W        W36227   1.049   6.624   4.483 -0.1599  0.0871 -0.2656
20759W        W36228   9.610  14.259   3.708  0.0142  0.1956 -0.2508
20760W        W36229  16.925  10.580   3.034  0.4067 -0.1201 -0.1093
20761W        W36230   1.692   6.674   3.188  0.2770 -0.3664  0.0185
20762W        W36231   4.585  11.431  14.822 -0.0043 -0.0349  0.1971
20763W        W36232   6.128   2.047  12.477 -0.0851 -0.1037 -0.2507
20764W        W36233   6.891   9.761  12.626  0.1329  0.2042  0.1080
20765W        W36234  13.966   9.993   0.140 -0.0486  0.3764  0.3257
20766W        W36235  12.052   3.667  11.007 -0.2918 -0.1168  0.0877
20767W        W36236   2.916  11.442   3.459 -0.3323  0.3159 -0.1681
20768W        W36237  14.463  12.521  12.011  0.1325 -0.0632 -0.0555
20769W        W36238  16.286   4.518  12.897 -0.1018  0.0719  0.0362
20770W        W36239  17.914   0.087  14.151  0.0564 -0.0878 -0.2919
20771W        W36240  14.040  17.065  14.667 -0.1229 -0.2207 -0.0496
20772W        W36241  14.179   9.017  10.559  0.1286 -0.2310  0.2519
20773W        W36242   4.035  12.656   4.567 -0.0052  0.1011 -0.1500
20774W        W36243  18.890  15.007  13.140  0.1154  0.2103  0.3087
20775W        W36244  12.788  15.334   0.163 -0.2222 -0.2042  0.2774
20776W        W36245   3.249  11.670  13.275  0.1037  0.3029  0.0956
20777W        W36246   4.042  17.427   4.159  0.0556  0.3384 -0.3543
20778W        W36247   4.317   6.419  12.460  0.2910  0.1986 -0.3555
20779W        W36248  11.772   1.597   2.476  0.1147  0.1790  0.2556
20780W        W36249   2.154  16.893  12.042 -0.0564 -0.1272 -0.4626
20781W        W36250   4.745   4.817  13.706  0.1311 -0.1933 -0.4012
20782W        W36251  17.037  13.387   4.126  0.0533 -0.2234 -0.1252
20783W        W36252  14.526  18.854  15.206  0.1855 -0.1349  0.0583
20784W        W36253   4.210  12.689  14.451 -0.2161  0.2051 -0.1561
20785W        W36254  15.325   9.673  12.565  0.2264 -0.1125  0.0209
20786W        W36255  10.116   8.116  13.203 -0.3204  0.2954  0.0760
20787W        W36256  11.991   5.536   3.507 -0.3876 -0.0829  0.0047
20788W        W36257   4.607  12.381   5.141 -0.1828 -0.1227 -0.0612
20789W        W36258   7.366   1.212  14.584 -0.2764  0.0814 -0.0104
20790W        W36259  11.726   8.678  12.586 -0.0175  0.1053 -0.1834
20791W        W36260  11.007   7.250   3.244 -0.0414  0.1984  0.0029
20792W        W36261   7.053  16.722   4.183 -0.0747 -0.0771  0.0104
20793W        W36262   2.555  16.670  14.746 -0.3673 -0.0167  0.2213
20794W        W36263   4.567  18.492  12.438  0.0473 -0.0457 -0.0361
20795W        W36264   4.296   5.983   3.409 -0.2650 -0.1551 -0.1010
20796W        W36265   5.912   5.871   2.178  0.0600 -0.2455  0.0771
20797W        W36266  14.881   9.442  10.935 -0.2790  0.2695 -0.2489
20798W        W36267  10.066  17.640   3.376 -0.2236  0.0285  0.1331
20799W        W36268  18.040   1.822  15.113 -0.0348  0.3400 -0.1178
20800W        W36269   4.495   1.362   2.343  0.2733 -0.0594 -0.0280
20801W        W36270  13.936   8.212   3.750  0.2735  0.0940 -0.0365
20802W        W36271   2.159  16.095  11.474  0.1579  0.0166 -0.0754
20803W        W36272   8.334   4.380  10.698  0.1582  0.5739  0.0773
20804W        W36273  11.852  17.999   2.622 -0.2411  0.0259  0.2925
20805W        W36274   2.442   2.981  11.388  0.2012 -0.1630 -0.1301
20806W        W36275   1.285  12.212   4.033  0.0907 -0.2914 -0.0011
20807W        W36276  16.406   6.231   0.942 -0.0043  0.2424  0.1155
20808W        W36277  10.415  12.853   0.343 -0.1600 -0.2028 -0.3314
20809W        W36278  18.022  16.237   2.930  0.3196 -0.1598 -0.1145
20810W        W36279   5.100  18.702   4.651 -0.1910  0.0609 -0.2084
20811W        W36280   0.678  13.485  11.071 -0.0745 -0.2350  0.4804
20812W        W36281  12.640   9.304  13.586 -0.0421  0.2180 -0.1722
20813W        W36282   8.632  13.142  10.479 -0.1763  0.1515 -0.0181
20814W        W36283  10.101  18.966  14.640 -0.0953  0.1153 -0.1110
20815W        W36284   5.593   2.845   0.878  0.1799  0.0899  0.0688
20816W        W36285   3.874   4.701   0.405 -0.0365 -0.1292  0.0762
20817W        W36286   5.130  15.439   4.264 -0.1742  0.3058 -0.0981
20818W        W36287   8.456   7.491   1.831  0.1070 -0.0733  0.1053
20819W        W36288  16.277   9.821   5.540  0.1173  0.0580  0.1479
20820W        W36289   4.234   8.878   3.769 -0.1454  0.2979 -0.2702
20821W        W36290  17.194  15.558   0.333 -0.0245  0.4536  0.4193
20822W        W36291  17.796   1.785  14.592  0.3425  0.0509 -0.0104
20823W        W36292  18.958   3.239   2.475 -0.0720  0.1027  0.0351
20824W        W36293   9.168   9.986  14.312 -0.0214 -0.2878 -0.0446
20825W        W36294   7.678   7.636   0.874  0.3525  0.0500 -0.1072
20826W        W36295  12.966  11.008   3.351 -0.1036  0.1354 -0.0903
20827W        W36296   6.671   2.652  10.645  0.4617  0.0059 -0.2234
20828W        W36297   4.877  11.335  13.382 -0.3078 -0.0276  0.3974
20829W        W36298  18.022  13.979   3.898 -0.0152 -0.0069  0.2147
20830W        W36299  10.998  12.278  12.120 -0.0397  0.1571 -0.2225
20831W        W36300   4.822   9.642  15.064  0.2468  0.0806  0.0129
20832W        W36301  16.948   4.595  13.286 -0.0006 -0.1667 -0.0214
20833W        W36302   0.557   5.158   1.291  0.0791 -0.0247  0.2671
20834W        W36303  18.950  11.709   2.181 -0.1468  0.0618  0.0322
20835W        W36304   0.928  13.578  11.787  0.2553  0.1899 -0.0328
20836W        W36305  14.320   5.373  11.623 -0.0818 -0.1144  0.2827
20837W        W36306   1.295  14.470   4.103  0.1975 -0.1162  0.2157
20838W        W36307  10.377   7.608   9.986  0.0715 -0.1654 -0.0037
20839W        W36308   2.217  15.874   1.726  0.1236  0.0872 -0.3460
20840W        W36309  12.079  15.168  14.521  0.2335 -0.1202 -0.0481
20841W        W36310  12.778  16.736   4.923  0.2357 -0.0749  0.1792
20842W        W36311  10.372  16.034  14.482 -0.0087 -0.0778  0.0045
20843W        W36312  18.068  12.889   2.577 -0.0149  0.1363  0.1096
20844W        W36313  17.776   8.164   2.930 -0.0087  0.1083 -0.2350
20845W        W36314   0.169   0.297  12.298 -0.0993 -0.1488  0.2752
20846W        W36315  14.170   2.382   2.223 -0.4478  0.2639 -0.1176
20847W        W36316   8.930   1.054   3.037 -0.1850 -0.2732  0.3243
20848W        W36317  18.557  11.934   1.908  0.1501 -0.1771  0.1378
20849W        W36318   8.978  17.116   4.019 -0.1904 -0.1124 -0.1381
20850W        W36319   2.533  17.308  14.318  0.1467  0.4129 -0.1399
20851W        W36320  16.214   7.104  14.528 -0.1081 -0.2268 -0.3428
20852W        W36321   7.013  18.963  15.039 -0.2318  0.2985 -0.1489
20853W        W36322  11.876   9.505   1.401 -0.0591  0.2401 -0.0945
20854W        W36323  17.038   2.514  14.418 -0.0232 -0.0336 -0.1590
20855W        W36324   0.106  18.320   0.282  0.0766 -0.0872 -0.0564
20856W        W36325  18.833  18.571  12.073  0.1458 -0.0762  0.1538
20857W        W36326   1.687   0.190   0.751  0.3530  0.0242  0.1707
20858W        W36327  15.175   0.893  13.455  0.0465  0.3228 -0.0410
20859W        W36328  11.101   8.427  11.855 -0.0263  0.0778 -0.1336
20860W        W36329  17.923   2.175  14.249  0.0578 -0.1291 -0.1630
20861W        W36330   5.946   6.976  11.179  0.0569 -0.1400  0.1636
20862W        W36331   1.715  13.568  15.152 -0.1483  0.2892  0.1600
20863W        W36332  16.290   4.318   2.473 -0.3047 -0.0976  0.2098
20864W        W36333  15.359   7.566   1.426 -0.2538  0.0393  0.0606
20865W        W36334   3.581   7.599   4.290  0.0400  0.1788 -0.2831
20866W        W36335   0.286  16.472  14.447  0.0057  0.4659 -0.1490
20867W        W36336   8.532   1.268   0.026  0.1946 -0.2973 -0.0221
20868W        W36337   9.493  18.832  12.901  0.2687  0.2642 -0.1904
20869W        W36338  17.996   8.442  14.566 -0.1674 -0.5480 -0.0582
20870W        W36339   2.153  10.848  14.785 -0.1433  0.1614 -0.0879
20871W        W36340   2.709   3.471   0.310  0.0748  0.0529 -0.4544
20872W        W36341  12.234   0.243  10.939 -0.1142 -0.3287 -0.4606
20873W        W36342   2.075   8.475  10.999 -0.1702  0.0530 -0.0685
20874W        W36343   5.871  17.691   3.855  0.1356 -0.0370 -0.0734
20875W        W36344   4.531  16.733   4.366 -0.1019 -0.0409  0.0402
20876W        W36345  10.799  12.079   3.890  0.2403  0.1472 -0.4256
20877W        W36346   7.099   9.807   4.081 -0.2011  0.0562  0.0388
20878W        W36347   2.329  13.211  10.779 -0.1444  0.5172 -0.0830
20879W        W36348   5.169   4.055  12.842 -0.0648 -0.4288  0.1174
20880W        W36349   3.475  18.437  12.107 -0.4270 -0.1936  0.3487
20881W        W36350  14.513   2.781   2.013 -0.3107  0.1992 -0.1626
20882W        W36351   2.023  17.684  10.658 -0.1121  0.0326  0.2068
20883W        W36352  18.722  10.017  12.983 -0.3111  0.0766  0.0851
20884W        W36353   1.727   5.863  13.194  0.1144  0.1754 -0.2879
20885W        W36354   8.961   9.408   3.427  0.0155 -0.1783  0.1680
20886W        W36355  17.603   7.790   0.117 -0.1390 -0.3476 -0.0234
20887W        W36356  17.465  10.985  11.318  0.1343  0.0943  0.0258
20888W        W36357   9.214   3.660   2.533 -0.0907  0.1921 -0.2414
20889W        W36358   8.923   1.735  10.065  0.1555 -0.2227 -0.1912
20890W        W36359  15.104   7.068  13.845 -0.0421  0.0352  0.3053
20891W        W36360   4.227   9.104  12.605  0.4165 -0.1406  0.1373
20892W        W36361   8.501   3.939   1.897  0.1778 -0.0943 -0.1968
20893W        W36362   2.021   8.922   0.242  0.3114  0.0078 -0.0172
20894W        W36363   0.666   7.597  15.228  0.1227  0.0250 -0.0652
20895W        W36364   5.818  13.662  11.602  0.0601 -0.1067  0.0878
20896W        W36365  10.690  10.577  10.549  0.0836  0.0579  0.0240
20897W        W36366  15.585   9.950   0.946  0.1247  0.1061  0.0750
20898W        W36367   8.913   8.284   1.944  0.2524 -0.2926 -0.1201
20899W        W36368  15.160  16.080   4.730 -0.1406  0.5491 -0.0187
20900W        W36369  13.225  16.205   0.256 -0.0597 -0.0027 -0.0531
20901W        W36370  16.872   8.654  11.079 -0.1763 -0.0876  0.4171
20902W        W36371   9.161   5.099   2.187  0.2182  0.5023 -0.0425
20903W        W36372   2.672   3.388   1.481  0.1528  0.0954  0.5776
20904W        W36373  16.725   7.013   3.874 -0.0700  0.1322 -0.3184
20905W        W36374  12.150  15.118  10.996 -0.1403  0.0290  0.2904
20906W        W36375   5.717   0.338   1.391  0.0054 -0.3072 -0.0848
20907W        W36376   8.451  17.692  13.015 -0.0278 -0.1583  0.4178
20908W        W36377  15.257   2.993   5.135 -0.3255 -0.0717  0.0785
20909W        W36378   0.321   8.665  11.291  0.1861  0.0179  0.0271
20910W        W36379  18.596   0.512  13.161  0.0859 -0.1427  0.1332
20911W        W36380   6.182   7.951   5.926 -0.1690 -0.2511  0.2227
20912W        W36381   7.163  18.063  12.326 -0.1477  0.2097  0.2228
20913W        W36382   0.996   6.805   1.632 -0.2870  0.0529 -0.1631
20914W        W36383  10.219   0.037   1.773 -0.1728  0.0957  0.0838
20915W        W36384  11.819  16.992  15.158 -0.1701 -0.3205  0.1609
20916W        W36385   3.497   7.059   3.340 -0.2078 -0.1419  0.0794
20917W        W36386   3.727   2.670  15.070 -0.2145  0.2311  0.1257
20918W        W36387  18.008   5.122  12.985 -0.0888  0.0456 -0.0582
20919W        W36388  12.306  10.911  11.624 -0.0713  0.1367  0.2193
20920W        W36389   9.317  12.446  12.740  0.1518 -0.2005  0.1242
20921W        W36390  16.031  11.787  13.968  0.0463  0.1275  0.2852
20922W        W36391  11.893   0.368   0.887  0.0564 -0.0069 -0.2572
20923W        W36392   6.127  17.028  12.736  0.1478 -0.1099  0.2410
20924W        W36393  14.131   4.741   3.554 -0.0667 -0.0036  0.3069
20925W        W36394   9.021   7.114   0.320 -0.0765  0.0291 -0.0653
20926W        W36395   1.500  17.441   4.571  0.2995  0.2674  0.0514
20927W        W36396  15.483  17.503  12.809 -0.0180 -0.0266 -0.3335
20928W        W36397  13.351   9.009   4.686  0.1148  0.4475  0.1621
20929W        W36398   8.938  15.550   0.426 -0.2652 -0.0748  0.1705
20930W        W36399   6.333  10.953   4.857  0.4386 -0.0838 -0.0843
20931W        W36400   9.226  18.547   4.179 -0.1308  0.1702 -0.1369
20932W        W36401  18.090   8.468  13.800  0.4480 -0.1615  0.0678
20933W        W36402  13.339  14.673  12.391 -0.2422 -0.0418  0.0809
20934W        W36403   9.432  14.639  10.972  0.1767  0.0325 -0.0460
20935W        W36404  17.828   6.697   1.837 -0.2478 -0.0228 -0.0039
20936W        W36405   3.102   1.203  15.102  0.2049 -0.0090  0.1473
20937W        W36406  12.138  10.402   3.390  0.1482  0.2702 -0.2526
20938W        W36407   0.247  12.571   5.186 -0.0024  0.1893 -0.0200
20939W        W36408   1.543   7.068   2.886  0.4296  0.0170 -0.2420
20940W        W36409  12.442   5.664   3.180  0.0021  0.2508 -0.0529
20941W        W36410  15.479   7.723  14.808 -0.1037  0.1406  0.0638
20942W        W36411   6.056   4.097  14.659  0.0352 -0.1046  0.0407
20943W        W36412   5.236   9.281   2.459  0.1296  0.3533 -0.1437
20944W        W36413  16.992  14.723  14.261  0.2363  0.1594 -0.2484
20945W        W36414  12.168  16.583   1.019 -0.0473 -0.0056  0.0506
20946W        W36415  11.251   6.855  11.892  0.1771  0.1672  0.0202
20947W        W36416  11.178  11.672  13.417 -0.3129 -0.1261  0.3030
20948W        W36417  11.383   2.702  14.649  0.0212 -0.0610 -0.0730
20949W        W36418   1.740   6.721   2.437  0.4055 -0.5199  0.1822
20950W        W36419  17.466   3.841   2.940  0.0105 -0.4445  0.1968
20951W        W36420  18.914  10.592   1.551 -0.3565  0.0276 -0.1983
20952W        W36421   7.061  15.397  15.355  0.3300  0.0661  0.0860
20953W        W36422  13.464  16.233   1.438  0.0398 -0.3211  0.1291
20954W        W36423  15.038  17.797  12.094 -0.1181 -0.0803 -0.0708
20955W        W36424   6.134   4.141   2.160  0.1077  0.0183  0.0485
20956W        W36425   4.990  16.187  14.151  0.0346  0.1199 -0.2745
20957W        W36426  18.640   4.572   0.041 -0.3340  0.0390  0.1340
20958W        W36427   6.600   0.750   5.215  0.1028 -0.0458  0.1356
20959W        W36428  11.514  11.830   2.151  0.2112 -0.1270  0.1800
20960W        W36429   8.499  18.164  13.153  0.1503 -0.2860 -0.3395
20961W        W36430  18.792  17.844  12.923 -0.2634 -0.3097  0.3043
20962W        W36431  15.195  10.085   0.011  0.0844  0.2218  0.0983
20963W        W36432  17.292   9.936   0.997  0.2981 -0.0352  0.1360
20964W        W36433   7.659  14.962   3.254  0.0943 -0.0467  0.0553
20965W        W36434   9.237  16.929  14.550  0.2946  0.1148  0.2917
20966W        W36435  14.349  10.544  13.848 -0.0914 -0.2964  0.1046
20967W        W36436   2.807  18.926   3.030  0.0247 -0.1171 -0.1163
20968W        W36437  12.750   6.689   2.899 -0.0788  0.1754  0.0686
20969W        W36438  12.894   6.902   1.094  0.0337 -0.0277 -0.0295
20970W        W36439   7.445   2.190  11.763 -0.0636 -0.2512  0.1930
20971W        W36440  16.556  13.094  14.878 -0.3246 -0.0917 -0.0418
20972W        W36441  12.737  18.888   0.863 -0.1450  0.1709 -0.3184
20973W        W36442  13.778   4.802   2.403  0.0056 -0.0043 -0.0032
20974W        W36443  14.350  14.230   0.961  0.1608  0.1007 -0.0464
20975W        W36444  13.017  14.002   2.587 -0.0019 -0.0632  0.2177
20976W        W36445  12.956  15.430   2.558  0.2829 -0.1881  0.0702
20977W        W36446   1.446  10.666   4.015 -0.0263  0.3640  0.2223
20978W        W36447  11.306  16.815  14.179  0.1399 -0.0461 -0.0111
20979W        W36448  13.408   9.327  15.127 -0.0388  0.2696 -0.1371
20980W        W36449  18.450   3.849  10.185 -0.0217 -0.0007 -0.3431
20981W        W36450   8.826   3.352   2.484  0.1579 -0.0231  0.0962
20982W        W36451  17.387   4.449  13.368  0.1869  0.0987 -0.1942
20983W        W36452   8.600   2.956  13.518 -0.1921 -0.2487  0.0990
20984W        W36453   0.716  14.763   4.451 -0.2350  0.4891 -0.0741
20985W        W36454   0.453   2.826  11.070  0.3337 -0.1212 -0.0747
20986W        W36455  14.344  16.751   4.954  0.3545  0.0543 -0.0750
20987W        W36456  11.902  16.210   1.534  0.1090  0.1500  0.0190
20988W        W36457   4.360  15.561   6.228 -0.2252 -0.5855 -0.0214
20989W        W36458  11.657   4.344   1.650 -0.0083 -0.1236  0.0894
20990W        W36459  10.155  13.218   1.921 -0.1298 -0.1906 -0.0122
20991W        W36460   9.412   8.364   1.808  0.0882 -0.0996  0.0406
20992W        W36461  10.330  18.601  11.716  0.2456 -0.1584 -0.3664
20993W        W36462   6.036   2.401  13.834 -0.3299  0.1832 -0.4907
20994W        W36463   4.757   3.645   4.817  0.2990 -0.4110  0.0237
20995W        W36464   6.286   5.971   3.930 -0.0422  0.0758  0.2296
20996W        W36465  13.853  16.592   3.367 -0.0996 -0.2053 -0.1930
20997W        W36466  10.304  10.276   5.008  0.1283 -0.0238 -0.3362
20998W        W36467   7.382   1.352   4.796  0.3043  0.1553 -0.0513
20999W        W36468  17.802   5.031   3.465  0.1628  0.3503 -0.0863
21000W        W36469  16.962  17.246  11.090 -0.4348 -0.1885 -0.1412
21001W        W36470  10.387   1.711   2.128 -0.0652 -0.2470  0.4842
21002W        W36471  14.529  14.146  14.132 -0.3234 -0.2455  0.1393
21003W        W36472   7.895  18.577  15.024  0.0503  0.4459  0.0707
21004W        W36473  15.642  17.938  10.733  0.0076  0.2146 -0.0765
21005W        W36474  10.310   4.550   2.542 -0.2585 -0.1399 -0.1393
21006W        W36475   3.829  13.526  10.946 -0.1187  0.4051 -0.2975
21007W        W36476  17.949   2.660   9.982  0.1554  0.2259 -0.0382
21008W        W36477  10.016  10.156  13.372 -0.1475 -0.1508  0.1959
21009W        W36478  15.230  17.123  14.009  0.4324  0.1329  0.1635
21010W        W36479  13.372  14.692  14.841 -0.0810 -0.0175  0.2154
21011W        W36480  14.940   6.578   0.828  0.1025 -0.0501  0.3180
21012W        W36481  10.880   5.368  14.422  0.0561  0.1421  0.0435
21013W        W36482   4.453  12.947   0.661  0.0704  0.0127 -0.1503
21014W        W36483   7.369  14.728  12.659  0.1394  0.1171 -0.0119
21015W        W36484   4.435  15.833  13.171 -0.3837  0.1726 -0.0107
21016W        W36485  17.321   3.939  11.532  0.3382 -0.1860 -0.0893
21017W        W36486  15.038  18.875   0.073  0.1314  0.3671 -0.0103
21018W        W36487  12.996  12.230  14.838 -0.1398 -0.3079 -0.0133
21019W        W36488  14.043  12.700   0.120 -0.1223 -0.2699  0.0880
21020W        W36489   6.963   7.305  10.103  0.1742  0.1341 -0.0843
21021W        W36490  14.860   2.398  13.136  0.0778  0.1110 -0.1495
21022W        W36491   6.682   3.461   1.607  0.4662  0.1968 -0.3623
21023W        W36492   3.481   9.291   1.212  0.2994  0.2509 -0.0371
21024W        W36493   5.693  17.503   4.289  0.1157 -0.1129 -0.2395
21025W        W36494   8.290   3.639  14.653  0.5024  0.4578  0.0751
21026W        W36495   8.992  13.483  14.947  0.0474  0.0646 -0.1885
21027W        W36496   6.039  18.784  12.035 -0.1113  0.1744 -0.2675
21028W        W36497  12.532   6.377   3.769 -0.2170 -0.0711 -0.2819
21029W        W36498  10.056   2.541   1.582 -0.2475  0.0255  0.3038
21030W        W36499  12.603   1.108   0.903  0.1233 -0.0758 -0.0887
21031W        W36500  14.018  18.765  10.815  0.4546  0.5554 -0.0851
21032W        W36501   9.406   3.640  11.864  0.1134  0.1051  0.2113
21033W        W36502   7.726   1.418   0.194  0.0099 -0.0151 -0.2705
21034W        W36503   8.257  14.688   4.717 -0.0034 -0.1962  0.0183
21035W        W36504  17.366  15.687  12.796 -0.0100 -0.2262  0.2368
21036W        W36505  11.489  11.268  13.317  0.1122  0.3812  0.1182
21037W        W36506  11.509   9.149  11.654 -0.1050  0.2444  0.0935
21038W        W36507   1.373   4.811   0.961  0.0647 -0.0253  0.2126
21039W        W36508  12.404  14.098  14.521  0.0206 -0.0174 -0.0741
21040W        W36509  11.669   4.293   3.650 -0.1108  0.1742  0.1955
21041W        W36510   8.832   5.620   3.646  0.0008  0.4358  0.1207
21042W        W36511  10.144   7.388  13.911  0.1157 -0.0417  0.0459
21043W        W36512   8.278   0.998   4.870  0.3225 -0.1665  0.1071
21044W        W36513   7.110  18.523   1.831  0.0869 -0.0593 -0.3112
21045W        W36514  18.402  16.342   2.166  0.1404 -0.2585  0.1421
21046W        W36515  12.059   8.979  14.671  0.1228  0.2015 -0.2023
21047W        W36516   9.919  14.424   3.349  0.1257 -0.1472  0.0326
21048W        W36517  11.814   7.910  13.554  0.0993 -0.2991 -0.1347
21049W        W36518  17.514  16.456   4.962 -0.4181 -0.0677 -0.1582
21050W        W36519   3.378   7.294  11.144 -0.2401  0.1761 -0.1435
21051W        W36520  18.907  10.973  12.489  0.1897  0.0064  0.0888
21052W        W36521   9.946  15.017   3.980 -0.0077  0.3042 -0.1018
21053W        W36522   8.536   1.233   3.958  0.2203  0.0138 -0.2245
21054W        W36523  16.766   8.623  13.472  0.3826  0.1639  0.1671
21055W        W36524  14.727   8.662   4.553 -0.1770  0.0963  0.1904
21056W        W36525  12.559  14.565   0.720 -0.1744 -0.2669 -0.0178
21057W        W36526   7.344   2.179   2.758  0.1789 -0.1048  0.0043
21058W        W36527   9.188  18.479  14.625 -0.2252 -0.3281 -0.1061
21059W        W36528  15.270   8.058   3.923  0.2278 -0.0212  0.0983
21060W        W36529   9.938   6.390  12.424  0.0713  0.2291  0.1944
21061W        W36530  16.268   9.372  11.264  0.0612 -0.1368  0.3026
21062W        W36531   9.822  17.114   1.896  0.2781 -0.0599  0.0489
21063W        W36532  12.900   7.247  10.253 -0.2567 -0.3082  0.2179
21064W        W36533  11.358   2.733  11.527 -0.4394 -0.3422 -0.2837
21065W        W36534  13.882  10.687  13.721 -0.1092 -0.1888 -0.2176
21066W        W36535  16.722   0.352   4.938  0.2584 -0.0005  0.1717
21067W        W36536  15.764   0.899   2.968 -0.1445  0.0330 -0.0486
21068W        W36537   7.717   2.969   3.893 -0.2646 -0.0910 -0.1088
21069W        W36538   5.997   9.637  14.120  0.4355  0.3874  0.0001
21070W        W36539  13.756   3.661  15.360  0.3355 -0.0812  0.1162
21071W        W36540  15.290   8.350   1.114  0.0683  0.0563  0.2664
21072W        W36541   9.727  16.469   3.732 -0.3910 -0.0350  0.0292
21073W        W36542   3.519   9.092   1.886 -0.0526 -0.0141 -0.0252
21074W        W36543  17.426   0.630   4.022  0.1771  0.1909  0.0939
21075W        W36544   5.706   6.066   4.877  0.2851 -0.4152 -0.3380
21076W        W36545  17.000   5.569   1.935 -0.0975 -0.0341  0.1099
21077W        W36546  10.085  16.461   4.716  0.0161  0.0221 -0.0424
21078W        W36547  17.087  16.765   4.901 -0.1792  0.1575 -0.1784
21079W        W36548  13.145   5.653   0.668  0.1099 -0.2718  0.0059
21080W        W36549  14.390   8.127  13.312  0.1689  0.0185 -0.1755
21081W        W36550  14.733   2.239  10.054 -0.0497 -0.0658  0.0781
21082W        W36551   4.972   5.878  14.501  0.2944  0.1923  0.2395
21083W        W36552  17.625   3.319   2.932  0.0876 -0.2320 -0.1890
21084W        W36553   8.509  14.828   4.051  0.3445  0.0977 -0.3103
21085W        W36554  10.953  16.175  13.103  0.2260 -0.0538  0.1260
21086W        W36555   6.669  15.593  15.132  0.3270 -0.2120  0.0334
21087W        W36556  16.874   5.295   2.385  0.5551 -0.2199 -0.2440
21088W        W36557   2.111   4.557   5.439  0.2901  0.1957 -0.0864
21089W        W36558  11.566   2.562   2.312 -0.1294 -0.0443 -0.2608
21090W        W36559   4.157   3.923   2.600  0.0260  0.0594  0.0249
21091W        W36560  18.429   0.186   1.775  0.3600  0.0197 -0.1700
21092W        W36561   0.526   9.798  13.355 -0.1358 -0.1562  0.1268
21093W        W36562  14.157   8.824   9.549  0.1779  0.0758 -0.0436
21094W        W36563   4.007  12.266  14.566 -0.0998 -0.0738  0.2421
21095W        W36564  10.650   4.453   4.626 -0.2056  0.0279  0.0242
21096W        W36565  13.730   3.623   1.413 -0.0680  0.2118 -0.1109
21097W        W36566  16.890   8.213  10.812  0.2277 -0.1938  0.2612
21098W        W36567  15.784  18.138  13.546 -0.1170 -0.0257  0.0844
21099W        W36568  13.864   0.656  12.728 -0.0611  0.2452 -0.2394
21100W        W36569   9.834   1.481  15.133  0.1459  0.3821 -0.2724
21101W        W36570  18.128   0.981   1.689 -0.1566 -0.0352  0.1102
21102W        W36571  10.286   5.618   2.187 -0.1909  0.0827  0.1060
21103W        W36572   4.132   2.011   3.174  0.2558  0.0556  0.1593
21104W        W36573   4.445   5.170  10.744 -0.2722 -0.1819  0.0581
21105W        W36574   2.304   0.260  11.143  0.4576  0.0846  0.1739
21106W        W36575   9.847  17.737  13.566  0.0220 -0.0070  0.0395
21107W        W36576   7.173  16.762  11.691  0.0181 -0.0016 -0.1633
21108W        W36577   8.621   9.605   2.053  0.2183 -0.3534 -0.0277
21109W        W36578   4.571   6.638  13.972  0.1189 -0.2532 -0.0449
21110W        W36579   0.302   6.062   2.263  0.3880 -0.0149  0.0717
21111W        W36580   1.893  17.735   1.092  0.2414  0.0813 -0.0155
21112W        W36581   0.874  16.507  13.765  0.1860 -0.3617  0.4764
21113W        W36582  10.996   8.504  10.635  0.2547  0.1493 -0.1452
21114W        W36583  14.969   1.782   4.101 -0.0865  0.0752 -0.1727
21115W        W36584   0.330   8.169   2.646 -0.3660 -0.1931 -0.0080
21116W        W36585   9.896   2.202   4.572 -0.0259 -0.4458  0.2481
21117W        W36586   3.717  14.353  10.701 -0.1465 -0.1591  0.1699
21118W        W36587  15.324  11.916  13.887  0.0182  0.0329  0.0961
21119W        W36588  14.143   7.132   3.153 -0.0521 -0.1436  0.4256
21120W        W36589  12.860   4.173   2.910 -0.1097  0.3225  0.2793
21121W        W36590  12.884  14.988   1.360  0.3837 -0.1969  0.1585
21122W        W36591   3.459  12.150  12.517 -0.1946 -0.0103 -0.0376
21123W        W36592   1.771   4.262  14.610  0.5745 -0.2851  0.2035
21124W        W36593   6.470  16.237  12.032 -0.1740  0.0073 -0.1184
21125W        W36594   7.468   4.510   3.741  0.1771  0.1951 -0.3212
21126W        W36595  10.903  12.119   3.153  0.3561  0.1427 -0.2152
21127W        W36596   3.202   9.465   3.844 -0.0595 -0.0928 -0.0225
21128W        W36597  16.251  16.898  14.243  0.0460  0.2530  0.4109
21129W        W36598  13.707  17.506   1.364  0.0791  0.2031  0.1209
21130W        W36599   6.615  11.155  11.192 -0.1153 -0.2155  0.2007
21131W        W36600  12.663  14.327   2.683 -0.2420  0.0416  0.1621
21132W        W36601  13.629   4.522   1.072  0.2344  0.0996 -0.2341
21133W        W36602   0.483  11.131   0.489 -0.1576  0.0202 -0.3851
21134W        W36603  12.617  18.094  10.782 -0.4424  0.2053 -0.1815
21135W        W36604  11.300  15.879  10.321 -0.2520  0.0461  0.0983
21136W        W36605   9.178   8.804  12.069 -0.1533 -0.0947  0.0369
21137W        W36606  11.217   4.200  15.310 -0.2212 -0.0642  0.0900
21138W        W36607  18.122   3.732  15.085 -0.0171  0.2939  0.2213
21139W        W36608  12.658  10.111   2.624 -0.1030 -0.0230  0.0961
21140W        W36609   1.766  17.888  15.029 -0.4148 -0.1721 -0.3073
21141W        W36610   3.673   7.455   4.793 -0.2288  0.2097  0.0056
21142W        W36611  14.154  14.609  11.730  0.1521  0.1994  0.3283
21143W        W36612  15.205   3.165  10.159 -0.0266 -0.1238 -0.1353
21144W        W36613  10.490  12.413   5.350 -0.0114  0.1416 -0.0363
21145W        W36614  17.357   2.118   2.087  0.4844  0.1640  0.1890
21146W        W36615   8.197  14.355  12.981  0.4248 -0.0102 -0.2430
21147W        W36616  17.638  19.003   1.133  0.1325  0.0060 -0.1246
21148W        W36617  16.652   9.754  11.018 -0.1519  0.0142  0.4197
21149W        W36618   3.461  12.836  12.061 -0.4044 -0.0885 -0.0604
21150W        W36619  12.351   2.631   0.389  0.2459 -0.1778  0.0812
21151W        W36620   5.456  10.109  10.895  0.2291 -0.0269  0.0196
21152W        W36621  18.542  12.824   5.721  0.0410  0.0534  0.0971
21153W        W36622   8.447   0.730  15.251 -0.0041 -0.2370  0.4138
21154W        W36623   5.213  11.758   1.909  0.0016  0.1376  0.1275
21155W        W36624  12.917  13.082   0.745  0.1171 -0.1555  0.2657
21156W        W36625   1.656   1.498   4.653 -0.0384 -0.0830 -0.1417
21157W        W36626   0.429   7.727   3.825 -0.2670 -0.0330  0.0754
21158W        W36627   5.614   2.130  13.000 -0.0728  0.3597 -0.1082
21159W        W36628   1.491  12.986  14.094 -0.0470  0.1790 -0.3303
21160W        W36629  11.855   8.371  11.279  0.0029  0.0195 -0.0455
21161W        W36630  11.204   5.500  10.608  0.0110 -0.2264  0.0807
21162W        W36631   5.775  10.514   4.760 -0.3283 -0.0906  0.0300
21163W        W36632  13.477  18.215   0.264  0.0121  0.3893 -0.2471
21164W        W36633  15.102  10.804   1.369  0.0536 -0.0756  0.0277
21165W        W36634   7.084   2.704   2.018  0.3821  0.0991  0.0536
21166W        W36635   8.138   6.796  11.258  0.1757  0.3691 -0.0957
21167W        W36636   2.067  17.209   1.911 -0.1560 -0.2697  0.1603
21168W        W36637   1.427  18.136  10.762  0.0740  0.0690  0.2778
21169W        W36638   9.307  17.456  13.209  0.0670  0.1435 -0.3828
21170W        W36639   2.144  13.312   2.047 -0.1230  0.1970 -0.4229
21171W        W36640  15.702   8.791   2.853 -0.2338  0.0771  0.1574
21172W        W36641  18.189  14.608  11.725 -0.2857  0.1845  0.1552
21173W        W36642   4.292   1.050  10.147  0.0215 -0.0815  0.1310
21174W        W36643  18.912  12.327  14.613 -0.0012  0.1341 -0.0055
21175W        W36644  11.561   3.650  11.022 -0.1501 -0.0086 -0.0630
21176W        W36645   3.621   6.367   1.604 -0.2803 -0.6793  0.1896
21177W        W36646   6.948  14.733  14.566 -0.0717 -0.1530 -0.0987
21178W        W36647  13.386  14.055   1.789 -0.3283 -0.3662 -0.0169
21179W        W36648  10.208   1.047   5.529 -0.0342  0.3324  0.0311
21180W        W36649  10.818   3.681   2.711  0.1935  0.1060 -0.4734
21181W        W36650  13.464  18.562  12.517 -0.1651  0.0461 -0.0829
21182W        W36651   8.319  11.598   3.571  0.3356 -0.0003 -0.0784
21183W        W36652   6.784  15.013   0.728 -0.0785  0.0552  0.0166
21184W        W36653   1.286   8.037   0.349 -0.2852  0.1873  0.1137
21185W        W36654  15.771  14.911   4.904  0.0415  0.0016 -0.2206
21186W        W36655   9.482  16.688   0.670  0.1919 -0.0982 -0.0899
21187W        W36656  12.350   9.704  15.139  0.0710  0.3603  0.1791
21188W        W36657   9.140  17.012  11.902 -0.1819  0.0411  0.0807
21189W        W36658  10.038  10.474  14.132 -0.3063  0.0775 -0.0614
21190W        W36659   5.386   7.561   2.464  0.1298  0.1428 -0.0422
21191W        W36660   3.587   1.538   5.959 -0.1526 -0.1593  0.2118
21192W        W36661  15.699  12.025  14.559  0.0657 -0.0904  0.1814
21193W        W36662  15.734  18.249  11.425 -0.4217  0.0166 -0.0102
21194W        W36663   0.634   2.996   3.178  0.0010  0.3751 -0.3185
21195W        W36664  18.570   8.534   0.652 -0.0067  0.0488  0.1543
21196W        W36665   6.120  15.480  11.131 -0.4282 -0.0303 -0.0729
21197W        W36666  14.350  13.004   1.484  0.1578  0.1446  0.1931
21198W        W36667   4.291  11.106   4.317 -0.1912  0.0794 -0.2682
21199W        W36668  14.107  16.875   0.994  0.0733 -0.3489  0.0920
21200W        W36669   9.403  10.244   4.448 -0.0597  0.1421  0.0139
21201W        W36670  11.752  14.140   3.428 -0.2438 -0.0069 -0.2234
21202W        W36671   7.313   0.176  12.533  0.0371 -0.3155  0.3654
21203W        W36672  10.697   3.037  10.293 -0.2218  0.3568 -0.0496
21204W        W36673   9.870   5.386   4.702 -0.0013 -0.0340  0.1103
21205W        W36674  10.671   1.014  14.167 -0.0514  0.2717  0.2295
21206W        W36675   9.127   5.104  11.469  0.2860  0.0234 -0.2409
21207W        W36676   4.951  10.876   0.654  0.0838  0.1477  0.0911
21208W        W36677  15.967   7.904   4.402 -0.2262  0.0072  0.1581
21209W        W36678   1.890   9.237  11.235  0.0135  0.1744 -0.0817
21210W        W36679  14.148   6.948   4.189  0.0671  0.0978 -0.1938
21211W        W36680   2.230   1.540   0.010  0.1639  0.0226 -0.0974
21212W        W36681  10.233   6.658   3.440  0.0182 -0.1983 -0.2670
21213W        W36682   6.000   7.837  11.805  0.0544 -0.0543  0.1814
21214W        W36683   4.746   2.420  10.620  0.1660  0.1459 -0.0249
21215W        W36684   2.996   5.734  14.355  0.0586 -0.2013 -0.2747
21216W        W36685   8.475   0.766  12.697 -0.0982  0.2192 -0.0232
21217W        W36686   9.579   0.782  14.641  0.1368 -0.0970  0.0087
21218W        W36687   3.593   8.935   9.469 -0.1438 -0.0281  0.2941
21219W        W36688  16.687   3.780  12.119 -0.1732 -0.2840  0.3144
21220W        W36689  10.261  14.770   3.559 -0.0173  0.0441 -0.0277
21221W        W36690  15.398   4.879  11.956  0.0405 -0.0216  0.1538
21222W        W36691   1.764  11.737   1.189  0.2719  0.0121  0.1927
21223W        W36692   8.669   3.963   0.004 -0.1305  0.1622 -0.0744
21224W        W36693   9.620  17.812   3.262  0.1111 -0.1079  0.0021
21225W        W36694  10.739   8.759  13.573 -0.2073 -0.1464  0.0442
21226W        W36695  12.754   2.084  13.901  0.0776  0.1436  0.2462
21227W        W36696  16.668   5.796  13.089  0.0239 -0.2017 -0.2396
21228W        W36697  17.575   8.633   0.704  0.1756 -0.3583  0.2774
21229W        W36698   0.196   3.651  11.081 -0.1033  0.0119  0.2974
21230W        W36699  10.035   5.578  12.451  0.1371 -0.3538  0.0590
21231W        W36700   3.479   0.794   3.634 -0.2171 -0.2039  0.0990
21232W        W36701   5.990   8.019  10.771 -0.0276 -0.2580 -0.2195
21233W        W36702   8.091   2.819  13.692 -0.0550  0.0992 -0.0487
21234W        W36703   7.493  12.177   3.373 -0.2235 -0.0620  0.2954
21235W        W36704   3.457   9.743   0.062  0.1772  0.0586 -0.1128
21236W        W36705  13.457   5.993  14.844  0.2675 -0.1761  0.0103
21237W        W36706  19.030   7.169   5.813  0.2724 -0.1604 -0.0874
21238W        W36707  11.877  18.000   0.169  0.3090  0.1054 -0.0936
21239W        W36708  14.244   3.374  14.641  0.2846  0.1079  0.2955
21240W        W36709   4.212  12.684   1.362 -0.1209  0.0359  0.1263
21241W        W36710  10.066   7.920  14.038  0.0366 -0.0056  0.0529
21242W        W36711   7.745  14.246   5.442 -0.1510 -0.1070  0.0036
21243W        W36712  13.753   6.798   3.185  0.0964  0.1545  0.1162
21244W        W36713  11.927   6.973   4.519 -0.2410 -0.0930  0.0194
21245W        W36714  13.111   5.238  11.584 -0.2408  0.2444  0.0216
21246W        W36715  17.376  12.601   4.467 -0.0052 -0.0589  0.2438
21247W        W36716  18.383  15.822   4.291  0.0633  0.0643 -0.0116
21248W        W36717   1.210   8.106  14.728 -0.0356  0.0636  0.1419
21249W        W36718   4.682  13.793  11.401  0.0135  0.0395 -0.0431
21250W        W36719  18.170   8.375   3.467 -0.0553  0.2749 -0.0695
21251W        W36720  15.084  11.555  13.559 -0.0304  0.0278 -0.2082
21252W        W36721  17.337  10.277   4.927 -0.1105 -0.0030 -0.1738
21253W        W36722   1.381   5.768  12.830 -0.0517  0.0069 -0.1631
21254W        W36723   7.376  12.063  12.171 -0.1688  0.1539 -0.2506
21255W        W36724   7.634   5.280   3.149  0.0765 -0.1879 -0.1274
21256W        W36725   2.222   4.031   3.912  0.1746  0.2412  0.0790
21257W        W36726   8.870   2.057  12.551  0.2583 -0.0350 -0.1677
21258W        W36727   1.432   0.829  14.246  0.0252 -0.0394  0.2886
21259W        W36728  10.482   3.736   5.901 -0.2127 -0.0129 -0.0628
21260W        W36729   1.399  18.035  14.667  0.0044 -0.0293  0.1429
21261W        W36730  14.140   4.245  13.002  0.0304 -0.0518 -0.1685
21262W        W36731  10.589  14.500   2.729 -0.1212  0.1001  0.0418
21263W        W36732   0.990   7.042   2.625 -0.6682 -0.0669 -0.0394
21264W        W36733   1.643   8.006   1.835  0.1980  0.0396  0.0366
21265W        W36734  17.023   2.897   5.591 -0.1302 -0.0576 -0.1652
21266W        W36735  16.477  16.657  12.212  0.0748 -0.1071  0.1156
21267W        W36736  14.086   5.866  10.650 -0.3354  0.2380  0.0227
21268W        W36737  10.003   6.396   1.695 -0.1194  0.1983  0.0022
21269W        W36738   8.404  17.464   3.123  0.1840 -0.2156 -0.2303
21270W        W36739  14.846   4.313  10.940 -0.1997 -0.2634 -0.1839
21271W        W36740   9.204   2.136   6.162 -0.0440  0.1883 -0.1356
21272W        W36741  15.830   2.462  15.152 -0.2219  0.1514 -0.0914
21273W        W36742   4.469   4.406  10.022 -0.0014  0.1423 -0.2958
21274W        W36743  15.707   1.028  15.289 -0.2416 -0.1443  0.3590
21275W        W36744  13.249   4.045  12.815  0.0065 -0.2276  0.2217
21276W        W36745   8.002  18.568   1.456 -0.2745  0.1822  0.1523
21277W        W36746   1.969   5.371   1.698  0.2033 -0.1897  0.1501
21278W        W36747   9.215   3.032   2.724 -0.2249 -0.0187  0.3512
21279W        W36748   2.028   8.498  14.358  0.0150  0.1397  0.2932
21280W        W36749  18.190   7.526   2.925 -0.0582  0.1027 -0.1922
21281W        W36750   2.591   6.236  15.219  0.0130 -0.3000  0.1068
21282W        W36751  12.077   9.942   1.497  0.2263  0.2340  0.1234
21283W        W36752   5.121  14.726  11.120 -0.2364  0.0008  0.1610
21284W        W36753   9.079  11.692   2.722  0.0837  0.2082  0.2170
21285W        W36754   0.859   2.983  11.316  0.1529 -0.1453  0.0063
21286W        W36755  12.653  10.826  13.288 -0.0763 -0.0737 -0.0049
21287W        W36756   6.150  15.660   1.786 -0.0410 -0.1822 -0.2442
21288W        W36757   0.017   3.268  11.842  0.2298  0.3559 -0.0403
21289W        W36758  15.513  11.835   2.979  0.0333  0.1713 -0.6318
21290W        W36759  10.286   4.088   4.591  0.2375 -0.1266 -0.1699
21291W        W36760  14.441   9.557  12.571  0.1843 -0.0526 -0.1065
21292W        W36761  17.492   6.382  13.595  0.3621 -0.1254 -0.0834
21293W        W36762   3.178   0.495  12.922  0.1066 -0.0057  0.0881
21294W        W36763   5.120   8.310  11.505  0.3559  0.0919  0.1433
21295W        W36764   1.162  16.491  15.026  0.0453 -0.3802 -0.1030
21296W        W36765  16.926  11.065  11.284  0.0413  0.2611 -0.2360
21297W        W36766   1.818   6.740   0.497  0.1865 -0.4583 -0.1641
21298W        W36767  11.012  17.244   1.724  0.1346 -0.2194  0.0838
21299W        W36768  16.328   5.519  13.412  0.1504 -0.1019 -0.1505
21300W        W36769  12.896   1.269  11.140  0.4151  0.4394 -0.1078
21301W        W36770  11.946  18.467   5.851  0.0484  0.1112 -0.0949
21302W        W36771  17.309  14.530   3.587  0.3429 -0.2084  0.1239
21303W        W36772   1.998   5.007  11.099  0.3142  0.2488  0.2268
21304W        W36773  11.821   1.268  11.308 -0.1948  0.0108 -0.2941
21305W        W36774  12.618   0.129   1.273  0.4235  0.0124 -0.4174
21306W        W36775  16.049   4.191  10.321  0.1506 -0.1507 -0.0875
21307W        W36776   8.101   0.941   0.264  0.1164 -0.3010 -0.2399
21308W        W36777   0.004  15.823  14.653  0.1216 -0.0736  0.0457
21309W        W36778   6.372  10.840  14.494  0.2969 -0.1756  0.1275
21310W        W36779  10.171  10.972  14.065  0.1804  0.1493 -0.1462
21311W        W36780   9.867   4.379  11.425 -0.1655 -0.0052  0.1213
21312W        W36781  19.029   8.637   3.909 -0.0028 -0.3802 -0.2075
21313W        W36782   3.258  16.919   4.461 -0.2141  0.1144 -0.2276
21314W        W36783  11.634   6.807   0.460 -0.0716  0.2500 -0.1778
21315W        W36784  17.708  13.894   1.092 -0.1621  0.1645 -0.1029
21316W        W36785   3.001  18.147   2.966  0.2594 -0.3603 -0.2690
21317W        W36786  13.526  14.283  10.613  0.0361 -0.0522 -0.0963
21318W        W36787  13.088  10.849   1.718 -0.1124 -0.0202  0.2395
21319W        W36788   3.864   2.302   0.030 -0.0773 -0.1266 -0.1233
21320W        W36789   3.157   6.721   3.189  0.4485 -0.1105  0.2938
21321W        W36790   5.596  16.324   1.657  0.0186 -0.0464  0.0414
21322W        W36791  12.563  11.677  14.322  0.1381  0.3213  0.2897
21323W        W36792  16.096  14.947  11.890 -0.1010 -0.0854  0.2305
21324W        W36793   2.250   1.609  10.762  0.3381  0.0160 -0.0354
21325W        W36794   6.543   4.978  13.138  0.0790 -0.2391  0.1518
21326W        W36795  14.719  11.497  14.630 -0.0274 -0.0107  0.1683
21327W        W36796   1.020  10.747   2.170 -0.0514  0.0558  0.0680
21328W        W36797  14.392  16.340   2.670 -0.0828  0.2903  0.0478
21329W        W36798  17.845  10.051   3.708 -0.0852 -0.2108 -0.2866
21330W        W36799  14.080  17.913  15.218  0.0951 -0.2090 -0.2048
21331W        W36800   2.555  15.451  10.214  0.1771  0.0734  0.0360
21332W        W36801  10.853   2.488   0.336 -0.0004  0.0915 -0.0615
21333W        W36802   6.828  11.450   3.661 -0.1071 -0.2401 -0.1435
21334W        W36803  16.454   9.684   4.513  0.0708  0.0843 -0.1312
21335W        W36804   8.098   5.067  15.071 -0.3982  0.2330  0.0642
21336W        W36805   1.630   0.156  12.424  0.1727 -0.1150  0.2174
21337W        W36806  15.312   4.385  15.193 -0.2644 -0.2885 -0.0629
21338W        W36807   7.331  16.925   5.366  0.0183  0.1289 -0.0888
21339W        W36808   9.591   8.488  10.326  0.0360 -0.0058  0.2788
21340W        W36809  14.176   8.652  15.073  0.0714  0.0031  0.2629
21341W        W36810   0.856  12.157  14.411  0.2439 -0.1014  0.1521
21342W        W36811  14.472   6.744  11.701  0.0060  0.1201 -0.1562
21343W        W36812  10.284  15.529  11.878  0.0826  0.2833 -0.2010
21344W        W36813  16.563   8.825  10.239 -0.1397 -0.0221 -0.1190
21345W        W36814  17.730  18.139  11.475 -0.2668 -0.1316 -0.2765
21346W        W36815  17.824   1.914   3.692  0.1803  0.0962 -0.2221
21347W        W36816  14.133  13.973   0.496  0.0193 -0.1111 -0.0619
21348W        W36817   6.444  12.316  13.771  0.2102 -0.0071 -0.0082
21349W        W36818  10.645   9.354   3.280 -0.0164  0.1716  0.2758
21350W        W36819   3.929  11.002   9.568 -0.0726 -0.0994  0.2241
21351W        W36820   2.942   8.902   4.691  0.1030  0.2332 -0.0985
21352W        W36821  16.963   1.246  11.688  0.4020 -0.3756 -0.0352
21353W        W36822  14.350   1.614  12.112 -0.0706  0.1208  0.1871
21354W        W36823   3.380  17.358  12.179  0.0099 -0.0122 -0.1537
21355W        W36824  16.913   8.916  10.550  0.1923 -0.0097  0.1309
21356W        W36825  13.972  13.568  14.012  0.1546 -0.0456 -0.0592
21357W        W36826   1.421   8.606   4.876  0.2177  0.3957  0.1768
21358W        W36827   5.953   8.521  13.443  0.1332  0.0556  0.0786
21359W        W36828   1.621  15.942   2.243  0.1604 -0.0872  0.2545
21360W        W36829  11.542  11.791   3.126  0.0079 -0.0300  0.0729
21361W        W36830   3.482   7.697  13.522 -0.2468 -0.2256  0.1059
21362W        W36831   3.316  18.646   3.787 -0.0804  0.1926  0.0365
21363W        W36832   2.613  15.345   3.320 -0.0475 -0.0402  0.1083
21364W        W36833  15.267  16.771   2.141 -0.3328 -0.0818 -0.1700
21365W        W36834  14.337  12.772   0.603  0.1665  0.1824  0.1802
21366W        W36835  17.319  11.865  12.357  0.1706  0.1633 -0.2646
21367W        W36836  11.507   1.393   4.285  0.0984 -0.0495  0.0310
21368W        W36837  12.659   1.220  12.729  0.1213  0.1372  0.0471
21369W        W36838   9.230   2.279   1.902 -0.0681 -0.2154  0.3634
21370W        W36839   5.872   4.388   1.795  0.2630  0.0368 -0.3634
21371W        W36840   0.254   3.863   1.296  0.0693 -0.1279 -0.0959
21372W        W36841  15.436   5.899  10.626  0.0477 -0.0773 -0.1345
21373W        W36842   2.862  10.311   5.429 -0.2942  0.0799  0.2317
21374W        W36843   6.303   4.310  10.222  0.0151 -0.1396  0.2484
21375W        W36844  11.742  14.815  15.356 -0.0511 -0.1469 -0.0757
21376W        W36845   1.123  16.159  14.596 -0.0334 -0.0915 -0.1309
21377W        W36846   8.435  12.258   1.926 -0.2606  0.3620 -0.0910
21378W        W36847  12.713   8.668  11.395  0.0389  0.0024 -0.0329
21379W        W36848  16.680   7.525   3.722  0.0943  0.4807 -0.4191
21380W        W36849  16.164  12.556   0.655 -0.0335  0.0633 -0.2028
21381W        W36850  16.708  11.862   2.363  0.2616  0.3109  0.0413
21382W        W36851  13.887   0.332   5.077 -0.2318 -0.0572 -0.2134
21383W        W36852   4.234  17.674   4.851  0.4989 -0.2402 -0.1618
21384W        W36853  15.650  18.255  12.506  0.1222 -0.2594  0.3252
21385W        W36854   9.291  15.295   2.716  0.1025 -0.2239  0.0045
21386W        W36855   5.585   4.074  13.175 -0.1844  0.0063 -0.2592
21387W        W36856   6.381  16.334  11.562 -0.3286 -0.1388 -0.5222
21388W        W36857   9.630   6.539   0.748  0.1598 -0.1276  0.3014
21389W        W36858   7.288  12.903  12.174  0.0016 -0.0243 -0.2923
21390W        W36859   1.712  16.155   4.583  0.1241 -0.1659  0.0878
21391W        W36860   1.988  15.386  15.262  0.1030  0.0277  0.0921
21392W        W36861   4.985   5.051  12.842  0.0810 -0.2306  0.2506
21393W        W36862  10.223  16.398   1.533 -0.1616 -0.1823  0.2107
21394W        W36863   8.368   6.520   9.952 -0.0212  0.0271  0.1381
21395W        W36864  12.303  17.775   2.579  0.2765 -0.2662 -0.1771
21396W        W36865   3.313  18.786   5.532 -0.0219 -0.3698  0.0373
21397W        W36866  16.662  14.057   4.611 -0.1360  0.0536 -0.1699
21398W        W36867  15.901   3.842  14.241 -0.1268 -0.0347  0.0400
21399W        W36868  16.330  11.545  11.043 -0.0151 -0.4536  0.1097
21400W        W36869   8.850  15.237  13.559  0.5209  0.1542  0.0169
21401W        W36870  13.194  14.278   0.187 -0.1252  0.3278 -0.2340
21402W        W36871   7.143   7.367  12.947 -0.0935  0.1736 -0.4233
21403W        W36872  18.344   4.309   1.041  0.0752 -0.2732 -0.0292
21404W        W36873   2.947   7.119  13.175  0.1353  0.1032 -0.0623
21405W        W36874   8.553   2.963  12.009 -0.6447  0.1534 -0.1908
21406W        W36875   7.672  18.371   1.070 -0.0288  0.1672  0.0029
21407W        W36876  17.324   3.172  15.251  0.0294  0.1233 -0.1293
21408W        W36877   4.568  15.729  13.638  0.1816 -0.0707  0.1655
21409W        W36878  15.680   7.848  12.535 -0.2102  0.3204 -0.1434
21410W        W36879  15.696  13.110   5.242 -0.0490  0.3087  0.2175
21411W        W36880   3.528   3.429   4.886 -0.2817 -0.1381 -0.1260
21412W        W36881  18.668   9.306   4.399  0.3738  0.1820  0.1181
21413W        W36882  16.245  13.987   6.055  0.0542 -0.0306  0.0214
21414W        W36883  14.768  15.710  14.388 -0.2670  0.3417 -0.2405
21415W        W36884   4.797  12.408  10.967  0.3248 -0.1797 -0.3110
21416W        W36885  17.439  16.403  12.014 -0.1833  0.1695  0.2602
21417W        W36886   2.880  17.124  14.635 -0.2018 -0.1117 -0.1101
21418W        W36887   2.426  14.178   2.478  0.3307  0.1753  0.0769
21419W        W36888  11.631   4.963  13.101  0.5862  0.0576 -0.1154
21420W        W36889   1.289  13.818   0.939 -0.2043  0.0217  0.0216
21421W        W36890   9.728  13.691   0.538 -0.0205  0.0409 -0.0905
21422W        W36891   2.535  10.207  11.059 -0.1136 -0.0140  0.1621
21423W        W36892  14.753   9.392  14.149  0.0264 -0.1128  0.2207
21424W        W36893  13.710  13.739  11.819  0.3280 -0.2210 -0.2104
21425W        W36894  16.542   5.077   1.494 -0.0620 -0.0752  0.0569
21426W        W36895   8.148   0.045  13.256  0.0264  0.1765 -0.1959
21427W        W36896  14.438  10.332   5.134 -0.2492 -0.2118 -0.0372
21428W        W36897  14.109  14.807   0.805  0.1401  0.1193 -0.0797
21429W        W36898  18.887   0.880  14.408 -0.0996  0.1974  0.1368
21430W        W36899  11.815   6.295  14.404 -0.2383  0.0023  0.4450
21431W        W36900   8.435   2.568  13.172  0.1327  0.3551  0.1101
21432W        W36901  13.782   9.127  12.588 -0.1979  0.0119  0.4807
21433W        W36902  10.965  11.133  13.238  0.0788  0.0703 -0.1329
21434W        W36903   8.617  13.490   4.524  0.3389  0.0133 -0.0648
21435W        W36904  11.729  14.619   2.679 -0.0938 -0.2807 -0.1461
21436W        W36905   1.443  18.511  11.569  0.2454 -0.0467 -0.0877
21437W        W36906  18.980   5.671   5.232  0.2123 -0.1137  0.0622
21438W        W36907  14.149  15.342  14.979 -0.1410  0.1125 -0.2595
21439W        W36908   5.550  18.946  12.187 -0.2196 -0.1332  0.0196
21440W        W36909   3.801  10.482   0.274  0.1028  0.2907 -0.0046
21441W        W36910   4.802  11.459  13.836  0.1767  0.4884 -0.2572
21442W        W36911  18.584   4.550  14.896 -0.2317 -0.0432 -0.1001
21443W        W36912  16.011   2.570   2.722  0.0038 -0.2682 -0.2543
21444W        W36913   9.548  15.992   1.147  0.2850  0.1802  0.0237
21445W        W36914  10.778   3.693  12.242 -0.1833 -0.1457  0.1284
21446W        W36915   1.208   8.970   1.510  0.0310 -0.0009 -0.1199
21447W        W36916   9.020  18.959  12.667 -0.0169 -0.0301  0.4472
21448W        W36917   5.345  17.351   0.579 -0.0475  0.3376  0.5748
21449W        W36918   3.781  14.670  11.711 -0.3220  0.1419  0.1404
21450W        W36919   3.881  14.695  12.709 -0.1754 -0.0205  0.1380
21451W        W36920   2.018  10.940   3.281 -0.3219  0.0633 -0.0843
21452W        W36921   1.240   1.517   5.127  0.0415  0.0705  0.0546
21453W        W36922   5.085  17.291   1.248 -0.1815  0.0463  0.0081
21454W        W36923  12.686  11.279  13.997 -0.1064 -0.0927 -0.0031
21455W        W36924  18.877   3.388   3.568 -0.0268  0.0721 -0.0646
21456W        W36925   1.882   3.413  14.619  0.0282  0.0534  0.2246
21457W        W36926   6.747   6.575  11.738  0.0322 -0.0569 -0.1777
21458W        W36927   0.953   2.531   3.090 -0.0404 -0.2015 -0.0699
21459W        W36928  13.248  18.087  11.870  0.0226 -0.0358 -0.0094
21460W        W36929  10.621  17.279  14.139 -0.0248  0.0773  0.0213
21461W        W36930  10.415   7.713  13.075 -0.1422 -0.5011  0.1363
21462W        W36931   0.058  15.763   2.194 -0.0028  0.0573  0.0149
21463W        W36932  17.672   7.374   4.079 -0.1189 -0.0056 -0.2132
21464W        W36933  18.491   0.647   1.603  0.1769 -0.1396 -0.3267
21465W        W36934   8.635  12.035   3.926  0.0634 -0.0914 -0.3093
21466W        W36935   1.721   0.910   4.496 -0.1667 -0.2244 -0.0415
21467W        W36936  10.441   2.676   1.274  0.1229  0.1354 -0.1355
21468W        W36937   0.912   7.689  13.174  0.1148 -0.0414  0.1995
21469W        W36938   4.946  14.334  13.628 -0.0735 -0.2986 -0.0808
21470W        W36939  16.221  17.701  10.820  0.1497 -0.2091 -0.0398
21471W        W36940  12.545  14.199   9.251  0.0495 -0.0297  0.1588
21472W        W36941   2.270  14.729   5.622  0.0245 -0.0888  0.3482
21473W        W36942  18.022  12.246   2.822  0.3345 -0.0244  0.1187
21474W        W36943   5.559   1.653  14.764  0.0649 -0.2693  0.1064
21475W        W36944   2.173   9.953   0.768 -0.2202 -0.0853 -0.0340
21476W        W36945   4.454  18.900  14.687  0.1185  0.0254 -0.0106
21477W        W36946  13.897   8.773   0.158 -0.0659  0.1952  0.1668
21478W        W36947   2.354  15.485   2.864 -0.1964  0.1003  0.7312
21479W        W36948  15.992   8.114   0.686 -0.1800 -0.0067 -0.0190
21480W        W36949   7.025   6.465   4.196 -0.4020  0.0854 -0.2313
21481W        W36950  12.268   2.382   3.234  0.0319  0.3267  0.3510
21482W        W36951  14.509  14.280   2.757  0.1978  0.1531  0.0314
21483W        W36952  10.065  15.713  11.379 -0.0855 -0.2643 -0.1454
21484W        W36953   0.914  12.123  11.747 -0.1402 -0.0128  0.2475
21485W        W36954   5.446   7.444   1.110 -0.1698  0.3897 -0.3811
21486W        W36955  15.926  11.694  10.679 -0.1229 -0.1256  0.0095
21487W        W36956  18.563   8.931  14.375 -0.1422  0.1530 -0.2519
21488W        W36957   8.154  17.589   4.934  0.1571 -0.1813  0.2151
21489W        W36958   5.699  11.602   0.388  0.1510 -0.2875 -0.0783
21490W        W36959   1.698   6.480  11.172 -0.0111  0.1343 -0.3253
21491W        W36960   0.120  13.555   0.592  0.0440  0.0678 -0.1939
21492W        W36961   4.186  12.181  10.376  0.0734  0.0432  0.0088
21493W        W36962   1.767   8.757  12.486  0.1280 -0.0256 -0.1892
21494W        W36963   8.487   2.705  14.073  0.2687 -0.2725  0.0536
21495W        W36964  14.692   1.655  10.054  0.1049 -0.0892 -0.1121
21496W        W36965  11.241  18.346   5.357  0.3220 -0.5261 -0.1029
21497W        W36966  16.763  13.165   2.822 -0.0458 -0.0231  0.0135
21498W        W36967  13.022  11.676  11.699  0.3007 -0.0140 -0.0108
21499W        W36968   9.683  13.238   3.603 -0.2473  0.0679 -0.2405
21500W        W36969  11.603   4.116  14.566 -0.3064  0.0689 -0.1474
21501W        W36970   4.674   9.329  11.844  0.1082  0.0657 -0.1229
21502W        W36971   9.213   8.235  10.191 -0.0003  0.1394 -0.1110
21503W        W36972  15.118   0.027  11.556  0.1139  0.1482 -0.1995
21504W        W36973   1.453  12.094  14.647 -0.1565 -0.0115 -0.0334
21505W        W36974   3.333  17.386   4.842 -0.2964  0.2150 -0.1967
21506W        W36975   8.780  10.770   4.286 -0.4047 -0.1793 -0.0184
21507W        W36976   0.808  18.682  12.177 -0.0075  0.2049  0.2630
21508W        W36977   3.507  15.090  12.597  0.0215 -0.1554  0.1163
21509W        W36978  15.593   0.397  10.796 -0.1691 -0.1739  0.0660
21510W        W36979   9.434   0.652  14.080  0.1455 -0.1449 -0.2743
21511W        W36980  10.599   9.010  11.271  0.0729 -0.5105  0.2008
21512W        W36981  14.849   0.210   4.510  0.0229  0.0957 -0.4862
21513W        W36982   9.403   5.005  14.048 -0.1770 -0.1863 -0.0261
21514W        W36983   4.812  17.488   5.514 -0.0229  0.0862  0.0284
21515W        W36984   5.741   5.653   2.986 -0.5623  0.1251  0.1881
21516W        W36985   0.180   1.801  10.441  0.0326  0.1460 -0.3190
21517W        W36986   1.879  14.792  10.812  0.1896 -0.0807  0.0012
21518W        W36987  13.262   3.813  12.087 -0.1811  0.0231 -0.3984
21519W        W36988  10.957  10.826  11.710 -0.1616  0.0645 -0.0789
21520W        W36989  14.298  11.812  14.656  0.0948  0.0822  0.0462
21521W        W36990  16.432  14.027  13.796  0.0326 -0.0806 -0.2413
21522W        W36991   3.022   6.104   2.955 -0.2092 -0.0446 -0.0831
21523W        W36992  13.771  18.998  15.083 -0.1121 -0.0210 -0.3065
21524W        W36993  15.978  11.906  11.189 -0.0894 -0.0987 -0.0469
21525W        W36994   5.844  13.669  11.089 -0.1703 -0.4286  0.1383
21526W        W36995  10.395   3.624   1.578 -0.2496 -0.1013 -0.1861
21527W        W36996  11.882  10.843   0.859 -0.1261 -0.3911 -0.0903
21528W        W36997   5.589   3.272   0.256  0.0080  0.0953 -0.0680
21529W        W36998  12.788   0.124   5.057  0.2977 -0.4284 -0.2898
21530W        W36999  12.887   6.713  13.475  0.2466  0.1902  0.1008
21531W        W37000   3.371  17.653   5.615 -0.3298  0.0537 -0.1075
21532W        W37001  11.504  11.400  15.062 -0.1412 -0.0966 -0.2168
21533W        W37002   1.002   1.502   9.516  0.0341  0.1237  0.1720
21534W        W37003  12.060  15.990  12.447  0.2692 -0.1283 -0.2329
21535W        W37004  13.988   2.721   1.811 -0.0414 -0.1508 -0.0183
21536W        W37005  17.332   9.301  14.399  0.0181 -0.1013 -0.1386
21537W        W37006   2.041  16.780   0.317 -0.0489  0.1859  0.1072
21538W        W37007  17.986   0.822   3.910 -0.1701 -0.2791  0.0277
21539W        W37008  17.156  12.298  11.144  0.1464  0.0024 -0.2413
21540W        W37009   8.423   9.702   3.492 -0.1715  0.1363  0.0158
21541W        W37010   0.493   6.182  10.711  0.1171  0.3938  0.2445
21542W        W37011   7.573   1.425  11.436 -0.1092  0.2123 -0.2560
21543W        W37012   1.320   4.315   2.336  0.2873 -0.3753 -0.4489
21544W        W37013  13.611  10.215   9.414  0.2864  0.2266 -0.1437
21545W        W37014   5.366  15.911   1.306  0.1824  0.1040  0.1070
21546W        W37015   6.446   5.245   4.783 -0.0966 -0.0975 -0.1880
21547W        W37016   1.980  11.674   9.799  0.0960  0.2100 -0.0300
21548W        W37017   0.562  18.807  10.702 -0.0349 -0.3666 -0.1800
21549W        W37018   2.250   8.477   2.823  0.1656 -0.1203 -0.1118
21550W        W37019   5.976   7.514   1.279  0.4237 -0.0778 -0.0846
21551W        W37020   9.634  14.014  14.676  0.2445 -0.0887 -0.2156
21552W        W37021  14.138  13.458   1.344  0.2135 -0.3893 -0.0374
21553W        W37022   8.912  15.772   2.721  0.2570 -0.2524  0.0687
21554W        W37023  17.636  15.875   3.533 -0.0018  0.1100  0.1768
21555W        W37024  10.112   1.701  14.665  0.1344 -0.2730 -0.3997
21556W        W37025  11.829  15.088   0.869  0.1439 -0.0661  0.1229
21557W        W37026   6.797   8.222   4.008 -0.1853 -0.0966  0.0962
21558W        W37027   6.300  18.365   4.886 -0.2790 -0.1142  0.0139
21559W        W37028   5.886   4.766   0.978  0.2084  0.0881  0.1815
21560W        W37029   4.033   4.290   0.628 -0.1756  0.1426  0.0008
21561W        W37030  16.991  16.676  10.420 -0.1131  0.0814  0.1945
21562W        W37031   2.878  13.965  13.904 -0.1438  0.1761 -0.2022
21563W        W37032   1.818   2.536  14.388  0.1854 -0.0001  0.1497
21564W        W37033   0.509  13.850  12.253  0.3750  0.0786  0.0991
21565W        W37034  14.977   5.450   9.795 -0.4182  0.0858  0.2115
21566W        W37035  12.064   6.233   2.155  0.1218 -0.0881 -0.0675
21567W        W37036  15.714  12.893   1.965 -0.0511  0.3070  0.0781
21568W        W37037  11.205   0.874  12.049 -0.1105 -0.2047 -0.0512
21569W        W37038  11.098   4.187  13.040 -0.1237 -0.1135  0.0003
21570W        W37039   5.323   5.957   3.556 -0.1843  0.4582 -0.1879
21571W        W37040  15.862   7.688   2.934  0.1614  0.1457 -0.3452
21572W        W37041   0.214  14.237  15.296  0.0824 -0.0129  0.1890
21573W        W37042   3.637  14.464   3.635  0.1615  0.2616  0.0387
21574W        W37043   1.101   5.556  13.684  0.2255  0.0803 -0.4038
21575W        W37044  10.590   1.971  12.484 -0.1001 -0.3061 -0.2104
21576W        W37045   8.018  16.925  13.160  0.0490  0.2234  0.2166
21577W        W37046   6.131  18.146  13.328 -0.0075 -0.2430  0.3192
21578W        W37047  17.255  18.442   4.773  0.0402  0.3342  0.1546
21579W        W37048   6.568   3.464  11.863  0.0309  0.2529  0.0289
21580W        W37049  11.393   8.798   1.105  0.0814  0.2974 -0.1695
21581W        W37050   2.281   9.804   3.617  0.2254 -0.1208  0.1403
21582W        W37051  18.255   7.952   3.656  0.2025  0.1657 -0.0756
21583W        W37052   3.482  16.846  14.407 -0.0392 -0.2008  0.0970
21584W        W37053  12.686  18.456   0.643  0.0052  0.0254 -0.0690
21585W        W37054   0.595  12.550   1.233 -0.0789 -0.2022  0.1819
21586W        W37055  14.159   6.544  13.899  0.0741 -0.1590 -0.0495
21587W        W37056  14.030  13.711  15.357  0.2067  0.0243  0.0062
21588W        W37057  16.223   0.353   4.028 -0.0076 -0.3011  0.1414
21589W        W37058  15.601   2.973  12.781 -0.4670 -0.3964 -0.0274
21590W        W37059  10.420  17.546   4.353  0.0007 -0.0633 -0.0140
21591W        W37060  18.054   9.721  11.848 -0.0043 -0.3536 -0.1250
21592W        W37061   5.050   1.894  13.940  0.0484 -0.3696 -0.3066
21593W        W37062  16.523  15.280   2.792 -0.0034 -0.2513 -0.1749
21594W        W37063   0.071  14.633   9.452  0.1310  0.0798  0.1704
21595W        W37064  15.325   6.027  10.183  0.0407 -0.2737  0.3399
21596W        W37065  15.263   6.445  12.917  0.1883 -0.4591 -0.0211
21597W        W37066  13.685   4.434   5.311 -0.2611  0.0653 -0.0488
21598W        W37067   4.581   3.663   1.343 -0.2239  0.1041 -0.1185
21599W        W37068  15.973   3.957   1.959 -0.1767  0.0099 -0.0152
21600W        W37069   0.591   5.622  13.944  0.1247  0.0101  0.0779
21601W        W37070   7.356  13.169   0.753 -0.1784  0.1278 -0.0525
21602W        W37071  17.384   5.463   5.832 -0.1675 -0.3047 -0.0637
21603W        W37072  15.632  17.702  12.298 -0.0381 -0.4230  0.2572
21604W        W37073  13.067  15.500  11.419  0.1551 -0.1685 -0.3763
21605W        W37074   0.240   2.939   2.827  0.1120 -0.0735  0.0109
21606W        W37075  16.472  18.797  12.269  0.1340 -0.1336 -0.0306
21607W        W37076  18.903  11.168  14.697 -0.1362 -0.1214  0.0760
21608W        W37077   5.317   0.740   2.220 -0.1131 -0.3688  0.0572
21609W        W37078  16.767   5.603   4.643 -0.0942  0.0365 -0.1337
21610W        W37079  14.955  15.276  14.065  0.2057 -0.1702  0.0768
21611W        W37080  12.241  13.766   0.989 -0.1724 -0.2704  0.1982
21612W        W37081   2.008   9.332   4.824  0.0086  0.2975 -0.0924
21613W        W37082   4.352  18.177   4.740  0.1105  0.0893 -0.0851
21614W        W37083   9.766  15.383   3.631  0.0611  0.2727 -0.0132
21615W        W37084  11.907  14.160   2.655  0.0812 -0.0766  0.0332
21616W        W37085   1.378  15.315   3.335  0.1830  0.2439  0.0968
21617W        W37086  14.484   5.977  14.636  0.1138  0.0546 -0.2637
21618W        W37087  18.318   6.653  11.150  0.0098 -0.4660 -0.0099
21619W        W37088   2.640   4.452   0.989  0.0167  0.0425  0.0613
21620W        W37089   0.858   1.079  14.211  0.0688 -0.3934  0.0223
21621W        W37090   7.044  11.239  12.027 -0.1184  0.0427 -0.1723
21622W        W37091   6.433  18.708   5.245  0.3119  0.0726 -0.0569
21623W        W37092   6.557   6.668   1.677 -0.1391  0.0131 -0.1574
21624W        W37093  18.892  10.227  12.135  0.1209  0.4213 -0.4128
21625W        W37094  13.553   2.473   1.579 -0.0989 -0.1827 -0.3673
21626W        W37095   5.996  11.565  12.690 -0.4547 -0.1715  0.2426
21627W        W37096  12.939   6.771   5.414  0.0845 -0.0428 -0.0558
21628W        W37097  13.694   1.995  13.689  0.0809 -0.0478 -0.0554
21629W        W37098  11.349  15.636  14.436 -0.0655  0.0168  0.4383
21630W        W37099  10.420  11.047  10.440  0.0881 -0.2136  0.0481
21631W        W37100   7.522  18.240  11.407 -0.2082  0.1906  0.0783
21632W        W37101  18.279  15.396  13.040  0.0644  0.1721 -0.1978
21633W        W37102   1.883   3.119   9.437  0.0222  0.1319 -0.1038
21634W        W37103  10.605  13.503  13.596 -0.1447 -0.3089  0.1987
21635W        W37104   6.616   9.368  12.861  0.3980  0.0020  0.0352
21636W        W37105   5.383  13.907  15.151  0.3134 -0.1920  0.0584
21637W        W37106  15.189  15.819  15.236  0.0391 -0.0649  0.2684
21638W        W37107  16.091   7.000   4.675  0.0342  0.4036 -0.1977
21639W        W37108   8.397   5.510   1.634  0.1428 -0.0112  0.2387
21640W        W37109   0.001  13.432   1.260  0.0223 -0.0780 -0.0064
21641W        W37110   6.719   0.640  12.671 -0.2936 -0.4812 -0.0060
21642W        W37111  17.021   2.116   4.842 -0.0780 -0.0434 -0.1716
21643W        W37112   8.178  15.159  13.343 -0.1156 -0.0664  0.2461
21644W        W37113   7.718   8.592  14.015 -0.3189  0.1746  0.4432
21645W        W37114   8.303   2.539  10.695 -0.0517 -0.1388  0.1070
21646W        W37115  14.660  18.212  14.460  0.3721  0.0657  0.0380
21647W        W37116  15.699   1.915  11.821  0.3639  0.0700  0.1377
21648W        W37117  13.106   7.454  13.605  0.2742  0.1505 -0.0350
21649W        W37118  13.912  16.499   3.871  0.1052  0.1817  0.4564
21650W        W37119  14.951   1.364   2.461  0.1856  0.0445  0.0704
21651W        W37120  14.441   8.602  13.229 -0.3523 -0.0968  0.1106
21652W        W37121   0.458  14.253   3.305  0.1527 -0.2453 -0.0200
21653W        W37122   4.500  12.123   0.699  0.0244  0.0139  0.1727
21654W        W37123  10.989   5.876  14.523 -0.1268 -0.0208  0.2377
21655W        W37124  17.355   2.815  12.943  0.1093  0.1152  0.1615
21656W        W37125  18.765  18.987  14.455 -0.1811  0.1617  0.1312
21657W        W37126  13.904   5.153  12.630 -0.1376  0.1903  0.0836
21658W        W37127  10.152  10.175   3.601  0.0272 -0.0110  0.1363
21659W        W37128   5.366  18.388  11.092 -0.2098 -0.1393 -0.1248
21660W        W37129   0.496  17.693  12.347  0.2508  0.0227  0.0984
21661W        W37130   2.072  18.979   4.150  0.2777  0.0883  0.0032
21662W        W37131  13.086   0.572   3.361 -0.2260  0.1113  0.4106
21663W        W37132   9.753  18.863   3.661 -0.0029 -0.0118  0.0421
21664W        W37133  10.721   7.713  14.610  0.0383 -0.0964 -0.3455
21665W        W37134   1.432  14.341   2.790  0.0994 -0.0280 -0.2413
21666W        W37135   1.802  13.256   9.658 -0.2085  0.0419  0.0804
21667W        W37136  12.440   6.182   0.815 -0.4119  0.1825  0.2244
21668W        W37137   0.371  17.270  11.151  0.0908 -0.0759  0.1136
21669W        W37138  15.693   5.659   0.645 -0.0527 -0.0507  0.2799
21670W        W37139   6.694   8.747   0.445  0.0442 -0.0841 -0.0282
21671W        W37140   4.823  11.542   4.434  0.0514 -0.0601 -0.1124
21672W        W37141  12.973   8.602  12.704 -0.1880 -0.3561  0.0878
21673W        W37142   6.512   3.836   2.942 -0.2657  0.1917 -0.0954
21674W        W37143   3.180  15.907  12.514 -0.1668  0.3829 -0.3991
21675W        W37144   3.593   1.610   2.480 -0.2777 -0.0417  0.1092
21676W        W37145   6.727  18.787   5.703  0.0562  0.1406 -0.0598
21677W        W37146  12.713   6.084   2.698  0.0586  0.0079 -0.0838
21678W        W37147  11.801  15.611   0.149 -0.0586 -0.2296  0.0079
21679W        W37148   0.280  12.984   1.409 -0.0983  0.0315 -0.1867
21680W        W37149   5.968  18.832   3.027  0.0222  0.0498  0.0900
21681W        W37150  11.500  12.977   1.851  0.0959  0.0357  0.0474
21682W        W37151   3.063   6.439  10.070 -0.1049  0.0093 -0.0463
21683W        W37152   4.908   6.213   5.072  0.0400  0.1683  0.5507
21684W        W37153  18.497  14.898  10.651 -0.3971 -0.1012 -0.3662
21685W        W37154   3.413   4.495   4.935  0.0828  0.1555 -0.3326
21686W        W37155  16.425   8.823  15.313 -0.2983  0.1216 -0.0774
21687W        W37156   2.707  13.664  12.429  0.0040  0.0627 -0.0971
21688W        W37157   1.365  15.609   1.437  0.4096  0.1200 -0.1157
21689W        W37158  14.452   7.050  13.053 -0.0162  0.1315 -0.1624
21690W        W37159   0.185   8.212   1.611  0.0243 -0.1118 -0.0011
21691W        W37160   9.035   4.758   0.394 -0.0217  0.4300  0.0441
21692W        W37161  18.671   1.791  12.578  0.2108  0.0581 -0.2736
21693W        W37162   7.383   2.346  12.806  0.0263 -0.1937 -0.0081
21694W        W37163   1.228   7.272  13.188  0.4534 -0.3396 -0.0696
21695W        W37164   5.610   4.789   4.066  0.0688  0.0881 -0.0715
21696W        W37165   0.926   1.488   0.768 -0.2500  0.2311  0.2127
21697W        W37166   3.711   2.317   5.270  0.4327 -0.1244 -0.0152
21698W        W37167  10.773   1.137  12.106 -0.0205  0.2378  0.1381
21699W        W37168   4.261   7.394  12.111 -0.1891 -0.2071 -0.5148
21700W        W37169  12.837  15.432   1.009  0.0580 -0.0988 -0.1448
21701W        W37170   3.535  11.574  14.796 -0.0786 -0.0582  0.0425
21702W        W37171   7.457  13.130  13.231 -0.0297 -0.2841 -0.4238
21703W        W37172  14.201   9.639  12.088 -0.2983 -0.2659 -0.2593
21704W        W37173   3.803   5.460  12.493  0.2011  0.0596  0.0679
21705W        W37174  18.859  10.060  11.312 -0.1172 -0.1160  0.0846
21706W        W37175   1.230  17.510   0.293  0.1361  0.3341  0.2823
21707W        W37176  17.543   4.727   2.462  0.1496  0.1137  0.3944
21708W        W37177   4.073   9.961  12.297 -0.0992 -0.0824  0.0819
21709W        W37178  16.893  12.628   3.685  0.0856 -0.0716  0.0526
21710W        W37179   1.521  11.937   1.953 -0.2374  0.1206  0.1775
21711W        W37180  15.266  15.756   0.349 -0.0833 -0.2440 -0.1053
21712W        W37181   8.606  17.068   2.264 -0.0227  0.0465 -0.1433
21713W        W37182   5.761   7.777   4.721  0.1479  0.3153  0.4964
21714W        W37183  10.963  16.796  11.091 -0.0903  0.1851  0.0017
21715W        W37184   1.996  17.838  13.448 -0.2812 -0.3855 -0.0675
21716W        W37185  11.536   8.326  15.213  0.2624  0.0995 -0.4559
21717W        W37186   2.498   8.612  13.353 -0.0560  0.1245 -0.0236
21718W        W37187   3.826  18.545  11.693 -0.3334  0.0485 -0.2586
21719W        W37188  14.371  11.368  15.301  0.0465  0.0113 -0.0044
21720W        W37189   0.977   8.361   0.604  0.4400 -0.0788 -0.1109
21721W        W37190  12.345   5.310  14.965 -0.0883  0.1628  0.2236
21722W        W37191  17.625   7.634   1.925 -0.0115 -0.1823 -0.1507
21723W        W37192  12.031  15.627   1.651 -0.0312  0.0222 -0.0177
21724W        W37193   7.853  13.849  11.903 -0.1274 -0.1016 -0.1976
21725W        W37194   1.774  11.590  10.741 -0.3422 -0.0059  0.3854
21726W        W37195   9.076   5.971  15.111 -0.0913 -0.3938  0.3938
21727W        W37196  16.482  18.705   9.129 -0.0146 -0.1854  0.3465
21728W        W37197   4.978   1.978   4.623 -0.0135  0.0372  0.0702
21729W        W37198  10.726   3.024  11.567 -0.4263 -0.4547 -0.2392
21730W        W37199   4.037  15.803   1.616 -0.2695  0.0823  0.1325
21731W        W37200  11.542  15.853   3.426 -0.1788 -0.1091  0.1741
21732W        W37201  11.073   2.371  15.237 -0.3441 -0.2002  0.2257
21733W        W37202   5.575   7.960  13.187  0.0080 -0.0894  0.0312
21734W        W37203  13.126  18.684   5.878  0.5686  0.2267  0.0505
21735W        W37204   6.097   9.918  13.652  0.1197  0.1014  0.2640
21736W        W37205  15.060   5.974   5.428 -0.0164  0.0722 -0.3964
21737W        W37206  10.374  11.330  14.459  0.0574 -0.1343  0.0867
21738W        W37207   6.343   3.939   1.420 -0.1011 -0.0819 -0.1218
21739W        W37208   4.361  11.704   1.841 -0.1118  0.1920 -0.1450
21740W        W37209  10.758  11.688  13.173 -0.2076  0.0888 -0.0336
21741W        W37210   3.760  13.814  14.708 -0.0694  0.0740  0.1720
21742W        W37211  15.075  15.722   3.878 -0.1501 -0.2402 -0.0471
21743W        W37212  17.692   7.288   3.583  0.1192  0.2852 -0.1727
21744W        W37213   9.897  10.554  11.859  0.3950 -0.3610 -0.0882
21745W        W37214  11.653   7.499   2.263  0.0856 -0.0099 -0.2778
21746W        W37215   9.825   2.206   3.490 -0.1507 -0.1449  0.0014
21747W        W37216   0.339   0.973   3.714 -0.1998  0.1129  0.2682
21748W        W37217  14.538  11.590   4.585  0.1296 -0.0905 -0.3139
21749W        W37218   2.702   5.161  12.787 -0.1651 -0.1078  0.0107
21750W        W37219   2.343  16.531   1.349 -0.1434 -0.0873 -0.2028
21751W        W37220   5.111  17.183  12.613 -0.2661  0.0788  0.2221
21752W        W37221  10.660  16.995   3.228 -0.1202  0.1897  0.3199
21753W        W37222   6.099   1.782   1.748  0.1553 -0.1064 -0.0941
21754W        W37223   6.399  11.931   4.627  0.1272  0.0352 -0.3721
21755W        W37224   6.861   2.045   2.936  0.3575 -0.2375  0.1155
21756W        W37225   7.207  17.440   5.401  0.4566  0.7498 -0.2404
21757W        W37226  11.902   9.894   3.406 -0.0565  0.2091  0.1922
21758W        W37227  17.711  15.286  14.506 -0.0136  0.0015  0.1630
21759W        W37228   8.321   2.818  14.632  0.1809  0.1617  0.4472
21760W        W37229   0.858   8.857  15.270 -0.3877  0.1853  0.1635
21761W        W37230   4.484   5.380   3.411 -0.2333  0.2228  0.1288
21762W        W37231  10.047  13.761  12.728 -0.1384  0.3559  0.1728
21763W        W37232  14.142  14.868  13.019 -0.0356 -0.1772 -0.0109
21764W        W37233   3.515   1.203   2.815  0.2797 -0.1205 -0.2625
21765W        W37234  18.077  14.193  14.540  0.2837 -0.6443  0.3999
21766W        W37235   7.606  10.847   0.664 -0.2945 -0.1136 -0.0344
21767W        W37236  15.610  10.153   1.475  0.0702  0.0479  0.0957
21768W        W37237   5.378  11.557  12.473 -0.0506  0.0232  0.3395
21769W        W37238  11.720   7.243  10.552 -0.0887 -0.2093  0.4181
21770W        W37239  12.552   7.018   0.440  0.0911  0.0494 -0.1409
21771W        W37240   4.027  12.307   3.003  0.0681 -0.1626  0.0759
21772W        W37241   3.097   8.483   4.916 -0.1401 -0.1025 -0.1809
21773W        W37242   4.481  18.708   4.971 -0.0202  0.2370  0.0069
21774W        W37243   4.697  10.265   0.620 -0.0285 -0.1168  0.2060
21775W        W37244   2.080  18.230   2.319 -0.0244  0.3718  0.5021
21776W        W37245  12.917   9.570  15.290 -0.0955 -0.0333 -0.2078
21777W        W37246  12.122   5.388   2.525 -0.0569 -0.2188 -0.1010
21778W        W37247  14.805  10.608  14.651  0.0385 -0.1380 -0.3366
21779W        W37248  12.505  13.989  13.376  0.2657  0.1588 -0.0036
21780W        W37249  14.663  17.388   3.544  0.0343 -0.0173  0.3736
21781W        W37250   7.220   8.674   4.279 -0.1953  0.1030  0.2087
21782W        W37251   4.879   9.031  13.270  0.0666  0.3108  0.2158
21783W        W37252   1.778   4.208  11.537 -0.1593  0.0397  0.2534
21784W        W37253   9.383   5.548   3.787 -0.2708 -0.1513 -0.1880
21785W        W37254  18.350   4.389  12.123 -0.0216 -0.0577  0.1152
21786W        W37255  14.530  10.506  12.893 -0.0098 -0.3640  0.1088
21787W        W37256   6.238   2.383  12.025 -0.3723 -0.0458 -0.3169
21788W        W37257  13.271  12.701   3.427  0.0186 -0.0394 -0.2179
21789W        W37258   3.096  16.173   1.068 -0.1962  0.0230 -0.0633
21790W        W37259   2.282   3.300   3.257 -0.0193 -0.0932  0.0141
21791W        W37260  13.300   6.750   3.029  0.3656  0.1263  0.0608
21792W        W37261   2.023   1.242  12.748  0.1423 -0.1829 -0.2406
21793W        W37262   4.188  18.442  12.047  0.3258  0.0632 -0.1672
21794W        W37263  18.651   2.430  11.682 -0.0559 -0.0862 -0.0229
21795W        W37264  14.917   3.358  12.176 -0.5416 -0.0930  0.4079
21796W        W37265  12.098   3.501   1.129  0.2961 -0.3620 -0.2384
21797W        W37266   7.523  11.750   9.923 -0.0699  0.1294 -0.2067
21798W        W37267   4.318   7.381   0.895 -0.0656  0.1481 -0.2370
21799W        W37268   4.334   4.016   1.752  0.3397  0.2284  0.0621
21800W        W37269  11.570   4.553  14.316 -0.1601 -0.0319  0.1901
21801W        W37270  14.944  15.114  14.628 -0.0276  0.1823  0.0564
21802W        W37271   3.768   0.609  12.917 -0.1055 -0.1439 -0.1974
21803W        W37272   0.608   2.136   0.038  0.2335 -0.0043  0.3567
21804W        W37273   0.772  17.599   4.480 -0.0079  0.0364  0.2241
21805W        W37274  19.015  12.956  14.892  0.0850  0.0800 -0.0733
21806W        W37275  18.049   3.980   3.660 -0.0062  0.0429  0.0104
21807W        W37276  12.270  14.703  12.224  0.2768  0.0132 -0.4166
21808W        W37277  18.631   7.309  10.566  0.1003  0.2223  0.0218
21809W        W37278   5.951   1.578  12.418  0.2715 -0.4714 -0.1067
21810W        W37279  15.232  16.463  14.405  0.1348 -0.0756  0.1520
21811W        W37280  18.694  16.325   5.321 -0.2152  0.3299 -0.0891
21812W        W37281   3.980   4.256   2.219 -0.2381  0.2231  0.1163
21813W        W37282  16.929   4.456   2.887  0.0755 -0.2996  0.2382
21814W        W37283   2.120  11.428  14.527 -0.3053  0.3100 -0.1763
21815W        W37284  14.454  18.560  10.568  0.1032 -0.3151 -0.0999
21816W        W37285   1.266   8.992   2.558  0.2633  0.3003 -0.0944
21817W        W37286  19.002  14.386   3.436  0.0229  0.2919  0.1539
21818W        W37287   8.148   0.794  11.935 -0.0427 -0.1492 -0.2090
21819W        W37288   9.067   7.413   1.756  0.0918 -0.3401 -0.3482
21820W        W37289   1.754  14.685   9.792  0.1083 -0.1853  0.1025
21821W        W37290  13.005  15.391  11.911  0.0301  0.1668  0.0656
21822W        W37291  12.760  12.313   4.379  0.2682 -0.3790 -0.1836
21823W        W37292   1.236  10.373  12.496  0.3216 -0.0669  0.3359
21824W        W37293   0.038  11.766  13.840  0.0707 -0.1345 -0.0867
21825W        W37294   7.234  18.573   4.689  0.0214 -0.3206  0.1713
21826W        W37295   7.881  13.926  14.370  0.3542  0.0558 -0.2540
21827W        W37296  15.283   8.905   2.196  0.0175  0.1768  0.1793
21828W        W37297   8.389   4.722   2.552  0.3238 -0.3892 -0.2611
21829W        W37298   5.388  11.947  11.009 -0.1001  0.0847  0.2481
21830W        W37299   2.981  16.809  15.024 -0.0232  0.2409 -0.1745
21831W        W37300  15.861   3.351  12.164 -0.0826  0.1118 -0.3338
21832W        W37301  18.255   4.592  14.470 -0.0823 -0.0929 -0.2423
21833W        W37302  11.243  13.910  11.383 -0.2093 -0.1374 -0.1390
21834W        W37303  14.069  16.006   2.328 -0.1060  0.1662  0.0734
21835W        W37304   1.053   1.685   4.345 -0.0489  0.0120 -0.1123
21836W        W37305   0.274  13.858   1.102  0.0469 -0.2494  0.1692
21837W        W37306  16.635   5.442  14.900 -0.1632  0.1963 -0.0132
21838W        W37307  16.259   4.040  13.364 -0.1290  0.0180  0.4188
21839W        W37308  13.338   7.939   3.023  0.3937  0.4067  0.1926
21840W        W37309  18.900  12.878   2.877 -0.0803 -0.0507 -0.2850
21841W        W37310   1.882  15.893  12.403  0.0325  0.0919  0.0708
21842W        W37311  10.032  11.279  11.219 -0.1410 -0.0974  0.2031
21843W        W37312  12.005  17.784  14.756  0.2579 -0.0294 -0.1026
21844W        W37313  13.107   6.880  15.313  0.1163 -0.0680  0.2017
21845W        W37314  10.347  17.777   5.636  0.0085  0.1681  0.3098
21846W        W37315   5.992  11.713   4.185 -0.0795 -0.3971 -0.1305
21847W        W37316  11.654  14.947  13.792 -0.0001  0.0600 -0.2433
21848W        W37317   6.998   1.625  14.558  0.0162 -0.0389  0.2147
21849W        W37318   2.762   7.973   1.371 -0.2674 -0.0402 -0.1683
21850W        W37319   8.054   7.720   2.820 -0.1644  0.0065 -0.1564
21851W        W37320  16.767   7.727   3.202  0.1856  0.2621  0.1693
21852W        W37321   8.402  17.193   0.034 -0.1384  0.0309 -0.2392
21853W        W37322  14.216   8.133  11.171  0.0176 -0.0608 -0.0767
21854W        W37323  15.810  17.695  13.738  0.2078 -0.1269 -0.1583
21855W        W37324  13.197   8.283  14.861  0.0183  0.0446  0.2769
21856W        W37325  13.708   1.519   0.907 -0.0203  0.0056 -0.1157
21857W        W37326   6.377  16.829  13.466  0.0729  0.1522  0.0065
21858W        W37327   0.451   8.968   3.006  0.0448 -0.1162 -0.0651
21859W        W37328   8.173   4.804  13.558 -0.2774  0.3868  0.1647
21860W        W37329   5.845  11.188  11.605  0.4851  0.1040 -0.0152
21861W        W37330   8.309   6.311  11.283 -0.1946 -0.0992 -0.0742
21862W        W37331   8.009  10.491  12.469  0.3074  0.0551 -0.4897
21863W        W37332  15.318   6.527  10.651  0.1529 -0.0563 -0.0620
21864W        W37333  12.819   3.617  15.280  0.1342 -0.0071 -0.1113
21865W        W37334   0.419  13.111   0.751  0.2592  0.1655 -0.0226
21866W        W37335   5.407  10.852   4.742 -0.1027 -0.3415  0.2640
21867W        W37336   3.134  15.681   2.306 -0.0307  0.0081 -0.1162
21868W        W37337  17.297  13.213   2.472 -0.1447  0.2567 -0.2964
21869W        W37338   4.899   6.803   3.991  0.0293 -0.0618 -0.1175
21870W        W37339  10.974  17.390   4.786 -0.1922 -0.0738  0.0557
21871W        W37340  10.523  13.038  15.169  0.0430  0.1835 -0.0086
21872W        W37341  15.076  17.585   3.291  0.0152  0.0565 -0.0045
21873W        W37342  17.677  18.348   2.720  0.1154 -0.0493  0.0794
21874W        W37343   3.156   9.625   2.215  0.0260  0.0416 -0.0597
21875W        W37344   6.584   1.379  14.073  0.0718 -0.1035  0.4842
21876W        W37345   5.195  15.370  13.251  0.1841  0.0417 -0.0274
21877W        W37346   8.405  16.358   5.491  0.0897  0.0445 -0.3847
21878W        W37347   0.953  11.493   1.356  0.1803  0.3824 -0.1584
21879W        W37348  17.449  17.550  14.261 -0.1154 -0.1744 -0.1683
21880W        W37349   2.698  14.471   0.547  0.5394  0.0435 -0.0058
21881W        W37350   1.455   0.637   1.664  0.0288 -0.0084 -0.2836
21882W        W37351   7.313  13.476   4.804  0.2512 -0.1202 -0.0731
21883W        W37352  15.628  17.259  10.399  0.2043  0.0282 -0.4008
21884W        W37353  17.173  16.057  14.141  0.1828  0.2754  0.1218
21885W        W37354  11.840   3.590  14.659  0.1536  0.2063 -0.0274
21886W        W37355  10.722  15.487   1.629 -0.2817 -0.1914  0.1454
21887W        W37356   6.051   9.201   9.850 -0.0327 -0.2364  0.0250
21888W        W37357   2.247   6.088   2.855  0.1137  0.1107  0.0420
21889W        W37358   8.368  12.292   2.416  0.0261 -0.4417  0.2815
21890W        W37359  11.885   0.145   0.440 -0.0791 -0.0408  0.0898
21891W        W37360   3.197  11.222  14.452  0.0279  0.2451 -0.1594
21892W        W37361  11.791   9.189   5.747 -0.1497  0.1618  0.0738
21893W        W37362   2.207   9.817  12.825 -0.0263 -0.0654  0.0971
21894W        W37363   0.049   5.251   2.437 -0.1945 -0.2200 -0.0061
21895W        W37364  10.819  18.381  11.634  0.0764 -0.2716  0.2524
21896W        W37365   0.663  10.021  12.771  0.0853 -0.3142  0.0912
21897W        W37366   0.979   7.865   0.749  0.0786  0.3930  0.1545
21898W        W37367  15.713  17.655   0.384 -0.0595  0.1047  0.1982
21899W        W37368   2.749   9.262  14.941 -0.2762 -0.0409 -0.0614
21900W        W37369   6.217   4.367  10.770  0.2947 -0.0385 -0.3860
21901W        W37370  11.345  12.731   0.368 -0.1440 -0.3843  0.0768
21902W        W37371  10.085   5.345   0.737  0.2088  0.1596 -0.1394
21903W        W37372   0.005  10.140  14.742  0.0227 -0.1059  0.0062
21904W        W37373  17.395   6.410   3.975 -0.3936 -0.0566  0.0695
21905W        W37374   7.867   3.530   9.526 -0.0870  0.0073  0.0873
21906W        W37375   7.047   6.066   3.714  0.1306 -0.1087 -0.0539
21907W        W37376  12.295  11.949  13.972  0.1196 -0.1504 -0.1767
21908W        W37377  17.767  13.534   0.470  0.0127 -0.3396 -0.1987
21909W        W37378  10.242   3.177  12.920  0.2647  0.0122 -0.0748
21910W        W37379  10.134  13.056   3.344 -0.0957 -0.1315 -0.1949
21911W        W37380  12.918   2.854   3.992 -0.2216 -0.0385 -0.2435
21912W        W37381  15.148   3.225  11.182  0.1476 -0.3832  0.1056
21913W        W37382  18.736  16.417   4.383  0.0058 -0.1964 -0.0440
21914W        W37383  18.315  11.698  12.528 -0.1050  0.1291  0.1383
21915W        W37384   3.536   1.315  11.161 -0.1546  0.2069  0.3695
21916W        W37385   4.308   2.977   6.038  0.1124  0.2143  0.0461
21917W        W37386  11.147   4.676   1.515 -0.0138 -0.0495 -0.4128
21918W        W37387  16.009   3.633  15.324 -0.2162 -0.0468  0.0224
21919W        W37388   0.634   4.563  11.364 -0.0928  0.0843 -0.1984
21920W        W37389   3.692  14.794  14.963  0.0078 -0.1690  0.3190
21921W        W37390   6.417  14.240   0.238  0.2766 -0.1602  0.0733
21922W        W37391   1.039  11.225  12.909 -0.0597 -0.2233 -0.0364
21923W        W37392  11.927  12.729   2.064  0.3797 -0.4344  0.0206
21924W        W37393  12.575   1.513   2.793 -0.1981 -0.3179  0.0701
21925W        W37394  12.446  17.953  14.774 -0.0313 -0.0722 -0.1410
21926W        W37395   1.587  10.973   3.490  0.2124  0.2694 -0.2313
21927W        W37396   3.818   9.236   2.843 -0.0939  0.1619 -0.0807
21928W        W37397   7.210  11.294   3.334 -0.3894 -0.1738  0.3081
21929W        W37398  15.478  17.167   2.100 -0.3733 -0.1181  0.2622
21930W        W37399   1.450  17.710  10.367  0.2518 -0.3571 -0.2853
21931W        W37400   5.118   6.180  13.695 -0.2105  0.0790 -0.0943
21932W        W37401   7.216  15.264  14.408  0.3604  0.0438 -0.1594
21933W        W37402  16.695   6.525  11.124  0.0679  0.3218 -0.3325
21934W        W37403   2.056  17.119  15.321  0.1410 -0.2669  0.3833
21935W        W37404  18.614  14.632   4.583  0.1101  0.0010  0.0497
21936W        W37405  13.933   1.953   0.707 -0.3905  0.3367  0.1513
21937W        W37406  17.144  15.255  11.394  0.1295 -0.1167 -0.0611
21938W        W37407  13.670  16.574   1.034  0.0629 -0.0045 -0.0141
21939W        W37408   9.486  14.074   1.201 -0.2095 -0.0469 -0.0375
21940W        W37409   7.718  18.811  12.586  0.4164 -0.3858  0.0760
21941W        W37410   7.224  17.571  12.300 -0.1128 -0.0506  0.3630
21942W        W37411  10.059   8.717  13.599 -0.0111 -0.0617 -0.1575
21943W        W37412   5.360   5.808   1.030  0.1461 -0.0583  0.0868
21944W        W37413  12.058  14.704   4.057  0.0611  0.1306 -0.0379
21945W        W37414   4.544   5.410   4.216  0.4175  0.0287  0.1905
21946W        W37415  17.264   5.725  10.770  0.0843  0.1723 -0.1386
21947W        W37416  15.065   3.782  11.013 -0.0604  0.3017 -0.2000
21948W        W37417   3.321   3.124  10.891 -0.0581  0.2972 -0.4019
21949W        W37418  18.554  12.525   3.153  0.1746 -0.1591 -0.3230
21950W        W37419   8.216  15.089  12.361  0.1316  0.1691  0.0681
21951W        W37420  12.410  13.222  14.578  0.2476  0.0832  0.1887
21952W        W37421  17.165  15.426  13.257  0.0379  0.1036  0.0912
21953W        W37422   2.218   3.570   5.199 -0.0247  0.1251  0.0441
21954W        W37423   0.102   2.209  14.002  0.1817  0.0618  0.3040
21955W        W37424  14.072   5.084   1.647 -0.0597  0.1067 -0.2569
21956W        W37425  11.696   4.039   5.109  0.1411 -0.2663  0.0347
21957W        W37426   8.996   0.555  11.936 -0.2857 -0.0194 -0.3185
21958W        W37427   3.967  18.529  10.651 -0.1216  0.1370  0.3718
21959W        W37428  18.405  11.978   1.322  0.2893 -0.1614 -0.1030
21960W        W37429   0.718   3.991   4.830 -0.4943  0.0070  0.0289
21961W        W37430  14.494  16.970   3.137  0.1870 -0.1232  0.0809
21962W        W37431   4.950  10.334  11.775 -0.0493 -0.0474  0.1013
21963W        W37432  16.063  18.696   0.185  0.0091 -0.0027  0.1051
21964W        W37433  18.342  17.055  12.369  0.0972 -0.1159 -0.3529
21965W        W37434   5.956   3.273  11.422 -0.2617 -0.0134 -0.1784
21966W        W37435   4.570   0.126  15.224  0.1068  0.1378  0.3621
21967W        W37436   2.091   2.030   3.858 -0.1041 -0.1986 -0.0479
21968W        W37437  10.922  10.249  10.864  0.1565  0.0299  0.0748
21969W        W37438  12.625  14.408   4.799 -0.1002  0.0164 -0.1481
21970W        W37439   8.943  16.917  13.989  0.4497 -0.1034  0.2731
21971W        W37440  15.569  10.601   1.583  0.0699 -0.1216  0.1846
21972W        W37441   7.782   4.962   0.137 -0.1105 -0.1159 -0.0305
21973W        W37442   9.621   0.248  13.620 -0.4745 -0.0352  0.0572
21974W        W37443   1.465   6.674   5.291  0.2127  0.0999  0.1306
21975W        W37444   9.555   9.333   1.833 -0.4841 -0.3849  0.0851
21976W        W37445   1.136  10.349   0.180  0.0647 -0.1780 -0.0436
21977W        W37446   2.369  15.921  10.390 -0.0945 -0.3328 -0.2215
21978W        W37447   3.397  14.847   1.901  0.0664 -0.2927  0.0240
21979W        W37448   4.890   3.389   2.269 -0.0580  0.1733 -0.2466
21980W        W37449   6.285   8.261   3.180  0.0775  0.2746  0.1494
21981W        W37450  16.739  13.991  14.291 -0.0847  0.0330  0.4871
21982W        W37451  17.442  13.881   0.247  0.0754  0.4057 -0.1382
21983W        W37452   0.004  15.326  13.953 -0.0193  0.0220  0.0964
21984W        W37453   4.687  17.280  10.386 -0.0805  0.3435 -0.0559
21985W        W37454   3.094  12.522   4.582 -0.5454 -0.0770 -0.1079
21986W        W37455   2.134  17.176   3.335  0.1426 -0.2615  0.1754
21987W        W37456   1.915   8.585  14.865  0.1042  0.3904  0.0277
21988W        W37457  11.187  15.324   2.430 -0.1702  0.3210 -0.1765
21989W        W37458  18.652   2.390  15.204 -0.1346  0.2685  0.1364
21990W        W37459   0.495  14.751   4.958 -0.0675 -0.3639 -0.1782
21991W        W37460  18.954  16.035  13.556 -0.1736 -0.2422 -0.1470
21992W        W37461  13.871  12.814   4.206  0.1837 -0.2189  0.1420
21993W        W37462   4.458   7.602   3.934 -0.0440  0.0903  0.1253
21994W        W37463  16.543   0.841  12.295  0.3855  0.3502  0.0719
21995W        W37464  11.100  16.809  12.914 -0.3295 -0.1019  0.1989
21996W        W37465  13.608  16.768   2.859 -0.0928 -0.0573 -0.0412
21997W        W37466  13.669  11.409  11.605  0.2453 -0.0249 -0.1835
21998W        W37467  11.705   9.010   1.544  0.1304  0.2274 -0.1914
21999W        W37468  11.508   8.048  12.629 -0.2567  0.3787  0.1680
22000W        W37469   5.611   3.321  15.094  0.0277 -0.0061  0.2238
22001W        W37470   8.225   8.531   4.283 -0.0332 -0.0146 -0.1038
22002W        W37471  10.517   9.134   0.022  0.0932 -0.2819 -0.1142
22003W        W37472   6.898   0.698   4.750  0.1936  0.1627 -0.0241
22004W        W37473  15.754   5.878   3.156  0.0079 -0.0112  0.0202
22005W        W37474   2.480   1.549  12.775 -0.1401 -0.2227 -0.0904
22006W        W37475  11.735   4.572   4.516  0.2292  0.3311 -0.1479
22007W        W37476   3.878  15.237  15.246  0.1246 -0.0161  0.1746
22008W        W37477  18.316  12.393  10.949  0.1941  0.2270  0.0767
22009W        W37478  15.539  10.392  10.858  0.2431 -0.2498 -0.3232
22010W        W37479   6.405   0.332   4.954  0.1108  0.0236 -0.0204
22011W        W37480   0.864   6.533  11.559 -0.0579  0.2379  0.1600
22012W        W37481  17.146  12.323   0.693 -0.2291  0.0921 -0.2956
22013W        W37482  13.079   0.281   1.225 -0.1075  0.2016  0.5393
22014W        W37483  18.421   9.938   5.660  0.2075  0.1416  0.0355
22015W        W37484   9.341  15.246  15.010 -0.0283  0.5063  0.3338
22016W        W37485   1.413  12.338   3.568 -0.1244 -0.0340  0.0738
22017W        W37486  11.925   7.332  12.490 -0.0425 -0.1066  0.0253
22018W        W37487   0.637   4.141  10.936  0.1844 -0.0173  0.4234
22019W        W37488  17.582  10.838   0.605 -0.1441  0.2940 -0.0914
22020W        W37489  11.721   0.085   1.281 -0.2570 -0.2525  0.0596
22021W        W37490  15.843  18.862   1.040  0.0682 -0.0495 -0.3827
22022W        W37491  10.086  12.315  14.261  0.2970 -0.1287 -0.0110
22023W        W37492  10.248   8.872   0.877 -0.1188 -0.0208  0.0412
22024W        W37493   8.823  18.894  14.779 -0.1105  0.0195  0.1683
22025W        W37494  12.597  16.892   0.930 -0.0986  0.0110 -0.1584
22026W        W37495   8.954  17.361   1.992  0.3123  0.2620 -0.0051
22027W        W37496  10.048  13.031   4.243  0.2604  0.0932 -0.1321
22028W        W37497  12.633  16.227   0.674  0.0569  0.0069  0.0455
22029W        W37498  12.034  13.209  13.535  0.2282 -0.0739  0.0950
22030W        W37499  18.737  17.457  12.051 -0.0002  0.2505  0.0718
22031W        W37500   7.361   9.775  12.438  0.1539  0.1594  0.0527
22032W        W37501   6.560  15.869   1.924  0.2378 -0.2331 -0.4213
22033W        W37502   6.235   1.284   1.745 -0.1030  0.0008  0.0107
22034W        W37503  10.988   5.553   9.665  0.0312  0.1128  0.2164
22035W        W37504   3.432   3.608  12.919  0.0776 -0.1056 -0.1097
22036W        W37505   9.335  14.418   3.112 -0.1510 -0.3360  0.0094
22037W        W37506  12.638  13.542  13.726  0.0638  0.1363 -0.1530
22038W        W37507   8.506   6.146   0.895  0.3214 -0.1615  0.3596
22039W        W37508   3.382  16.250  13.364 -0.3752 -0.0581  0.4059
22040W        W37509   0.996  12.505   3.662 -0.1750  0.0833  0.0512
22041W        W37510  17.655   0.757   4.668 -0.0212  0.4143 -0.2118
22042W        W37511   8.781  19.023   1.001  0.0273  0.0042  0.1359
22043W        W37512   9.734   0.110  15.149  0.2107 -0.2171  0.3387
22044W        W37513   7.126  12.039  10.424  0.1221 -0.1937 -0.2737
22045W        W37514  13.205  13.284   5.466  0.0883  0.1759 -0.1335
22046W        W37515   3.769  12.660   1.644 -0.3373 -0.1433  0.0675
22047W        W37516   4.664  11.542  12.467 -0.1235  0.1071  0.0904
22048W        W37517  14.714  11.799  13.847 -0.1010  0.0437 -0.1758
22049W        W37518  18.453  12.750  12.707 -0.5120  0.1209 -0.2733
22050W        W37519   0.030  13.840   3.527  0.1526  0.1386 -0.2500
22051W        W37520   4.088  17.778   1.287  0.1249 -0.0437  0.2334
22052W        W37521  11.270   6.475  11.385 -0.2150  0.0449  0.0709
22053W        W37522  15.121  15.762  13.565 -0.1422  0.0508  0.2219
22054W        W37523  17.340  10.825   4.863 -0.2111 -0.0164 -0.0445
22055W        W37524   7.336   2.715  13.290 -0.3079  0.0450 -0.3983
22056W        W37525   6.154  12.491   2.975 -0.1234 -0.0333  0.5518
22057W        W37526   9.600   1.501   5.117  0.3644 -0.0629  0.4329
22058W        W37527  16.358   8.087  13.095  0.1565 -0.1277 -0.3361
22059W        W37528   5.989   1.418   3.813 -0.1184  0.0410 -0.0761
22060W        W37529   4.725   0.922   1.948 -0.3015 -0.2465  0.1519
22061W        W37530   4.196  17.702   5.389 -0.3387 -0.0913  0.3271
22062W        W37531  13.767   5.280  11.705 -0.1769 -0.1075  0.2295
22063W        W37532   4.257   2.383   0.462  0.0323 -0.2747 -0.1163
22064W        W37533  18.281   1.368   0.742 -0.2079  0.2587  0.2388
22065W        W37534   6.419   3.486  11.383 -0.3326 -0.0681  0.0472
22066W        W37535   4.541  10.278   4.000  0.2063  0.1415 -0.1576
22067W        W37536   7.679  12.625   9.329 -0.0510  0.0634 -0.3353
22068W        W37537   1.362   2.399   0.850 -0.3580 -0.4155  0.1706
22069W        W37538   4.973  12.107  12.762  0.0619  0.1036  0.0977
22070W        W37539   3.370   6.137   9.844  0.1870 -0.2154 -0.0947
22071W        W37540   3.819   5.734   0.030 -0.1331  0.1046  0.2885
22072W        W37541  13.658  11.973  13.625 -0.0943  0.1552  0.1704
22073W        W37542  12.638   8.020   3.772  0.0481 -0.3123  0.0389
22074W        W37543  11.120   4.279   1.911 -0.2806 -0.1300  0.2205
22075W        W37544  18.510   2.265   1.410  0.1727 -0.0329  0.0651
22076W        W37545  12.482   1.000   0.122 -0.2558 -0.0094 -0.1491
22077W        W37546   7.631  14.161   4.129  0.1237  0.3009 -0.0029
22078W        W37547   5.269   6.107   0.576 -0.0526 -0.2237  0.0143
22079W        W37548   7.203  11.823  14.815 -0.1041 -0.0176  0.0292
22080W        W37549   9.188  14.516   4.406  0.0201 -0.1311  0.1641
22081W        W37550   8.198  16.404   0.128 -0.0801 -0.3199 -0.0036
22082W        W37551   1.421  11.763   3.843 -0.0376 -0.1685 -0.3007
22083W        W37552  18.040  13.742   0.008 -0.2339  0.1730 -0.2224
22084W        W37553  14.729  15.979  10.959 -0.0246  0.0750 -0.2925
22085W        W37554  10.306   2.220   1.379  0.0421 -0.0802  0.1919
22086W        W37555   6.412  12.858   5.006 -0.0679  0.2503 -0.3660
22087W        W37556   8.425   0.588  13.889 -0.1815 -0.1982 -0.2431
22088W        W37557   1.474   5.594  14.377 -0.0295  0.0115  0.1734
22089W        W37558  18.538   4.808   5.136 -0.0714  0.1808  0.1396
22090W        W37559   1.049   6.399  14.266 -0.1357  0.1403 -0.0107
22091W        W37560   2.088   0.653  13.788  0.1814 -0.3159  0.0638
22092W        W37561   1.271   4.433  11.589 -0.0927 -0.3537 -0.3051
22093W        W37562  18.539   7.490  14.570 -0.0964 -0.1883 -0.3093
22094W        W37563  18.072   7.491   3.797  0.0684  0.0966 -0.0454
22095W        W37564  17.076  17.340  14.011  0.1148 -0.1093  0.0056
22096W        W37565   2.969   0.023  11.769  0.1391 -0.0828  0.1819
22097W        W37566   3.632  16.803   1.567 -0.0392 -0.1771  0.1429
22098W        W37567  18.272   9.317  11.062  0.0396 -0.1394 -0.2543
22099W        W37568   0.017   0.891  12.469  0.0863  0.0727 -0.0366
22100W        W37569  17.828  11.121  14.077  0.5262 -0.2807 -0.1343
22101W        W37570  11.171   7.392  13.071 -0.0302  0.0471 -0.2761
22102W        W37571   3.442   0.801  15.191  0.1993 -0.0915  0.0882
22103W        W37572   4.006   5.072  13.881 -0.1440  0.0169  0.1665
22104W        W37573  12.190   7.732   1.474 -0.1507  0.1111  0.0729
22105W        W37574   5.216   3.541  13.740  0.1783 -0.0799 -0.0107
22106W        W37575  16.275  18.072   4.667  0.0546 -0.0780 -0.0555
22107W        W37576   3.947   3.500  15.162  0.2508 -0.3242  0.5739
22108W        W37577   5.769  11.353   0.799 -0.2269 -0.2258  0.2477
22109W        W37578  18.632   4.817  13.100  0.2462 -0.0664  0.1190
22110W        W37579  15.794   5.968  13.446 -0.0492 -0.0389 -0.0811
22111W        W37580  12.373   4.655  11.111 -0.1373  0.1019 -0.2126
22112W        W37581  12.150   3.916   4.916  0.0848 -0.0601 -0.0558
22113W        W37582   1.855  14.305  10.605 -0.0300  0.0381  0.0847
22114W        W37583  14.607  10.159   0.779  0.0035  0.0053  0.1018
22115W        W37584   4.151   3.080   0.008  0.1805 -0.3421  0.8090
22116W        W37585   1.064  17.811   2.933 -0.2006  0.1099  0.2771
22117W        W37586  17.639   3.600  15.332  0.0306 -0.0454  0.1006
22118W        W37587  11.477   1.903  15.076 -0.0895 -0.0279  0.1780
22119W        W37588  17.581  11.587   3.278 -0.1533 -0.2149 -0.2828
22120W        W37589   0.812   6.705   3.501 -0.3015 -0.3034  0.1309
22121W        W37590   8.294  11.170  12.038 -0.3145  0.0529 -0.1341
22122W        W37591  18.722   3.254   4.012  0.2445 -0.1976  0.0208
22123W        W37592   2.616   2.140   3.691  0.2347  0.1754 -0.2505
22124W        W37593  18.012  17.427   0.504  0.1653 -0.0714  0.2945
22125W        W37594   2.558  11.384   2.889 -0.0865  0.2501 -0.2410
22126W        W37595   3.052   4.264   0.707 -0.1692 -0.1452 -0.1273
22127W        W37596   2.370  14.761  10.502  0.3032 -0.3216  0.4403
22128W        W37597  14.847  16.926  11.317  0.2358  0.0262  0.1874
22129W        W37598   7.281  13.974   3.837  0.0345  0.1455  0.2427
22130W        W37599  16.605  16.043  14.793  0.0377 -0.0441 -0.2964
22131W        W37600   3.407  18.880  11.872  0.0748  0.0230 -0.3526
22132W        W37601   3.276   2.222   0.697  0.0421  0.3573 -0.3953
22133W        W37602  13.378   1.419  15.049  0.1556 -0.0286  0.1644
22134W        W37603  10.387   6.296  15.048  0.0894 -0.1592 -0.0540
22135W        W37604  13.323  14.733  10.750  0.3261  0.1942 -0.2030
22136W        W37605   7.926   2.787  14.165  0.4423  0.1519 -0.2224
22137W        W37606   5.646  18.041   5.431 -0.3254 -0.0111  0.2089
22138W        W37607  14.072  15.956   3.999  0.0075  0.0810 -0.0947
22139W        W37608   4.560   8.644   3.446  0.2428  0.3196 -0.2096
22140W        W37609   2.596  14.559   2.840 -0.1156  0.0631 -0.0547
22141W        W37610   1.964   1.710   3.419 -0.3069  0.0061 -0.1390
22142W        W37611   7.688  15.000   0.593 -0.0880  0.0470  0.2062
22143W        W37612  15.257  18.954  12.017  0.0171  0.1755  0.1127
22144W        W37613   1.517  13.218   3.292  0.1704 -0.0069  0.1759
22145W        W37614   0.267   0.399  11.233  0.2471  0.0598  0.0474
22146W        W37615  14.103  11.070   1.935 -0.2147 -0.2769 -0.2593
22147W        W37616  13.014  13.296  11.145 -0.1086  0.2672 -0.0760
22148W        W37617   1.478   2.554   2.848  0.0882 -0.1303  0.0207
22149W        W37618   8.562   9.882  14.407  0.5109  0.0755  0.0640
22150W        W37619  18.063  17.357  11.897 -0.1664  0.1506 -0.1004
22151W        W37620   2.815   7.954   0.151 -0.1925 -0.2075 -0.0787
22152W        W37621   7.214   0.953   4.446  0.2241 -0.4695  0.2820
22153W        W37622  11.868  12.747   0.286  0.1240  0.1865 -0.4559
22154W        W37623   0.451  17.791   9.924 -0.1115 -0.0892 -0.2097
22155W        W37624  11.078   5.134  14.839 -0.0904  0.3250 -0.2737
22156W        W37625   8.946  16.018   0.702  0.2527 -0.0183 -0.1466
22157W        W37626  11.893   8.479   4.245  0.2032  0.0516  0.2062
22158W        W37627  17.673  10.268   2.761 -0.5258  0.2018 -0.1610
22159W        W37628  17.711   7.892   3.844 -0.0157 -0.1262 -0.1092
22160W        W37629  11.337   8.697   1.721 -0.1438  0.0167  0.2815
22161W        W37630   9.422   3.076   0.761 -0.2839 -0.0678  0.2770
22162W        W37631   8.015   1.585  14.291 -0.0864 -0.1118  0.1495
22163W        W37632  13.844   3.281   5.471 -0.2774 -0.0827 -0.0792
22164W        W37633   6.590  10.028   0.253  0.1804  0.2655  0.2741
22165W        W37634  17.349   5.754   3.112 -0.0254  0.1764 -0.1306
22166W        W37635   5.532   2.867   2.084  0.3911  0.1024  0.2094
22167W        W37636   7.212   2.406   3.919  0.0859  0.0902 -0.1116
22168W        W37637  14.116  17.232   5.016  0.4206  0.0268 -0.1642
22169W        W37638  11.053  11.577   3.790 -0.1012  0.3371  0.2198
22170W        W37639  10.259   2.363   4.192 -0.3150  0.1077  0.0406
22171W        W37640   1.356   3.621  14.926 -0.2523 -0.0841 -0.0826
22172W        W37641   2.757  17.775  15.265 -0.2152 -0.2503  0.3250
22173W        W37642   2.340  11.232   3.801 -0.1224 -0.1496 -0.0298
22174W        W37643  12.162  14.467   1.072  0.0369  0.2904 -0.4066
22175W        W37644   4.492  13.280  11.878  0.0389  0.2898 -0.1262
22176W        W37645   5.059   2.639   2.753  0.0859 -0.2826  0.1838
22177W        W37646  18.537   8.683  13.398 -0.0308  0.2760  0.0542
22178W        W37647  10.677  14.747   1.024 -0.1048 -0.3578  0.0434
22179W        W37648   3.881   3.028   0.933 -0.1311 -0.0119  0.2235
22180W        W37649   3.890  12.994  12.748  0.0083 -0.0976  0.0458
22181W        W37650  12.036  14.891  10.585  0.0805  0.0707  0.0730
22182W        W37651   7.483  14.807  14.453  0.3390 -0.1260 -0.1068
22183W        W37652   6.631  18.887  13.300 -0.0212  0.0770 -0.0967
22184W        W37653   2.548  14.789   0.143  0.1489  0.1501  0.3527
22185W        W37654   7.089   7.688   0.961  0.2000 -0.2051  0.0130
22186W        W37655   8.301   2.371  13.699 -0.2371 -0.0369  0.3345
22187W        W37656   8.818   9.441  14.350 -0.5003  0.0945 -0.1595
22188W        W37657  16.816  18.187   4.527 -0.0467 -0.1001 -0.0533
22189W        W37658  18.009  11.407   4.141 -0.1976 -0.1895 -0.0295
22190W        W37659   0.630   6.793  12.524  0.2463  0.0895  0.3560
22191W        W37660  16.880   5.460   1.420 -0.0918 -0.0662  0.1682
22192W        W37661   2.088  11.514  11.138  0.3545  0.1916  0.2517
22193W        W37662  18.638  15.983  12.591  0.0223 -0.0498 -0.0649
22194W        W37663   8.522  10.249   4.216  0.1424  0.4031  0.2006
22195W        W37664  10.074  10.950  13.243  0.3811 -0.0742 -0.0408
22196W        W37665  14.876   0.550  14.292 -0.1968  0.1124 -0.0057
22197W        W37666   5.134   2.164  12.641  0.0298 -0.2675  0.0571
22198W        W37667   1.247  14.867   1.283 -0.1987 -0.0126  0.1731
22199W        W37668   9.309  13.139   1.355  0.0502  0.0445  0.3014
22200W        W37669  15.052  13.748  11.922  0.2400  0.1906  0.0042
22201W        W37670  10.168  11.755  11.055 -0.0671  0.0408 -0.6335
22202W        W37671   0.840  10.497  12.843  0.0929  0.2713  0.1107
22203W        W37672   9.064  16.390  14.119 -0.0696 -0.0476 -0.2842
22204W        W37673   5.971  12.349   0.791 -0.0544 -0.0575 -0.1432
22205W        W37674   7.855   5.484  11.604  0.0362  0.0615  0.2364
22206W        W37675   8.250  15.499  14.083 -0.2045 -0.0606 -0.0100
22207W        W37676  11.131  12.210   1.858  0.0782  0.0162  0.2183
22208W        W37677  11.912   0.648   2.467 -0.2471  0.1350  0.1534
22209W        W37678   5.996  10.707  10.939  0.1542  0.0790 -0.0085
22210W        W37679   1.754   9.135   0.668 -0.0635 -0.0753 -0.1559
22211W        W37680   4.092   6.419   3.661 -0.1972  0.0278 -0.1827
22212W        W37681   9.644   3.171  14.792  0.2983  0.1134  0.0987
22213W        W37682  12.984  10.904   4.132  0.2880 -0.3036 -0.1884
22214W        W37683   2.919   5.775   0.419 -0.1250 -0.4063 -0.3262
22215W        W37684   7.056   8.193   2.559 -0.0875 -0.0013  0.1677
22216W        W37685   8.475  12.620   1.195 -0.0112 -0.0269  0.1253
22217W        W37686   9.546  10.546  10.943  0.1454  0.2751 -0.2967
22218W        W37687  11.377   7.575  12.664 -0.1261 -0.2636  0.1649
22219W        W37688   0.162  18.321   0.843 -0.1580  0.0481 -0.0977
22220W        W37689   2.323   3.400  14.217  0.1565  0.2422  0.1270
22221W        W37690   4.738   7.318  11.887  0.2121 -0.1884 -0.1405
22222W        W37691   5.429  10.499  10.395  0.2177 -0.0847 -0.1558
22223W        W37692   3.160  18.396  14.567 -0.0553  0.0899 -0.1119
22224W        W37693   8.492  14.090   9.836  0.2278  0.0383 -0.3040
22225W        W37694  12.673   9.674   5.628  0.1500  0.2478  0.0014
22226W        W37695  18.555   2.178   4.040  0.1307  0.1835 -0.0084
22227W        W37696  16.297  14.734   0.731  0.0872  0.4172 -0.0796
22228W        W37697   1.558  11.101   4.437  0.0907  0.0278  0.3464
22229W        W37698  16.344   1.578   1.585 -0.1570 -0.4537  0.2135
22230W        W37699   0.138   9.524  10.323  0.0396 -0.0609 -0.0784
22231W        W37700  10.785   1.196  12.823 -0.3223  0.0709 -0.0604
22232W        W37701  10.882  13.806   4.908  0.1285  0.2542  0.4292
22233W        W37702  17.558   7.148   4.512  0.0769 -0.0589  0.1242
22234W        W37703  17.418   1.425   1.448 -0.0393 -0.0354 -0.2994
22235W        W37704  12.549   5.995  13.764  0.0877  0.1865 -0.1904
22236W        W37705  14.368  15.288   2.899  0.4552 -0.0418 -0.3752
22237W        W37706  17.626   1.108   4.218 -0.1125  0.2215 -0.1068
22238W        W37707   2.217  11.782   2.833 -0.0368 -0.4302 -0.0323
22239W        W37708   2.569  17.175  15.012 -0.1069 -0.0350 -0.0438
22240W        W37709  13.752  10.032  15.046  0.2308 -0.0434 -0.0872
22241W        W37710   9.406   9.605  10.690 -0.0432 -0.0416  0.0080
22242W        W37711  12.885  16.493   9.934  0.3513  0.2528  0.1273
22243W        W37712   1.323   1.817  10.894  0.0780  0.3818  0.3605
22244W        W37713   3.620   0.349  15.187  0.0939 -0.0942  0.2623
22245W        W37714   3.162   1.223   2.142 -0.1209 -0.0839  0.0501
22246W        W37715   0.006  15.362   3.106  0.3677  0.0474 -0.0756
22247W        W37716  15.481   3.530  10.855  0.1610 -0.2416  0.1080
22248W        W37717   0.908  14.103  11.735  0.1434  0.1170 -0.0384
22249W        W37718  18.453  10.605  15.262 -0.0772  0.0743 -0.2592
22250W        W37719   5.489   7.777   2.017 -0.2820 -0.3254 -0.0155
22251W        W37720  12.294   2.503   4.438 -0.4274 -0.4384 -0.1041
22252W        W37721   8.915   4.766   1.235  0.0340  0.3137 -0.0809
22253W        W37722  10.395  15.627   2.012 -0.1276  0.1258  0.3833
22254W        W37723   6.943   0.179  14.653  0.2233 -0.1921  0.1243
22255W        W37724  11.447   4.498   4.934 -0.1934  0.0976 -0.0134
22256W        W37725  14.327  12.190   1.139 -0.4237 -0.0464  0.4972
22257W        W37726  18.758  11.276  13.805 -0.1175  0.1087  0.1419
22258W        W37727   7.251  11.908   2.456 -0.0691 -0.0320 -0.0087
22259W        W37728   0.542   7.294  13.883 -0.0708  0.0367  0.3794
22260W        W37729   0.547   4.643   2.359  0.0074  0.0753 -0.1228
22261W        W37730  13.624  11.212   5.357  0.1426  0.1746  0.0961
22262W        W37731  11.351   0.686   5.331  0.4304 -0.1277  0.1103
22263W        W37732  15.835  10.049   4.496  0.2474 -0.1080 -0.2690
22264W        W37733   6.531   7.333   0.259  0.0854 -0.2071  0.1248
22265W        W37734  18.872  17.443  11.149  0.0610 -0.1779  0.1168
22266W        W37735   7.219   0.842  14.994  0.3238  0.0262  0.2515
22267W        W37736  10.010   7.295   4.223 -0.0152 -0.1498  0.0148
22268W        W37737  11.153   4.839  12.683 -0.3746  0.1088 -0.2551
22269W        W37738   5.141   0.217  10.726  0.0289 -0.1146 -0.3319
22270W        W37739  14.394   3.529   0.087 -0.0430  0.1251  0.0124
22271W        W37740  11.759   5.531   0.740  0.2191 -0.2419  0.0378
22272W        W37741  17.823  16.073   1.252 -0.1373 -0.2080  0.1739
22273W        W37742  15.181   7.544   0.531 -0.0816  0.0627  0.1428
22274W        W37743   7.083   1.155  14.133 -0.0258  0.3496  0.0057
22275W        W37744   4.753  11.728   0.580 -0.0555 -0.4206  0.0370
22276W        W37745  14.058   2.097   4.311  0.3378  0.2071 -0.3435
22277W        W37746   6.963  18.626   2.290 -0.0313 -0.1071  0.0223
22278W        W37747   0.636  11.014   1.297  0.0226  0.0975 -0.3945
22279W        W37748  11.959   1.036   0.237  0.0206  0.4149  0.0917
22280W        W37749   9.370   2.219   3.623 -0.2187 -0.0581  0.0418
22281W        W37750   9.464   9.497   0.981  0.0547  0.1099  0.0526
22282W        W37751   8.056   0.228   5.493  0.1087  0.0308 -0.1327
22283W        W37752   2.901  14.185  13.388 -0.0041  0.1562  0.3519
22284W        W37753   4.632   8.164   0.856  0.1435  0.0246 -0.1776
22285W        W37754   0.078   4.979   3.697  0.0126 -0.0002  0.0467
22286W        W37755  14.592  13.772   3.706  0.2519 -0.2685 -0.0879
22287W        W37756   7.732  10.677   1.717  0.1758  0.0622  0.3224
22288W        W37757  15.349  18.474  10.822 -0.2427 -0.1139 -0.0957
22289W        W37758   8.956   7.849  10.150 -0.0995  0.1074 -0.0269
22290W        W37759   4.083  12.966  14.007 -0.0531 -0.0974 -0.0484
22291W        W37760  13.447   5.091   4.764 -0.0767 -0.0661 -0.2901
22292W        W37761   2.070  16.797   0.827 -0.4000  0.1892  0.2727
22293W        W37762   3.079  12.598   3.516  0.1052 -0.0594 -0.3351
22294W        W37763  18.720  10.056   1.636  0.2491 -0.1362  0.4906
22295W        W37764   1.878   6.617   4.662  0.0593 -0.1286 -0.0935
22296W        W37765   1.559   3.660   1.998  0.1251 -0.0013  0.2779
22297W        W37766  15.814  17.343  11.478  0.2077 -0.0339 -0.0022
22298W        W37767   2.040  13.449   0.215 -0.0752  0.0171  0.0609
22299W        W37768   3.048  18.193  11.326  0.1941  0.5619 -0.1869
22300W        W37769   4.330   2.137   5.265  0.4201 -0.2212 -0.0765
22301W        W37770   0.692   7.788   3.101  0.1884  0.2295  0.0904
22302W        W37771  10.380  11.297  10.849  0.1645 -0.0613  0.0167
22303W        W37772  11.944   6.373  10.178 -0.1645 -0.1626  0.1394
22304W        W37773  17.345  13.741   0.748  0.0062 -0.2907 -0.1375
22305W        W37774   8.466   1.050   3.384  0.0707  0.0292 -0.1342
22306W        W37775  13.064   8.245   1.056  0.2549  0.1709 -0.0983
22307W        W37776  15.521   7.514  10.712  0.3114 -0.4652  0.0151
22308W        W37777   9.883   9.531   5.471  0.1634  0.1637  0.1830
22309W        W37778   7.843  10.543  13.353 -0.1253 -0.0348 -0.3606
22310W        W37779  17.170   1.726  13.971  0.0910  0.0245  0.1026
22311W        W37780   2.397   5.612   3.023  0.0505 -0.0242  0.0771
22312W        W37781   7.824   0.773   2.333 -0.1596 -0.4290 -0.0887
22313W        W37782  13.313   2.195   0.212 -0.0126  0.0402  0.0071
22314W        W37783   6.948   5.197   2.840 -0.1888 -0.1800  0.1110
22315W        W37784   8.072   7.400  13.450 -0.1309 -0.0300 -0.1821
22316W        W37785   0.253  13.890   4.263  0.2007 -0.1049  0.1002
22317W        W37786   3.273   5.473   1.868  0.1483  0.1317  0.1077
22318W        W37787   1.643   0.261  14.992 -0.1264 -0.1020  0.2661
22319W        W37788  18.772  17.711   3.399 -0.2113 -0.1551 -0.2172
22320W        W37789   3.947  10.235  14.115  0.1939 -0.3612  0.0599
22321W        W37790  13.890   9.510   1.142  0.0540 -0.1164  0.4066
22322W        W37791   1.517   8.275  13.298  0.0898 -0.2113  0.1680
22323W        W37792   5.931   9.291   1.240 -0.2226  0.3462 -0.0956
22324W        W37793   8.926  12.866   1.110  0.1341  0.1487 -0.0815
22325W        W37794  11.880   1.733   1.998  0.0304 -0.1256  0.1406
22326W        W37795   2.935  16.599   3.267 -0.0242 -0.0528 -0.0352
22327W        W37796  10.467  16.561   3.519  0.0647 -0.4024  0.4284
22328W        W37797   3.556   9.074   9.939  0.1546 -0.2846  0.4006
22329W        W37798  11.196  11.924   4.177 -0.0989 -0.2284 -0.1540
22330W        W37799   6.620   0.191   3.424 -0.0424  0.0659  0.1608
22331W        W37800   1.681   4.398  15.163  0.1176 -0.1636  0.3376
22332W        W37801   2.203  13.633  14.902 -0.0781  0.3562 -0.6992
22333W        W37802  17.274  13.610  12.333  0.2903  0.1651  0.1614
22334W        W37803  16.638   4.158   1.431 -0.2782 -0.0626  0.1330
22335W        W37804  14.609   7.377   5.136 -0.0110  0.0581 -0.1190
22336W        W37805  18.338  17.685  14.520  0.0934 -0.0379  0.0103
22337W        W37806   3.795  10.987  11.343 -0.2174  0.1091 -0.1478
22338W        W37807  14.704   2.240   5.362  0.0178 -0.4299  0.0891
22339W        W37808   0.059  11.798   5.696  0.0067  0.3109 -0.1881
22340W        W37809  10.398   8.171  13.581 -0.0695  0.3245 -0.2187
22341W        W37810  19.026  14.500   0.345 -0.0209  0.3150 -0.0525
22342W        W37811  11.000  15.605   3.320  0.1584  0.1771 -0.2436
22343W        W37812  12.030  10.844   0.350 -0.0763 -0.2084 -0.0024
22344W        W37813   9.694  17.097   5.654 -0.5542 -0.0760  0.2976
22345W        W37814   5.511  16.501  13.026 -0.0122  0.0026  0.0258
22346W        W37815  11.809   3.028  13.141 -0.1610  0.1519  0.1497
22347W        W37816  10.387  13.307  13.966  0.0850 -0.0184  0.1442
22348W        W37817  16.323   1.741   3.759 -0.1560 -0.1630 -0.1451
22349W        W37818  17.645  12.215  11.438 -0.1347 -0.0156  0.0535
22350W        W37819   2.682   8.065  14.279 -0.2287 -0.4939  0.0036
22351W        W37820  17.786  12.574   0.665  0.0017 -0.0864  0.1739
22352W        W37821   6.002   0.386   3.919 -0.0000 -0.1757 -0.0014
22353W        W37822  18.810   2.030  14.406  0.2235  0.0233 -0.0910
22354W        W37823  11.707  16.983   3.179 -0.0864 -0.0978  0.1822
22355W        W37824   2.123  17.866   0.669 -0.3195 -0.2361 -0.1721
22356W        W37825   6.794  16.562   3.072  0.5347 -0.1200  0.1054
22357W        W37826   4.941   4.478   4.761  0.2736  0.2531 -0.3156
22358W        W37827  18.040  11.787   3.109  0.2500  0.1986  0.0174
22359W        W37828  13.984  12.175  14.375  0.4765 -0.2622  0.0797
22360W        W37829   9.261   9.119  13.896 -0.0778 -0.1928 -0.1292
22361W        W37830  17.725   3.650  10.592  0.2669  0.1416  0.0011
22362W        W37831   4.785  17.124   9.921  0.1197  0.1541 -0.0666
22363W        W37832   3.347  11.044  11.727 -0.2809  0.1301  0.3355
22364W        W37833  16.438   7.937   3.559  0.1913  0.0762 -0.1462
22365W        W37834  18.209  15.542   2.607  0.3184  0.1119  0.0311
22366W        W37835  15.056   5.955  14.001  0.1662  0.1874 -0.1844
22367W        W37836   4.668   9.905   5.437 -0.5198 -0.0001 -0.0445
22368W        W37837  10.850   7.753  11.407  0.0842  0.2070 -0.1141
22369W        W37838   2.721   4.705  12.079  0.1952  0.1071 -0.1665
22370W        W37839   4.815   3.534   9.771  0.2611 -0.1158 -0.1245
22371W        W37840   1.015   7.777  14.349 -0.0186  0.1852  0.1880
22372W        W37841  18.968   9.054  11.645  0.2309 -0.0812  0.0800
22373W        W37842   6.885   0.509   4.295  0.1191  0.4074 -0.1398
22374W        W37843   8.242   8.138   3.994 -0.3537  0.2754  0.2478
22375W        W37844   5.592   2.406   3.598 -0.0794 -0.3021 -0.0535
22376W        W37845  17.780  10.559   5.078  0.0641 -0.1514 -0.2395
22377W        W37846  18.309   0.720   2.572 -0.1840  0.4212  0.3001
22378W        W37847   5.252   0.214  14.688  0.1835 -0.0621 -0.1694
22379W        W37848  13.021  17.345  14.290  0.2802  0.1668  0.1575
22380W        W37849   2.382   7.688  14.318 -0.1128 -0.1984 -0.0944
22381W        W37850  14.062  14.084  11.872  0.2263 -0.3113  0.4155
22382W        W37851   3.755   2.963  10.721  0.0728 -0.1077  0.1046
22383W        W37852   9.269  12.423  11.967 -0.1138  0.2173 -0.1701
22384W        W37853  18.281   5.354   1.452  0.0320 -0.2041 -0.2151
22385W        W37854  11.603  14.298  13.471 -0.0862 -0.3216 -0.0375
22386W        W37855   0.398   2.496   1.051  0.0960 -0.4169 -0.2019
22387W        W37856  16.159   0.821   1.917 -0.3520 -0.0756 -0.0576
22388W        W37857   7.826  10.758   0.231  0.0607 -0.1160 -0.0162
22389W        W37858  10.071  10.813  12.794 -0.0519  0.0080  0.3341
22390W        W37859   7.953  14.734  13.219  0.2756 -0.2596  0.2199
22391W        W37860   8.531   3.937  12.232  0.0343 -0.2015  0.1942
22392W        W37861  10.919   7.827  13.277 -0.2871 -0.2163  0.0624
22393W        W37862   6.228   3.124   3.592  0.0420  0.1344 -0.0809
22394W        W37863  18.455  15.764   5.071  0.1751 -0.0434 -0.0342
22395W        W37864   0.937   3.498   1.149 -0.3066 -0.4067  0.1817
22396W        W37865   9.782   0.316   1.718  0.1715 -0.2132  0.1825
22397W        W37866   5.169   7.760  14.465  0.0536 -0.1693 -0.2255
22398W        W37867   9.047  18.173  11.194  0.1743  0.0943  0.2213
22399W        W37868   5.309   0.737   5.498  0.0645  0.4565  0.0225
22400W        W37869   8.751   2.663  11.026 -0.0765 -0.2114 -0.3539
22401W        W37870   6.002  10.528   5.745 -0.1670  0.2790  0.2269
22402W        W37871   9.430   8.676   1.346  0.1265 -0.5061 -0.1164
22403W        W37872   8.853  11.445   2.349 -0.1644 -0.0628  0.2245
22404W        W37873  10.894  17.582   4.346 -0.1262  0.0212 -0.1972
22405W        W37874   3.871  10.707   1.608 -0.1025  0.0788  0.1889
22406W        W37875   8.642   4.428   1.033  0.0734 -0.1782  0.0550
22407W        W37876   3.573   9.603   5.594 -0.1351  0.1054  0.1552
22408W        W37877  15.200   1.166   0.691 -0.2052  0.2855 -0.1671
22409W        W37878  17.680  17.868   2.913  0.4972  0.0608  0.0756
22410W        W37879   0.604   4.269   4.338 -0.2648  0.0221  0.1713
22411W        W37880  15.302  11.593   2.582  0.2447  0.2335 -0.0061
22412W        W37881   9.233  17.618   4.501 -0.0715 -0.2431 -0.0169
22413W        W37882   5.186   6.234   4.661 -0.0281 -0.1586  0.0886
22414W        W37883   6.013   3.861   0.538  0.0875 -0.0596  0.0530
22415W        W37884   7.956  10.632   9.318  0.2104 -0.0156  0.2014
22416W        W37885   8.755  12.493  10.223  0.4538  0.2901  0.3430
22417W        W37886  12.073  17.866  12.435  0.0211 -0.2360 -0.1714
22418W        W37887   2.819   3.975   1.069  0.1431 -0.1988 -0.0512
22419W        W37888   6.567   9.955   4.714 -0.0575 -0.2733 -0.2368
22420W        W37889  13.571  13.118   2.358  0.2784  0.1831 -0.2454
22421W        W37890  11.888   3.765   2.562  0.2456  0.1165  0.0828
22422W        W37891   1.108  13.709  13.049 -0.3256 -0.0557  0.0325
22423W        W37892   5.970  11.884   5.478 -0.2443  0.1459  0.1575
22424W        W37893   3.010   9.542  14.507 -0.0685 -0.0583  0.0451
22425W        W37894   0.659  13.234  13.134 -0.1188  0.2199  0.1235
22426W        W37895   4.769   3.420  11.594  0.0932  0.0282 -0.3296
22427W        W37896   3.332   5.730  13.314 -0.0577 -0.2588  0.0779
22428W        W37897  16.177   6.868   3.164  0.4290 -0.0899  0.0019
22429W        W37898   5.396   1.255   5.543  0.0887  0.0843 -0.4499
22430W        W37899  11.823  11.019  11.255  0.3341 -0.2619  0.2003
22431W        W37900  14.292  18.194  12.730 -0.0051  0.4458 -0.2109
22432W        W37901   2.904  16.667   2.366 -0.1977  0.3187 -0.0944
22433W        W37902  14.302   0.923  13.864  0.1097  0.1732  0.2753
22434W        W37903   9.002   1.156   0.602  0.1651  0.2877 -0.0295
22435W        W37904  14.691  10.870   4.966  0.3089 -0.0574  0.2421
22436W        W37905  14.978  16.625   0.318  0.0521  0.0500  0.0608
22437W        W37906  16.539   2.735   5.504 -0.4251 -0.2404 -0.0096
22438W        W37907  13.460   6.293   2.626  0.2217  0.2988 -0.2238
22439W        W37908   6.557   2.025  12.230  0.0708 -0.0043 -0.2057
22440W        W37909  18.731  18.813   1.616  0.2320  0.0009 -0.1509
22441W        W37910   7.781   7.362   0.458  0.3189 -0.0411  0.0660
22442W        W37911   4.534   5.152   1.614  0.0990 -0.1403 -0.0011
22443W        W37912   6.949  10.443  11.978 -0.0374  0.1109  0.0955
22444W        W37913  16.985   6.040   4.772 -0.2055 -0.0841  0.0745
22445W        W37914   5.873   4.446  12.735 -0.1303 -0.5740 -0.2324
22446W        W37915  13.553  10.713   9.517  0.0624 -0.1237 -0.1084
22447W        W37916   2.825  17.363  12.371 -0.0014  0.1612  0.1749
22448W        W37917   4.897   4.899   4.941 -0.2058 -0.2962  0.2285
22449W        W37918   3.995  18.778   5.310  0.0441  0.0419 -0.1819
22450W        W37919   4.531  17.116   3.546 -0.0138 -0.0818  0.1544
22451W        W37920  11.543   2.475  13.372  0.0808 -0.0091  0.2902
22452W        W37921   2.003   5.298   4.967  0.0789  0.3175  0.0711
22453W        W37922  18.576   6.336  10.806  0.2698 -0.2278 -0.4915
22454W        W37923  14.428  11.689   1.222  0.2162  0.0293  0.0667
22455W        W37924   6.027  12.315  12.486  0.1187  0.0259  0.1596
22456W        W37925  15.355  18.441  13.700  0.1216  0.0240 -0.2279
22457W        W37926  17.005  12.874   4.115 -0.0791  0.4399  0.1127
22458W        W37927   1.330   8.787  12.092 -0.2025 -0.1014  0.0768
22459W        W37928  17.861   0.615   3.087  0.0662 -0.2479 -0.0514
22460W        W37929   7.302  14.795  11.294  0.1330 -0.2325 -0.2323
22461W        W37930  16.808  17.036   3.596  0.2911 -0.2788 -0.1358
22462W        W37931  15.185  12.769   4.554  0.0500 -0.0959  0.0293
22463W        W37932  14.958  18.598  11.769 -0.1012  0.1394  0.1480
22464W        W37933   7.042   7.707   0.184 -0.2014 -0.1739  0.1109
22465W        W37934   7.774   2.812  12.319  0.1499  0.1016  0.1781
22466W        W37935  15.436  16.777  12.941  0.3550  0.1590 -0.2881
22467W        W37936  17.871  17.684   3.496  0.2736  0.1613  0.3505
22468W        W37937   1.822   2.584   2.503 -0.1269  0.2847  0.0732
22469W        W37938   6.720  17.106   4.232 -0.1031  0.1322  0.1510
22470W        W37939  11.994  10.741   1.740  0.0787 -0.2421 -0.0565
22471W        W37940  11.973  12.506   1.563  0.2530 -0.0450 -0.3680
22472W        W37941  12.846  12.900   2.211 -0.0255  0.0618 -0.2018
22473W        W37942   1.038  12.894   0.259  0.1174 -0.3864  0.0175
22474W        W37943  13.032  10.845   2.221 -0.0405  0.1115  0.3115
22475W        W37944   1.559   2.763   4.508  0.1464  0.0578 -0.0062
22476W        W37945   3.831  14.277   2.487 -0.1655  0.2589 -0.1810
22477W        W37946  14.368   2.922   4.250  0.1287 -0.2061  0.2533
22478W        W37947   6.461  11.559  14.637  0.0106  0.2170  0.0683
22479W        W37948   6.707   4.311   5.488  0.3370 -0.0878 -0.0321
22480W        W37949   8.671  17.396   3.695  0.1042  0.0199  0.1670
22481W        W37950  11.142   8.646  14.400 -0.0187  0.2622 -0.4053
22482W        W37951  11.698   3.593  13.160  0.0737 -0.0668 -0.1418
22483W        W37952   3.206   4.831  15.132  0.2892 -0.0891  0.0060
22484W        W37953   7.607  18.446   0.116  0.1126 -0.1638 -0.0713
22485W        W37954  17.425   0.640   0.476 -0.1200 -0.0482  0.1087
22486W        W37955  14.713  18.209  12.471  0.0844 -0.1369  0.2246
22487W        W37956  17.591  12.697   2.263 -0.0176 -0.1292 -0.0822
22488W        W37957  16.246   3.252   4.317  0.0067  0.1006  0.2117
22489W        W37958  10.180  17.970   4.539  0.1052 -0.1778 -0.1868
22490W        W37959  11.569   4.666   3.267  0.3789 -0.1253  0.2341
22491W        W37960   2.351   8.618   1.094  0.1149  0.1815  0.0550
22492W        W37961  12.834   0.803   9.761 -0.0496  0.0050 -0.2469
22493W        W37962   0.347   1.550   4.759  0.1726 -0.3338 -0.1327
22494W        W37963  10.534  11.828  10.678 -0.1002  0.0359 -0.2513
22495W        W37964   3.346   3.861   2.658 -0.0402 -0.1786 -0.0756
22496W        W37965  12.781  10.593   0.322  0.0622  0.4039  0.1115
22497W        W37966  14.894  11.570  11.953  0.0522 -0.1636  0.0585
22498W        W37967   3.651  12.319   4.681 -0.0027 -0.0949  0.2406
22499W        W37968   3.475   4.426  13.454 -0.1118  0.0979 -0.2862
22500W        W37969   5.046   9.024   1.673  0.1332  0.2170  0.2623
22501W        W37970   4.138  17.605  14.275  0.1880  0.0945  0.2874
22502W        W37971  12.987   1.795   4.336 -0.1639 -0.2981 -0.2723
22503W        W37972  15.029  11.750   2.100  0.0639 -0.0503  0.0514
22504W        W37973  14.256  13.566  11.676 -0.0113 -0.0803  0.0010
22505W        W37974   6.489   6.537  10.438  0.2025 -0.0632 -0.2101
22506W        W37975  15.384  16.052   2.584 -0.4053 -0.1176 -0.0235
22507W        W37976   0.953  14.793  14.950 -0.3684 -0.1027  0.0966
22508W        W37977  13.871   8.170  10.706  0.1981 -0.1379 -0.1265
22509W        W37978  18.665  13.467  14.736  0.3090  0.0177  0.2110
22510W        W37979   7.264   7.495   1.851 -0.1835 -0.1297  0.0325
22511W        W37980  15.545  18.777   0.259  0.0311 -0.1441  0.1703
22512W        W37981   5.784  15.931   1.016  0.1637 -0.0184 -0.0215
22513W        W37982  15.985  10.469  14.674  0.1761  0.1168  0.1100
22514W        W37983  13.856  18.767   1.641  0.0213 -0.2687  0.0516
22515W        W37984   7.705   1.287   5.229  0.4475  0.2793  0.0826
22516W        W37985   8.444   7.504   2.381  0.2206 -0.1337  0.0458
22517W        W37986  16.340   4.335   4.393  0.3931  0.1116 -0.1169
22518W        W37987  14.397   2.421   4.411 -0.2262 -0.2318 -0.2249
22519W        W37988  17.290  14.645   1.892 -0.1906  0.2076  0.1492
22520W        W37989   2.115  11.217   2.113 -0.1345  0.1476  0.0717
22521W        W37990   7.535  15.551  15.232 -0.2008 -0.0656 -0.1409
22522W        W37991   4.739   3.996   4.095 -0.1027  0.0900 -0.1341
22523W        W37992  15.573   1.004   1.553  0.2006  0.0855 -0.1337
22524W        W37993   2.088   6.227  11.431  0.1254 -0.0772 -0.0651
22525W        W37994  15.348   3.162  12.056  0.1693  0.0554  0.2109
22526W        W37995  17.410   5.369   0.220  0.6125 -0.2835  0.1136
22527W        W37996  10.336   9.508  11.884 -0.0599  0.3289  0.1357
22528W        W37997   4.963  18.990  11.135  0.0608 -0.2324  0.2265
22529W        W37998   6.930   8.039   0.699 -0.1282  0.1131 -0.1291
22530W        W37999  17.064   2.387   4.326  0.0896 -0.0032 -0.2389
22531W        W38000  14.648   8.969  10.774  0.1051  0.0771 -0.2599
22532W        W38001  18.959  11.990  11.832  0.1612 -0.1461 -0.3251
22533W        W38002  16.550   6.176   0.421  0.0145  0.1147  0.1437
22534W        W38003  11.282   7.086   2.854 -0.1250 -0.0033  0.3601
22535W        W38004  10.929   3.290   3.866  0.1967  0.2542  0.3867
22536W        W38005  13.733  11.611   1.870  0.0264  0.0001 -0.0475
22537W        W38006  15.790  12.013   2.546  0.0487  0.3110  0.0202
22538W        W38007  17.570  11.949  13.830  0.0887 -0.1327 -0.1888
22539W        W38008  10.276   7.997   0.540 -0.0046  0.0404  0.1478
22540W        W38009   1.111  17.346   3.235  0.2121  0.0445  0.2832
22541W        W38010  15.069  14.248  14.503 -0.0258 -0.2918  0.0180
22542W        W38011  16.001   7.691  12.141 -0.3201  0.2234 -0.5845
22543W        W38012   7.131  16.202   2.370 -0.1668  0.2257 -0.1305
22544W        W38013   1.958  13.297  11.739 -0.1448  0.1130 -0.1744
22545W        W38014  10.031   7.188   0.994  0.0403 -0.0391 -0.0130
22546W        W38015  17.675  18.406   4.543 -0.3756  0.0769  0.2974
22547W        W38016   9.289   9.694   3.736  0.1285  0.1596  0.4318
22548W        W38017   9.736   1.410   0.908  0.0512 -0.1947  0.1518
22549W        W38018   1.269  14.061  12.702 -0.0088  0.2182 -0.1614
22550W        W38019   5.835   2.653  13.229  0.3593 -0.0804  0.0981
22551W        W38020   2.801  15.154   1.177 -0.0891  0.2481  0.0111
22552W        W38021   7.643  10.647  12.758  0.0092 -0.5174  0.2751
22553W        W38022  16.850   7.107   0.344  0.0454 -0.0268 -0.3681
22554W        W38023  13.457   0.952  14.461 -0.1097 -0.1074 -0.1023
22555W        W38024   9.018   2.713   3.113  0.1588  0.1486  0.1054
22556W        W38025  12.942  11.244  13.375  0.0092  0.1948 -0.0665
22557W        W38026   6.505  13.820  15.297 -0.0187 -0.2588 -0.1165
22558W        W38027   4.567   4.874  11.670  0.1923  0.0814  0.2273
22559W        W38028   5.270   4.773  12.480 -0.0715 -0.0932 -0.3745
22560W        W38029  13.963   7.699   1.342 -0.0151 -0.0543 -0.1625
22561W        W38030   1.098   2.046   3.042 -0.0892  0.2507 -0.4252
22562W        W38031  12.104  11.440  11.494  0.1269  0.0046 -0.1655
22563W        W38032  10.287   1.891   4.573 -0.0497  0.0770  0.1700
22564W        W38033   0.816   7.897  12.632 -0.0764 -0.1093  0.1138
22565W        W38034  11.187   7.627   0.515  0.2385 -0.0817 -0.5302
22566W        W38035  17.592   0.691  10.107  0.0499  0.2109 -0.0305
22567W        W38036   9.538  13.658   2.664  0.0659 -0.1975  0.0511
22568W        W38037   7.266   8.385   9.569 -0.0366 -0.1112 -0.0171
22569W        W38038  13.974  11.775  13.956  0.1932 -0.5085  0.0190
22570W        W38039   8.108   4.376   4.454  0.0339  0.1828  0.0050
22571W        W38040   2.640   1.341   4.289 -0.0839 -0.2027 -0.0780
22572W        W38041   8.770  17.861  15.264 -0.0882  0.2475 -0.0648
22573W        W38042   0.885   4.948   0.920  0.0562  0.4627 -0.2696
22574W        W38043   7.652  11.675   0.125  0.0415 -0.2679  0.0203
22575W        W38044   1.483  12.685   3.099  0.0398 -0.0422  0.0590
22576W        W38045   9.300   7.966   4.527  0.1319  0.0737 -0.2864
22577W        W38046  14.212  13.872  14.399 -0.3262  0.0659  0.0523
22578W        W38047  13.235  15.063   1.727 -0.0215 -0.1210  0.2140
22579W        W38048  10.851  10.755   3.562 -0.1132  0.0916 -0.1591
22580W        W38049   5.350  11.790   0.782 -0.1253 -0.0274  0.3254
22581W        W38050   8.017  17.803  12.103  0.0431 -0.2374 -0.0407
22582W        W38051   0.195   2.714  13.806  0.1007  0.2047  0.2102
22583W        W38052  12.361   5.004  14.301  0.1638 -0.0619  0.2119
22584W        W38053   5.859  16.356  12.094  0.0589 -0.0813  0.2886
22585W        W38054  14.557   8.158   4.592  0.1802 -0.1640  0.2993
22586W        W38055  12.283   8.207   1.560  0.0008 -0.4684  0.1908
22587W        W38056   9.014   5.992   2.599  0.2516  0.2257 -0.1254
22588W        W38057   5.914   8.942  15.322  0.1598  0.2481 -0.0209
22589W        W38058   1.623   8.854  13.508 -0.0649  0.0095 -0.0085
22590W        W38059  15.747  10.220  11.294 -0.0902  0.1517 -0.0185
22591W        W38060   1.275  18.316   4.466  0.1552  0.0969  0.3033
22592W        W38061   7.330  15.067   1.536 -0.1843  0.0245  0.0079
22593W        W38062  15.300   5.286   0.954  0.0873 -0.0668 -0.0570
22594W        W38063  11.726   7.128   1.903  0.0447 -0.0337 -0.3297
22595W        W38064  12.651  14.816   5.089 -0.3480 -0.1894  0.2870
22596W        W38065   7.886  10.611   3.126  0.0236 -0.0744 -0.0384
22597W        W38066   5.144  16.505  11.953 -0.0905 -0.2236  0.2207
22598W        W38067   2.402  13.293  12.578 -0.0024  0.1712 -0.1319
22599W        W38068  14.262   9.103  14.704  0.1289  0.0893  0.1998
22600W        W38069  12.272  17.762  11.421  0.1158 -0.1052 -0.1066
22601W        W38070  17.576   1.840   2.437  0.0935 -0.0343 -0.2129
22602W        W38071  18.191  11.542   0.772  0.1222 -0.1409  0.1772
22603W        W38072  10.387   2.812   3.049 -0.0283 -0.0328 -0.0544
22604W        W38073  14.652   6.799   9.996 -0.2689  0.0068 -0.3303
22605W        W38074  13.914  15.093   4.387 -0.3795  0.1674 -0.0292
22606W        W38075   8.164  15.341  12.796 -0.3391  0.1906  0.0681
22607W        W38076   9.577  16.997   3.765  0.0677  0.0398 -0.0370
22608W        W38077   7.017  15.834   4.141  0.1377 -0.0220 -0.3662
22609W        W38078  10.650   0.047   0.693 -0.2193 -0.2042  0.0495
22610W        W38079   4.670   1.867  11.333  0.0370 -0.3164 -0.0285
22611W        W38080  16.690  16.192  12.501  0.0113 -0.1213  0.0103
22612W        W38081  15.531  18.662  13.242  0.2443  0.0605  0.0774
22613W        W38082  11.634   1.954  11.846 -0.0689  0.0323 -0.1782
22614W        W38083   4.682   7.732  12.176 -0.1310  0.0319  0.0229
22615W        W38084  12.338   3.783   5.720  0.4741 -0.1545  0.0729
22616W        W38085   1.456  18.245  15.284  0.2163  0.1559 -0.1636
22617W        W38086   3.032  11.610   9.708 -0.1089 -0.2279  0.0474
22618W        W38087  12.852  11.098  12.228 -0.2947  0.2510 -0.1528
22619W        W38088   8.738   6.388  15.119  0.0041  0.5240 -0.0933
22620W        W38089   6.543   9.954  11.052  0.0227  0.1355  0.2303
22621W        W38090   1.807   2.833   3.992 -0.3544  0.0625 -0.0504
22622W        W38091  17.508  11.697   2.262 -0.2203  0.1397 -0.0142
22623W        W38092  13.859   9.403   9.978 -0.5606 -0.3637 -0.1565
22624W        W38093  15.044   2.930  14.178  0.3137  0.2989  0.2984
22625W        W38094  16.274   6.456   4.670 -0.3072 -0.0023  0.2073
22626W        W38095  10.208   7.958  14.522  0.1431 -0.2072  0.1519
22627W        W38096  16.349  13.434  13.060 -0.2762  0.0856 -0.1484
22628W        W38097   5.181  16.596  15.266 -0.0577 -0.0389 -0.2191
22629W        W38098  15.981   0.052  13.111 -0.1760 -0.0558  0.1603
22630W        W38099  18.619   8.831  12.258  0.0661  0.1657  0.1946
22631W        W38100   3.048  11.286   0.514 -0.1395 -0.4493  0.0624
22632W        W38101  17.224  17.021  10.706 -0.1956  0.0706 -0.0740
22633W        W38102  11.248   3.078  11.864 -0.0873  0.0110  0.0519
22634W        W38103  16.685  10.573  10.129  0.7428 -0.1336  0.1358
22635W        W38104   6.336  18.187  12.436  0.0626 -0.0205 -0.4803
22636W        W38105   5.420   7.506  10.111  0.4039 -0.1332 -0.2116
22637W        W38106  17.709   6.014  14.978 -0.1678  0.1747  0.0802
22638W        W38107   1.129  13.827  14.747  0.0965  0.2328  0.0649
22639W        W38108  18.286   1.955  10.281  0.2155 -0.2431 -0.1660
22640W        W38109   8.211  11.187   3.272  0.2072 -0.1261  0.1489
22641W        W38110  17.396  12.777   9.553 -0.3447  0.1348  0.1269
22642W        W38111  16.108   0.205  14.903 -0.1425 -0.2615  0.1933
22643W        W38112   2.965   6.515   0.107 -0.1824  0.1801  0.1718
22644W        W38113   2.452  16.577   5.060  0.0356 -0.2946 -0.0800
22645W        W38114   0.354  12.209   0.902 -0.1720  0.1880  0.3241
22646W        W38115  10.666  10.131  12.936  0.2521  0.0511  0.0520
22647W        W38116  16.984   8.003   0.170  0.0083 -0.3238 -0.1607
22648W        W38117  15.701  10.765   3.494  0.0447 -0.5804 -0.0370
22649W        W38118  15.616   8.028   0.997  0.1017  0.2431 -0.0181
22650W        W38119   8.780   7.557  10.890  0.2362 -0.2072 -0.0470
22651W        W38120   3.904   9.783   4.901 -0.3154  0.0237 -0.5574
22652W        W38121   7.559   5.140  12.914 -0.1415 -0.0689  0.0494
22653W        W38122   0.535  17.359  12.694  0.2200 -0.1181  0.2802
22654W        W38123  15.879  11.308  11.087 -0.0919 -0.0286 -0.1666
22655W        W38124  18.568  10.083   0.045 -0.3943  0.2129 -0.0858
22656W        W38125  15.581   6.935   4.564  0.2345 -0.1584 -0.1574
22657W        W38126   4.646  15.613  11.064 -0.1123 -0.2238  0.1704
22658W        W38127   3.764  13.152  11.313  0.2383 -0.1067  0.2331
22659W        W38128  19.011   0.553  11.608 -0.3048  0.4181 -0.1355
22660W        W38129  10.730  18.591   3.551 -0.1179 -0.2337  0.0356
22661W        W38130   6.170  14.543  14.087 -0.2470  0.2839 -0.1328
22662W        W38131   8.885  12.471   2.659  0.0628 -0.0885  0.0792
22663W        W38132  18.809   6.072   2.089 -0.0757  0.1459  0.1401
22664W        W38133   7.690   6.595   2.732  0.1775 -0.3625 -0.0546
22665W        W38134   7.435  12.709  14.603  0.1560  0.2258 -0.1493
22666W        W38135   8.132  18.976   4.958  0.0580 -0.0422 -0.1500
22667W        W38136   3.218  11.061  10.241 -0.0614 -0.1682  0.0481
22668W        W38137  17.497   3.110  11.410 -0.2660 -0.0334  0.3218
22669W        W38138  17.131  13.708   5.524 -0.1985  0.1353 -0.1850
22670W        W38139   8.569   4.757  15.098  0.1077 -0.1604 -0.1907
22671W        W38140  10.016  15.132   3.311 -0.0360  0.1654 -0.0210
22672W        W38141   7.912  12.977  13.125 -0.2048  0.1370 -0.1575
22673W        W38142  13.036  13.393  10.646 -0.0939 -0.0056 -0.0493
22674W        W38143   5.571   8.400   1.131  0.0355  0.0966  0.1035
22675W        W38144  17.725  14.594   9.455 -0.1343 -0.0572  0.1528
22676W        W38145   7.215   9.759   1.775 -0.2749  0.1627  0.2560
22677W        W38146  11.362  12.534  13.438  0.0895  0.3054 -0.1040
22678W        W38147   3.661  11.029   0.333  0.0152 -0.4322 -0.0054
22679W        W38148   6.813  14.027  13.611 -0.1719 -0.1941 -0.0461
22680W        W38149   3.831  14.680   0.572 -0.0086  0.3564  0.2662
22681W        W38150  10.851   2.167   3.070 -0.2091  0.2235  0.0216
22682W        W38151   9.361   7.709   0.488  0.0939  0.3288  0.0098
22683W        W38152   0.710  13.715  12.709 -0.2283  0.2682  0.2812
22684W        W38153   7.155  11.050  11.153  0.0016 -0.1970  0.0637
22685W        W38154   6.469  18.993   0.958  0.0420  0.1338 -0.0541
22686W        W38155   6.684   0.477   1.297  0.0024  0.0699 -0.3026
22687W        W38156   4.294   3.540  12.829  0.0304 -0.1474  0.1181
22688W        W38157   0.551   6.394  14.694 -0.1081 -0.2701 -0.0320
22689W        W38158  11.578   7.326   4.046 -0.0223  0.0167  0.3570
22690W        W38159  16.226  17.886   2.919  0.0656  0.1083 -0.1095
22691W        W38160  12.312  12.606   4.108 -0.0982 -0.0047  0.1409
22692W        W38161   9.362   7.533  15.061 -0.0090 -0.3518 -0.1670
22693W        W38162  10.506   7.517  11.710 -0.0626 -0.0322 -0.0391
22694W        W38163   4.018   1.017   1.541 -0.1852 -0.0371  0.3978
22695W        W38164   4.976   8.597   0.010  0.1115 -0.1403  0.0307
22696W        W38165   4.158   1.565  10.395  0.2493 -0.0341  0.0535
22697W        W38166  16.366  13.913  13.226  0.0931 -0.1382  0.1420
22698W        W38167  16.277   7.520   4.687 -0.3578 -0.2639 -0.0624
22699W        W38168  12.857  14.928  12.271  0.2677  0.0963 -0.1451
22700W        W38169  15.890  18.786  10.109  0.6035  0.1875 -0.0170
22701W        W38170   5.134  11.771  13.575 -0.0808  0.0228  0.1032
22702W        W38171   8.820  17.349  10.602  0.1553  0.0171 -0.0679
22703W        W38172  18.200   4.357   3.341 -0.0787  0.1064 -0.0018
22704W        W38173  18.607   5.667   1.267  0.2286 -0.0307 -0.0050
22705W        W38174   1.684   8.586   2.683  0.1103  0.0443  0.2203
22706W        W38175   3.563   8.235   2.006 -0.1850  0.1454 -0.1694
22707W        W38176   2.995   8.935   2.527  0.0487  0.0784  0.2573
22708W        W38177   5.219  11.834  11.717 -0.1618 -0.0389 -0.0076
22709W        W38178   1.281  13.548  10.500 -0.2207 -0.1407  0.1018
22710W        W38179  17.445  11.826  11.797 -0.1729  0.0139  0.0345
22711W        W38180   3.645   8.878   3.737 -0.3696  0.1201  0.0456
22712W        W38181  18.887   1.879   2.576 -0.1277  0.3618 -0.1244
22713W        W38182  14.913   6.935  12.806 -0.1951 -0.1704  0.1625
22714W        W38183   1.935  10.764  14.356 -0.0271  0.0010 -0.2808
22715W        W38184  16.634  19.003  14.852  0.1317 -0.1096  0.0851
22716W        W38185  15.764   4.029  15.135 -0.0733 -0.0824  0.1421
22717W        W38186   3.970  18.254   9.976  0.6324 -0.0687  0.2397
22718W        W38187  15.889  16.646   3.866  0.1882  0.1635 -0.1070
22719W        W38188   4.703   2.568   3.446  0.5359  0.1244 -0.0528
22720W        W38189   9.655   3.974   3.718  0.0625 -0.1413 -0.1289
22721W        W38190  14.338  16.839  10.844  0.2331  0.1702 -0.0613
22722W        W38191   0.175  16.566   0.597 -0.0954  0.1482 -0.1682
22723W        W38192  16.832   7.635   4.600 -0.2575  0.0641 -0.2897
22724W        W38193  10.487   6.732  14.715  0.0288 -0.0718 -0.1784
22725W        W38194   8.201   9.759   2.989 -0.0292 -0.0436 -0.1831
22726W        W38195  16.001   1.086  12.039 -0.3916 -0.0032 -0.1179
22727W        W38196   2.322  16.339   4.665 -0.2028  0.0738  0.0455
22728W        W38197   0.737   8.318  14.481  0.1878  0.4958 -0.0702
22729W        W38198  17.912  16.297  10.808  0.0869 -0.1551 -0.0759
22730W        W38199   4.397  12.265  14.096 -0.4348  0.0779 -0.1764
22731W        W38200  16.922  16.353  11.540  0.0192  0.2001  0.0331
22732W        W38201   4.631   4.547   5.830 -0.0230  0.1565  0.0482
22733W        W38202   8.686  18.577  14.442 -0.1015  0.0549 -0.0129
22734W        W38203   4.235  17.217  12.397 -0.2166  0.0226  0.0469
22735W        W38204   9.008   4.405  14.809  0.2331  0.0212 -0.1985
22736W        W38205   2.905   1.987  12.333 -0.2432  0.3904 -0.2399
22737W        W38206  15.016   5.673   4.823 -0.4859  0.2984  0.3621
22738W        W38207   6.905  16.661   0.617  0.2055  0.2934 -0.1585
22739W        W38208   3.764  11.379   4.564  0.1342 -0.0900 -0.0315
22740W        W38209   2.508   0.475  14.843 -0.1644  0.0268 -0.1463
22741W        W38210  13.995  11.614  11.310 -0.0929 -0.0501  0.1959
22742W        W38211   9.830   8.889   0.173  0.5147 -0.2385 -0.0899
22743W        W38212   0.646  15.949   0.931  0.2190  0.0570  0.2009
22744W        W38213   0.788  11.709  14.325  0.3989  0.3235 -0.1440
22745W        W38214   0.467   6.673   3.878  0.0174  0.1107  0.1457
22746W        W38215  18.887  17.049  13.957 -0.0619  0.1781  0.0191
22747W        W38216   9.495   7.115   3.179 -0.0048  0.1025  0.1478
22748W        W38217  16.266   3.223   2.935 -0.0739  0.3948 -0.1196
22749W        W38218  10.532  10.942  13.018  0.0671 -0.0461  0.1119
22750W        W38219  15.482   0.256  14.917  0.0468  0.0198  0.5536
22751W        W38220   7.590  16.637  11.500  0.0312 -0.0491 -0.1890
22752W        W38221   2.972   7.599  13.401  0.2291  0.0361  0.2673
22753W        W38222  12.281   9.173   1.406 -0.0643  0.1023  0.1526
22754W        W38223  15.730   6.239   0.996 -0.0801 -0.4503  0.2387
22755W        W38224  18.869  12.781  12.463 -0.0809 -0.1768 -0.1337
22756W        W38225   3.883   5.149  14.889 -0.3251  0.0499 -0.2888
22757W        W38226  17.002  18.154   5.054 -0.2231 -0.1343  0.2490
22758W        W38227   0.696  14.550   3.612 -0.0863 -0.1330 -0.0610
22759W        W38228   0.454  14.819  15.110  0.0419  0.2466  0.0483
22760W        W38229  13.483  16.057  15.143 -0.1411  0.2129 -0.1637
22761W        W38230   7.094   2.254   5.434 -0.3197  0.2163  0.0637
22762W        W38231   0.406  10.920   5.087  0.1224  0.1914 -0.0092
22763W        W38232  13.494  10.873   2.525  0.0531 -0.4401 -0.1840
22764W        W38233   5.658  17.751  15.346  0.0507 -0.1797  0.0197
22765W        W38234   7.583   4.394   4.746  0.0138  0.1174  0.0848
22766W        W38235   3.756  11.539   3.955  0.0158 -0.3344  0.2000
22767W        W38236   7.868  17.604   1.614  0.1259  0.3198 -0.0563
22768W        W38237   1.673   8.843  12.974 -0.1014  0.0587 -0.0664
22769W        W38238  13.980   9.579   4.895 -0.2110 -0.1134 -0.0433
22770W        W38239   4.762  10.379   3.240 -0.1422  0.0739  0.0972
22771W        W38240   1.341   2.458   4.862 -0.1421  0.1422 -0.1538
22772W        W38241   8.466   0.073   4.004 -0.0042 -0.2373 -0.1543
22773W        W38242   0.038   4.216   4.205  0.5250  0.2782  0.0000
22774W        W38243  15.005   3.247   3.870 -0.0107  0.3055  0.1435
22775W        W38244   7.499  13.298  11.462 -0.1881  0.1296 -0.0921
22776W        W38245   1.271   2.464   9.644 -0.0244  0.0939  0.0106
22777W        W38246   4.551   9.218   1.675  0.0895  0.0349 -0.3827
22778W        W38247   1.615  10.731  12.497  0.0800  0.0110  0.0747
22779W        W38248   4.016  11.228   1.079  0.0669  0.0098  0.0545
22780W        W38249  15.646   3.307   0.071  0.1263  0.0694 -0.0742
22781W        W38250  12.259   2.181  13.393 -0.4072  0.3523 -0.0261
22782W        W38251  12.426   2.130   5.142  0.0235  0.4188 -0.0994
22783W        W38252   8.236  11.535  14.701  0.2889 -0.0152 -0.4528
22784W        W38253   2.455  18.292   2.632 -0.2958 -0.1866 -0.0059
22785W        W38254   2.628  13.050   0.659  0.3584 -0.1338  0.0469
22786W        W38255   9.013   8.023  10.629  0.0848  0.0379 -0.1925
22787W        W38256   3.370   5.430   4.842  0.2159 -0.1799  0.0607
22788W        W38257  15.187  10.441  11.963 -0.2878  0.2194  0.0645
22789W        W38258  12.194  16.841   3.256 -0.1106  0.0777  0.3733
22790W        W38259  14.859  11.916   2.667  0.0598 -0.1131  0.0961
22791W        W38260   6.933  17.074  14.147  0.2819  0.1631  0.0549
22792W        W38261   9.404  11.147  12.457 -0.4855 -0.0810  0.1717
22793W        W38262   6.918   4.298  11.799  0.0244  0.1573  0.2054
22794W        W38263  18.862   9.212  14.571 -0.0236 -0.0933 -0.1641
22795W        W38264   4.868  12.269  14.975  0.1256  0.0098 -0.1504
22796W        W38265  10.714   4.168   3.195  0.0668  0.3131  0.0567
22797W        W38266   5.224  14.933   1.643  0.0132  0.1542  0.1739
22798W        W38267  10.191   3.132   5.092 -0.0251  0.1510  0.2496
22799W        W38268   5.763   1.567   4.738 -0.0501  0.1680  0.3996
22800W        W38269   8.673   7.851   3.814 -0.0794 -0.0757  0.1092
22801W        W38270   0.539   1.737   5.705 -0.1779  0.0724 -0.1727
22802W        W38271   0.217   4.261  11.146  0.0532  0.1754 -0.1479
22803W        W38272   6.819  18.132   0.527 -0.1398 -0.0586  0.0833
22804W        W38273  13.218  16.300   0.745  0.2154 -0.2502  0.2820
22805W        W38274  10.274  18.470   1.436 -0.1133  0.2100  0.0658
22806W        W38275   8.670  10.221  11.885  0.1149 -0.2674  0.1798
22807W        W38276  13.723  16.694  14.544 -0.1385 -0.0069  0.3774
22808W        W38277   4.746  13.674  15.108  0.1702  0.1413 -0.2432
22809W        W38278   9.960  15.444  12.786 -0.3926  0.3695 -0.0727
22810W        W38279   5.387  18.543  12.358  0.2230  0.0650  0.2623
22811W        W38280  11.748   1.537  12.209  0.0557 -0.2476 -0.0139
22812W        W38281   0.751   5.343  12.952 -0.0146 -0.0118  0.1477
22813W        W38282   9.083   3.677  14.433  0.3644 -0.1023 -0.2143
22814W        W38283  11.186   3.009   3.482  0.0192  0.0654 -0.0959
22815W        W38284  17.158  10.432  12.566 -0.0458  0.3903 -0.0359
22816W        W38285  18.679   5.305   1.731  0.3243  0.2559  0.1124
22817W        W38286   8.645  13.332  14.583  0.3789 -0.0133  0.1582
22818W        W38287   4.741   8.016  14.455  0.0183  0.0257 -0.1579
22819W        W38288   3.698   7.618   9.487  0.2562  0.2621 -0.3225
22820W        W38289   0.133  13.410  13.259 -0.1696 -0.3586 -0.0246
22821W        W38290   4.203   9.058  12.068 -0.0294 -0.1487  0.3619
22822W        W38291   4.224   0.803   0.815 -0.2336  0.2562 -0.0326
22823W        W38292  14.569  12.154   4.106  0.1983 -0.2673  0.3652
22824W        W38293  13.478   1.772   0.486  0.0295  0.0237 -0.0798
22825W        W38294   3.029   0.361   2.136  0.2758 -0.3722 -0.1168
22826W        W38295  16.702  14.421   2.365 -0.0653  0.2297 -0.0521
22827W        W38296   0.384  11.494  14.046 -0.3696  0.1195  0.1548
22828W        W38297   9.077  18.784  11.659 -0.0078 -0.1407  0.1238
22829W        W38298   5.632  14.769  14.821 -0.0663 -0.0243 -0.3223
22830W        W38299  12.255  12.967  11.129 -0.0694  0.2262 -0.4267
22831W        W38300  15.504  13.539  13.860 -0.0635 -0.1126 -0.3077
22832W        W38301  11.972  17.817   3.044 -0.2035  0.3730 -0.3288
22833W        W38302   7.824  14.332   1.744 -0.2842 -0.0900  0.3557
22834W        W38303  15.891  12.467   2.750  0.3260  0.1625  0.2746
22835W        W38304  10.242   5.955   0.875 -0.5843 -0.1270 -0.0527
22836W        W38305   4.466  18.030  15.051  0.0414 -0.0319 -0.2704
22837W        W38306   6.789  10.692  12.545  0.1065 -0.2915  0.1133
22838W        W38307   3.074   0.994  14.208 -0.0541  0.0301 -0.0796
22839W        W38308  12.586   3.314  10.487  0.0372 -0.3368  0.0652
22840W        W38309  16.790   9.759   1.813  0.0290 -0.1444  0.4171
22841W        W38310  17.768   0.120  11.008  0.1980  0.0569  0.1119
22842W        W38311  13.335  11.830   3.726  0.0677 -0.2920  0.3059
22843W        W38312   1.200  18.097   1.198  0.1034 -0.0356 -0.0362
22844W        W38313  12.560   5.588   2.671 -0.1220 -0.1030  0.0437
22845W        W38314   8.736   8.473  12.623  0.0775 -0.0062  0.3150
22846W        W38315   8.166  14.175  10.694 -0.0057  0.1200 -0.0109
22847W        W38316  16.104  17.124  14.915 -0.0949 -0.0257  0.0460
22848W        W38317  14.704   3.900   1.390  0.0560 -0.2108  0.1057
22849W        W38318   5.018  16.442  10.642  0.1335  0.1479  0.3078
22850W        W38319   6.304  14.243  13.591 -0.3886  0.0738  0.2095
22851W        W38320  11.770  16.267   0.956 -0.1033  0.0201  0.1656
22852W        W38321   6.897   5.935  12.761  0.0970  0.2452  0.0022
22853W        W38322  14.166  13.020   0.986 -0.0344 -0.2434  0.2009
22854W        W38323   6.271   6.347   2.673  0.0027 -0.0165 -0.1306
22855W        W38324   4.986   8.250   2.913 -0.3604 -0.0353  0.1513
22856W        W38325  12.255  18.674   9.792  0.1744  0.3269 -0.1495
22857W        W38326   6.574   9.869  13.612  0.2613 -0.0851 -0.1790
22858W        W38327   6.007  12.152  13.978  0.0462  0.0900  0.0670
22859W        W38328  12.071   6.169  14.774  0.1520  0.1367 -0.4649
22860W        W38329  14.078   3.651  12.116 -0.1945 -0.1127 -0.2529
22861W        W38330  14.872  12.395   2.584  0.0273 -0.0386  0.0509
22862W        W38331   9.449  16.226  12.323 -0.0647 -0.1427 -0.0457
22863W        W38332  17.206  15.186  14.401 -0.0429  0.1837  0.2930
22864W        W38333   8.040   3.052   2.073  0.3593 -0.0754  0.0143
22865W        W38334   5.854   7.758  12.814 -0.0393  0.0467  0.0089
22866W        W38335   1.966  14.187   1.525 -0.1984  0.1083  0.1809
22867W        W38336  18.594  16.329   9.380 -0.1115 -0.2003  0.1127
22868W        W38337   1.090  16.555   4.259 -0.0794  0.2461  0.2120
22869W        W38338   3.536  18.669   2.794 -0.1608  0.2329  0.0235
22870W        W38339  12.261   4.973   9.255  0.0017 -0.0968  0.3024
22871W        W38340  14.902  11.474   3.570 -0.2218 -0.0902 -0.3071
22872W        W38341   7.415  10.800  13.551 -0.2787 -0.1786  0.2889
22873W        W38342  12.624   2.629  11.575 -0.2315  0.2378 -0.4248
22874W        W38343   3.636   4.016  15.341 -0.0796 -0.3422 -0.0023
22875W        W38344   5.107  16.657  13.846  0.2290  0.2010  0.4415
22876W        W38345  13.094  16.644   0.007  0.0827  0.1792  0.1478
22877W        W38346   3.352   9.321  12.771 -0.1478 -0.0269 -0.0763
22878W        W38347  12.638   7.669   9.955 -0.0944  0.2143 -0.4582
22879W        W38348  17.041  10.996   4.315  0.0820 -0.2025 -0.0579
22880W        W38349  11.778   7.552  14.664 -0.1501  0.1629 -0.0966
22881W        W38350  18.721   4.892   2.791  0.0212 -0.0439  0.0076
22882W        W38351  18.870   4.174   1.191  0.0885  0.1779  0.2687
22883W        W38352   9.998   8.681   1.273  0.1564  0.2952 -0.0253
22884W        W38353  11.340   4.259  11.239 -0.0470 -0.1479  0.1848
22885W        W38354  17.430  15.836   2.995 -0.1249  0.1688 -0.0240
22886W        W38355   3.979   8.603   2.809  0.1915 -0.4492  0.0437
22887W        W38356   0.487   0.812  13.977  0.1720 -0.0208 -0.0059
22888W        W38357   3.568   9.862  12.093  0.2382  0.1855  0.3874
22889W        W38358  14.504  13.815   1.168 -0.1463  0.3162 -0.0562
22890W        W38359  15.359   5.533  15.276 -0.0905  0.0487  0.1103
22891W        W38360   4.820  12.098  12.001 -0.0062 -0.5321 -0.1165
22892W        W38361   6.441   9.675   5.723 -0.1019  0.0587 -0.1044
22893W        W38362  19.018   1.813  13.728  0.1447  0.0972  0.0956
22894W        W38363   7.187   5.522   0.732  0.3960  0.3173  0.0444
22895W        W38364   9.917   9.555  12.281 -0.0159  0.3575 -0.0687
22896W        W38365  12.889  18.527  14.029  0.0089  0.0920 -0.1734
22897W        W38366  10.451  16.343  15.241  0.0302 -0.3615 -0.1328
22898W        W38367  13.372  10.088   4.053  0.2070  0.0959  0.1928
22899W        W38368   1.868  13.399   3.680 -0.2041  0.2000 -0.0634
22900W        W38369   1.450   2.689  10.597  0.1295 -0.0690 -0.2155
22901W        W38370  14.187  18.129  11.260  0.1893 -0.2925 -0.1701
22902W        W38371   8.377  10.499   3.177 -0.1716 -0.0331  0.4146
22903W        W38372  17.075   8.129   4.616  0.4762 -0.3891 -0.0152
22904W        W38373   1.640   0.830  12.680  0.2082  0.0950 -0.1437
22905W        W38374   3.890   2.298  13.557  0.0284 -0.0955  0.0171
22906W        W38375   3.628  17.833  10.857  0.1730  0.2437 -0.0892
22907W        W38376  15.590   3.668  11.901  0.2568  0.1041 -0.0540
22908W        W38377   3.983  11.390   0.607  0.0076  0.2152 -0.0040
22909W        W38378   7.999  16.890   0.135 -0.3001  0.1662 -0.0861
22910W        W38379  15.524  17.501   1.548 -0.1948  0.2883  0.3720
22911W        W38380   4.266   8.924   3.017  0.0352 -0.0654  0.0268
22912W        W38381  15.392   0.132   0.007 -0.1172  0.1766 -0.0535
22913W        W38382   3.748  16.492   2.580 -0.1850 -0.1516 -0.1564
22914W        W38383   6.533   6.471   2.230 -0.0427 -0.2201 -0.1451
22915W        W38384  15.454   1.547   3.749 -0.2457  0.0215  0.2420
22916W        W38385  17.618   5.530  11.104  0.0137  0.1121  0.1186
22917W        W38386  11.823   1.244   1.312  0.0350 -0.1999 -0.0615
22918W        W38387   3.007   0.980   5.069  0.2481 -0.2450  0.1623
22919W        W38388  18.651   1.329  13.670 -0.0528  0.1232  0.4999
22920W        W38389   7.107   3.811  14.097  0.1817  0.2902 -0.2243
22921W        W38390   8.110   8.662  11.144 -0.0855 -0.0060  0.0276
22922W        W38391  10.573   1.751   0.927 -0.0351 -0.3615  0.4048
22923W        W38392   2.041   0.015  15.357 -0.2346  0.2182 -0.0067
22924W        W38393  15.586  18.556  11.801  0.0183  0.1462  0.1112
22925W        W38394   9.503   2.718   4.618  0.1239 -0.2309 -0.1187
22926W        W38395   2.661   0.650  11.661 -0.0630 -0.3559 -0.0682
22927W        W38396   3.947   0.502  12.243 -0.1764  0.0080  0.0293
22928W        W38397   8.331   0.887   4.414  0.2279  0.1461  0.4076
22929W        W38398   4.032   9.885   0.359  0.0797 -0.6015 -0.1773
22930W        W38399   1.097  13.514   1.498  0.1398 -0.0460 -0.2820
22931W        W38400  15.254   0.059   9.036  0.1794  0.0537  0.0763
22932W        W38401  18.443   0.800  14.679  0.2243  0.0481  0.3581
22933W        W38402  15.915   4.964  14.887 -0.3297  0.1169  0.3331
22934W        W38403  16.143   3.498   1.891  0.1827 -0.0079  0.0488
22935W        W38404   6.141  13.604   0.834 -0.0729 -0.1962  0.0437
22936W        W38405  18.678   2.203   0.857 -0.1552 -0.0849 -0.1192
22937W        W38406  15.208   1.920   9.813 -0.2431 -0.0127  0.2057
22938W        W38407  12.034   3.498   0.625 -0.1896  0.0521  0.1755
22939W        W38408   5.845   8.166   3.882 -0.1987 -0.3107 -0.0850
22940W        W38409  10.763   8.054  11.858  0.1299 -0.3893 -0.0234
22941W        W38410  17.007  13.248   3.601  0.3218 -0.0129 -0.3190
22942W        W38411  12.185   5.030   3.924 -0.0403 -0.0134 -0.0531
22943W        W38412  10.123   5.591  13.758  0.3511  0.0517 -0.2153
22944W        W38413   3.287  14.697   3.277 -0.0637 -0.0788 -0.0764
22945W        W38414   1.515   4.068  14.086  0.0850 -0.2815 -0.0101
22946W        W38415   2.135   3.940  11.920 -0.1584  0.0660 -0.1015
22947W        W38416   9.525   8.082  13.122 -0.1790 -0.2542  0.1051
22948W        W38417   9.792  15.677  11.829  0.1949 -0.1130 -0.0661
22949W        W38418  13.516   2.923  13.906 -0.1913  0.2384 -0.2752
22950W        W38419   2.165  14.356   0.711 -0.0236  0.3178  0.1739
22951W        W38420   3.708   9.255  14.663 -0.2420 -0.1718  0.1202
22952W        W38421  12.966   6.751  12.850  0.0310 -0.0149 -0.0735
22953W        W38422  14.390  12.315  14.700 -0.0163  0.0478 -0.1722
22954W        W38423  10.438  11.406  13.960 -0.0218  0.1818 -0.1175
22955W        W38424   8.186  14.055   1.520  0.0931 -0.1319  0.1586
22956W        W38425   8.607  11.195   4.045 -0.0536  0.2162  0.1376
22957W        W38426   4.294   0.819   0.260 -0.1933  0.0233 -0.0233
22958W        W38427   4.870  15.621  12.918  0.1794 -0.0168 -0.1700
22959W        W38428   5.987   2.631   3.824  0.0975 -0.1852  0.1715
22960W        W38429   2.219   6.994   0.381  0.2326 -0.0174  0.2402
22961W        W38430  10.606  14.230   1.598  0.0595 -0.0618  0.3297
22962W        W38431   6.818  11.640   4.653  0.0519 -0.1390  0.2941
22963W        W38432   1.427   9.741   3.063  0.2349  0.0427  0.0106
22964W        W38433   3.539   5.752  12.822  0.0433  0.0321 -0.2130
22965W        W38434   3.407   6.495   4.767  0.0987 -0.0725 -0.4372
22966W        W38435  14.371   1.021   0.539  0.0003 -0.1235  0.0331
22967W        W38436  14.830   5.353   2.370 -0.0043  0.0946  0.1080
22968W        W38437  13.006  17.733   2.985  0.0944 -0.3208 -0.0390
22969W        W38438  17.530  17.917   4.633  0.1250 -0.1998 -0.0393
22970W        W38439   1.473   7.583   1.540  0.3336  0.2294 -0.0711
22971W        W38440   2.314  18.577  14.999 -0.0291 -0.1428 -0.0817
22972W        W38441  12.215  11.284   9.635 -0.1384  0.2630 -0.0874
22973W        W38442   0.169   4.345  10.654  0.1358  0.4647 -0.2023
22974W        W38443   9.896  14.849  12.946 -0.1900 -0.1480 -0.2450
22975W        W38444   2.311  16.773   4.229 -0.0065 -0.0894  0.0018
22976W        W38445   3.235  15.902  12.989  0.1488  0.0092 -0.4597
22977W        W38446  13.937   8.589  12.658  0.1806  0.0327 -0.3131
22978W        W38447  11.370  14.161  14.216 -0.1898 -0.0683  0.1094
22979W        W38448  15.063   9.379   1.381  0.0176  0.3056 -0.3248
22980W        W38449  13.370  11.299  15.315  0.2223  0.0346 -0.2545
22981W        W38450   7.594   7.024   3.053  0.0857  0.1616 -0.1717
22982W        W38451  10.626  12.334   1.632 -0.2880 -0.0435  0.1544
22983W        W38452  13.387  15.231  10.306 -0.3230 -0.0798 -0.0843
22984W        W38453   1.165  15.568   4.768 -0.1440 -0.4029 -0.2287
22985W        W38454   6.172   2.168  10.078 -0.1857  0.4120 -0.0310
22986W        W38455  18.607   8.326  13.828  0.2142  0.0684  0.3543
22987W        W38456  18.086   0.661  12.336 -0.0441  0.0743 -0.0312
22988W        W38457   9.491   2.688  10.835  0.0518  0.0757  0.0262
22989W        W38458  10.158  17.139   3.372 -0.0616  0.1357 -0.1726
22990W        W38459  13.208   0.414  13.962  0.0520 -0.1066 -0.0382
22991W        W38460   4.280   2.271  10.878 -0.0721 -0.2822 -0.1107
22992W        W38461   6.884   4.521   1.670 -0.1235  0.1139 -0.0043
22993W        W38462  18.421   6.205   1.148 -0.0656  0.2113  0.3184
22994W        W38463  13.849  12.927   0.552 -0.0061  0.0088  0.2090
22995W        W38464  18.457   5.015  15.005 -0.0231 -0.1488  0.1840
22996W        W38465   4.017   4.284  12.205 -0.0471 -0.0787  0.3499
22997W        W38466  10.465   4.952   5.327  0.0835  0.1165 -0.1022
22998W        W38467  17.406  14.826  10.552  0.2141  0.0037 -0.4326
22999W        W38468   2.154  18.704  14.561 -0.0438 -0.0748  0.1476
23000W        W38469   2.660   5.614  10.760 -0.2538 -0.2178 -0.1321
23001W        W38470  18.231   8.882  11.285  0.0439 -0.3440 -0.0989
23002W        W38471  14.282  14.209   1.501  0.2677  0.1966 -0.2305
23003W        W38472   3.595  12.537  12.903 -0.3741 -0.0251  0.1652
23004W        W38473   5.023  17.503   3.778  0.0486 -0.1505 -0.2759
23005W        W38474   0.142  12.776  11.171  0.1138  0.1610 -0.1007
23006W        W38475   5.995  16.324   4.899  0.3368  0.2045  0.1198
23007W        W38476   7.476  14.542   5.104 -0.0759 -0.1906  0.1319
23008W        W38477   0.454  18.270   1.451  0.2083 -0.0518  0.3464
23009W        W38478  10.420  13.500  12.516 -0.4113  0.0301 -0.0454
23010W        W38479   4.703   8.105  13.543 -0.0647 -0.1292  0.2203
23011W        W38480  18.144  18.257  13.163 -0.1444  0.0608 -0.4553
23012W        W38481  16.429  14.084   4.093  0.0311 -0.1573 -0.2088
23013W        W38482  16.730   3.835  10.397 -0.2618  0.1816 -0.0306
23014W        W38483   2.064   7.153  11.111  0.3161 -0.1447 -0.0285
23015W        W38484  17.719   8.329   2.009  0.0370  0.1064 -0.1201
23016W        W38485   8.682   6.862   4.240  0.2791  0.4337 -0.0954
23017W        W38486   6.612  17.401   3.804  0.0768  0.2686 -0.3042
23018W        W38487  13.786   7.924  13.236 -0.3332  0.0380  0.1248
23019W        W38488   1.352   7.037   1.332  0.1838 -0.1632  0.0667
23020W        W38489   0.472   1.554   2.809  0.2134  0.0362  0.2856
23021W        W38490  14.132  17.244  13.136 -0.1324 -0.1145  0.1413
23022W        W38491   5.249  15.543   2.804  0.1387  0.0017 -0.0700
23023W        W38492   6.210   8.114   0.082  0.3272  0.1278 -0.3935
23024W        W38493   1.362  18.538   3.055  0.0388 -0.1952  0.1865
23025W        W38494  15.462  16.221  12.876  0.3251 -0.0566 -0.0041
23026W        W38495   4.417   2.527  14.206  0.1255 -0.3421  0.0436
23027W        W38496  11.442  15.191   9.253 -0.0841  0.1420  0.0155
23028W        W38497   1.763   9.456   1.988  0.3253  0.0946  0.0553
23029W        W38498   3.029  17.967  12.234 -0.2528  0.1676 -0.1784
23030W        W38499  12.564  11.485  10.713 -0.2108  0.1023  0.3088
23031W        W38500   7.553   9.955   0.114  0.2000  0.0493  0.2061
23032W        W38501   3.161  18.601  13.721 -0.0309 -0.0414 -0.1125
23033W        W38502   1.995   6.245   3.247  0.3254 -0.1044  0.0239
23034W        W38503   0.131  17.811  10.856 -0.1445 -0.0783  0.0017
23035W        W38504  12.996   3.621  10.470  0.0046  0.3319  0.1206
23036W        W38505  16.902  11.764  11.970 -0.0369 -0.0141  0.2078
23037W        W38506   3.351  18.214  12.571  0.1039 -0.1700  0.0240
23038W        W38507  15.154  13.368   1.011  0.2734  0.2303  0.2057
23039W        W38508   9.249   0.166   1.043 -0.2178 -0.4100 -0.1199
23040W        W38509   6.509  11.792  13.382 -0.0863  0.1034 -0.2025
23041W        W38510   1.344  17.994   0.348 -0.0607 -0.0571  0.3187
23042W        W38511  16.323   9.359   4.829  0.1455  0.2726 -0.2067
23043W        W38512  12.888   6.669   4.012 -0.0834 -0.0826  0.0662
23044W        W38513   7.843   0.808   5.542  0.2156  0.2606  0.3111
23045W        W38514  11.646   4.304  15.063 -0.4506 -0.0119 -0.0999
23046W        W38515  12.501   5.369   2.203 -0.0586 -0.0616 -0.0888
23047W        W38516   4.227   8.577   4.221 -0.0248  0.2423  0.0602
23048W        W38517   9.449   4.983   6.043 -0.3389 -0.0932  0.4394
23049W        W38518   6.144   6.121   4.602  0.2639  0.2692 -0.2395
23050W        W38519  10.011  12.382   5.531  0.1644  0.0823 -0.0491
23051W        W38520   5.709  12.430   2.606 -0.1547 -0.0187 -0.0223
23052W        W38521  16.235   2.444   0.247 -0.1234 -0.1187 -0.0004
23053W        W38522   8.785  17.964   5.583 -0.1590  0.2854 -0.2364
23054W        W38523   4.784  18.836  10.631 -0.1633  0.3169  0.1058
23055W        W38524   9.050   2.812  13.479 -0.0262 -0.1213 -0.3510
23056W        W38525  10.527  15.162  11.540 -0.2206 -0.0752  0.0910
23057W        W38526  16.571  11.721  14.059  0.2587  0.1461  0.1053
23058W        W38527  13.339  10.540  14.351 -0.1976 -0.2228  0.3270
23059W        W38528  16.039   0.891  10.636  0.0920 -0.3969  0.2627
23060W        W38529   0.321   4.262  14.932 -0.1379 -0.1473  0.3752
23061W        W38530   9.318   5.801  11.979  0.1452  0.1157  0.1923
23062W        W38531   9.599  13.531   4.264  0.2165 -0.0083 -0.1550
23063W        W38532  12.283   8.920  10.625 -0.1091 -0.1634  0.1049
23064W        W38533  12.838  12.164  12.790  0.0660  0.0820  0.0150
23065W        W38534   2.238   7.338   5.104  0.0992  0.0299 -0.4830
23066W        W38535   0.608  16.834  12.823 -0.2149  0.1998 -0.0548
23067W        W38536  11.770   7.534  10.074 -0.0847 -0.0661 -0.0241
23068W        W38537   5.835  16.838  13.913 -0.1406 -0.5071 -0.1705
23069W        W38538  15.953  12.896   1.516  0.1601  0.2642 -0.0186
23070W        W38539   8.366  11.198  11.178 -0.0491  0.5072  0.1923
23071W        W38540   9.847   8.869   1.704  0.1166  0.0244 -0.3013
23072W        W38541  15.323   6.520   2.722 -0.1677 -0.0453 -0.3932
23073W        W38542   4.262  15.083   4.441  0.1075 -0.1658  0.3306
23074W        W38543   9.044  16.135  13.210 -0.3594  0.0027 -0.1719
23075W        W38544  18.064   8.793  14.239 -0.0586 -0.2040 -0.0990
23076W        W38545  17.266   4.477  14.274  0.3109  0.0857 -0.0154
23077W        W38546   8.466  14.107   0.685  0.1660  0.0574 -0.4616
23078W        W38547   0.523  15.910   0.136  0.0403  0.0749  0.0807
23079W        W38548   3.242  16.330   2.554  0.1723 -0.0250 -0.1186
23080W        W38549   7.417  17.775  11.462  0.3098 -0.0749 -0.0778
23081W        W38550  16.677   8.636   3.704  0.2747  0.2386 -0.0127
23082W        W38551  12.899   5.008  14.984  0.2792  0.3787  0.1151
23083W        W38552  17.177  10.863   3.388 -0.1203 -0.1403 -0.0868
23084W        W38553   4.623  10.885  12.052  0.2107  0.2658 -0.0146
23085W        W38554  13.997  10.030   4.036 -0.1586  0.1926 -0.1515
23086W        W38555   6.935   1.802   5.660 -0.0491 -0.2534 -0.0718
23087W        W38556  17.154  11.795   3.066 -0.3291 -0.1187 -0.0693
23088W        W38557  17.945  15.738  10.316 -0.3438 -0.1582  0.1862
23089W        W38558  16.097   4.571  11.189  0.2665  0.2421 -0.0062
23090W        W38559  14.631   0.436  12.665  0.1134  0.1236 -0.1340
23091W        W38560   4.367   5.048   1.186  0.0032 -0.2231  0.2043
23092W        W38561   1.217   0.285  13.928  0.0733 -0.2708 -0.0214
23093W        W38562  16.690   4.947   9.412  0.0851 -0.0153 -0.3059
23094W        W38563  18.406  16.371   2.646 -0.0112 -0.2221  0.1313
23095W        W38564   6.521  11.325  10.703  0.2241 -0.0315  0.2941
23096W        W38565  10.102   4.609  12.804 -0.1400  0.4791  0.0947
23097W        W38566   3.623  17.637   4.113 -0.3726 -0.2684 -0.1520
23098W        W38567   4.488  18.028  11.187 -0.0695  0.3083 -0.1229
23099W        W38568   2.990  14.665   4.594 -0.0287  0.1520 -0.0141
23100W        W38569  12.495  16.958   2.782  0.0168  0.1808  0.2276
23101W        W38570  13.322   9.959   2.493 -0.1206 -0.3355  0.2587
23102W        W38571  16.985   8.629   3.002 -0.0288  0.3466  0.4232
23103W        W38572   5.895   7.296  13.738 -0.3073 -0.2488  0.1128
23104W        W38573   2.813  13.189  14.263  0.1443  0.2439 -0.1310
23105W        W38574  12.714  16.629  14.988 -0.1376  0.0672  0.2445
23106W        W38575   2.754   3.061  14.176 -0.2130 -0.0382  0.0227
23107W        W38576  10.851   1.133   1.537  0.3224 -0.3084  0.0941
23108W        W38577  11.441  11.672  10.679 -0.1707 -0.3266 -0.0516
23109W        W38578  10.611  12.381  13.417  0.2558 -0.5049  0.2685
23110W        W38579   7.400   0.047   4.386  0.1322  0.1260 -0.1999
23111W        W38580   4.462   8.486  13.756  0.0869  0.1256 -0.0791
23112W        W38581  10.670  10.925   4.474  0.2653  0.1679 -0.3521
23113W        W38582  16.616  17.584  11.078  0.3471 -0.0737  0.1001
23114W        W38583   1.559  13.525  11.567 -0.1973  0.1172  0.0900
23115W        W38584   4.433  12.165   3.758 -0.2357 -0.2375  0.1835
23116W        W38585   9.633  17.348  13.786  0.1592 -0.1952 -0.0878
23117W        W38586   8.056   9.562  11.377 -0.0975  0.3296 -0.3260
23118W        W38587  15.319  16.136  13.898  0.2878 -0.0246  0.0234
23119W        W38588   9.678   0.198  14.640  0.0805 -0.3446  0.1935
23120W        W38589  17.926  11.192  11.494  0.2517 -0.0871  0.2977
23121W        W38590   7.995   6.349   9.526  0.2907 -0.2763  0.4953
23122W        W38591  13.002   6.334   5.672 -0.2097  0.1197  0.0207
23123W        W38592   7.248  13.703   1.841  0.0570  0.0374  0.0651
23124W        W38593  13.504   5.502  11.381  0.2060  0.1004 -0.0278
23125W        W38594  12.834  15.265   5.178 -0.7118  0.1087 -0.0723
23126W        W38595  10.306   1.432   3.038  0.0332  0.1780  0.2424
23127W        W38596  13.903  12.808  10.750  0.1997  0.1901 -0.3883
23128W        W38597  13.991  10.863  11.543 -0.1314 -0.0857 -0.2240
23129W        W38598  16.739   6.069  14.405 -0.0870  0.1026 -0.2155
23130W        W38599   0.453   7.644   2.453  0.3086 -0.1765  0.1979
23131W        W38600  17.136  10.022   3.960  0.2651  0.1803 -0.1064
23132W        W38601  10.048  15.654   3.220  0.3967 -0.2655  0.0585
23133W        W38602  17.371   1.894  11.315 -0.0192 -0.2946 -0.0956
23134W        W38603  11.392   0.152  14.285 -0.1193  0.1158 -0.2993
23135W        W38604  14.099  17.570  13.497  0.0710  0.3560  0.0128
23136W        W38605  12.360   5.682   0.063 -0.1427 -0.2323  0.1762
23137W        W38606   4.519  17.534  12.161  0.2430 -0.0977  0.0775
23138W        W38607   0.431   8.435   5.017 -0.0278 -0.3402 -0.0846
23139W        W38608   6.473  14.561  14.556  0.0540 -0.0723  0.3381
23140W        W38609   2.824   3.191   0.750 -0.0194 -0.3336  0.0708
23141W        W38610  15.781   5.819   0.164 -0.1406 -0.0943 -0.1993
23142W        W38611   8.651   8.131  12.921  0.0304  0.0470 -0.1496
23143W        W38612  16.693  13.918   2.352 -0.3223  0.1553 -0.0453
23144W        W38613  18.700  14.505   1.479 -0.0395 -0.1340  0.2922
23145W        W38614  17.886   4.719   0.103  0.2048 -0.2862  0.3206
23146W        W38615   3.879   9.881  13.004 -0.1950  0.0563  0.1809
23147W        W38616  18.105  15.332   5.165  0.0904  0.1567 -0.2871
23148W        W38617  14.234  18.402   3.183  0.0426 -0.3034 -0.2499
23149W        W38618  11.747  16.298   3.673  0.1019  0.1370  0.0600
23150W        W38619  12.529  12.196   0.987 -0.2099 -0.1441 -0.1407
23151W        W38620  14.897  12.496   5.735  0.3328  0.0889 -0.1373
23152W        W38621  13.631  14.037  13.690 -0.2137  0.3131  0.2503
23153W        W38622   5.531   1.317  12.623 -0.0831  0.0322  0.3517
23154W        W38623  10.735  16.326  14.824  0.0427 -0.0870 -0.0327
23155W        W38624  16.224   0.286   5.024  0.1826 -0.0177  0.4193
23156W        W38625   8.828  16.426  15.288 -0.1388 -0.2185 -0.2350
23157W        W38626   2.000  18.052   5.085 -0.0214 -0.4830  0.3176
23158W        W38627  16.687   1.301  12.481  0.1354 -0.0089 -0.1579
23159W        W38628   5.296   7.091  15.209  0.0435 -0.0013  0.2071
23160W        W38629  17.958  15.800  11.447 -0.2742 -0.2137 -0.0017
23161W        W38630  11.128   3.821  11.230 -0.2514 -0.0993  0.0678
23162W        W38631  12.684   5.074  13.861  0.0693 -0.1160  0.3750
23163W        W38632  14.455   4.952  12.313  0.3165  0.1039  0.6078
23164W        W38633   8.123   8.016   9.596 -0.0927 -0.2049  0.1303
23165W        W38634   4.090  14.160   4.732  0.2005 -0.0654  0.1418
23166W        W38635  16.709   0.928   0.860  0.0693 -0.2191 -0.1792
23167W        W38636  13.368  11.134  12.445  0.3105  0.3520 -0.3764
23168W        W38637   7.929   6.418   3.671 -0.1813 -0.0445 -0.0167
23169W        W38638  10.949   0.495  13.458  0.2587  0.1257 -0.4179
23170W        W38639  10.406   6.437  11.746  0.2985  0.2021  0.1594
23171W        W38640  13.336  15.021  12.016 -0.0578  0.1238 -0.1319
23172W        W38641   0.722  16.422   9.075 -0.1122  0.0132 -0.3127
23173W        W38642  13.583  11.986   1.481  0.1032 -0.0470 -0.0528
23174W        W38643   3.985  15.472   5.424 -0.0500 -0.1375  0.1598
23175W        W38644   1.189   0.313   1.988  0.1683  0.0135  0.1127
23176W        W38645   7.970  13.425  11.727 -0.0267 -0.3437 -0.0262
23177W        W38646  11.311   8.891  12.782  0.1456  0.2369  0.0313
23178W        W38647   9.085  10.884  14.965 -0.0481 -0.1058  0.1287
23179W        W38648   7.591  12.489   5.485 -0.0824 -0.0722 -0.0744
23180W        W38649   2.831  14.292  14.684 -0.3413 -0.0679 -0.0422
23181W        W38650   4.690   6.837  10.585  0.2481  0.3369  0.0798
23182W        W38651   9.523   1.841  13.261  0.0593 -0.1613  0.2229
23183W        W38652  17.197  18.808  14.951 -0.0712  0.1448  0.1560
23184W        W38653   5.273   7.639  14.031  0.1634  0.1985 -0.1382
23185W        W38654   2.521   1.290  11.036  0.3998  0.1500  0.0527
23186W        W38655  10.685  18.725   2.512  0.0396 -0.1367  0.0493
23187W        W38656   0.692  12.527  11.570 -0.3973 -0.1375  0.0984
23188W        W38657   6.526   4.210  14.887  0.1832 -0.3756 -0.0967
23189W        W38658   7.481   5.887  13.935 -0.2854 -0.0809 -0.1943
23190W        W38659  12.423   7.778  11.760  0.4322 -0.0592 -0.1101
23191W        W38660  15.188   2.135  12.729 -0.1179  0.1624  0.0521
23192W        W38661   8.611   5.249   0.689  0.1136 -0.2083  0.1761
23193W        W38662   4.643   7.699  12.827  0.3436  0.0181 -0.0714
23194W        W38663  10.308   8.947  14.053 -0.0052  0.1095 -0.2466
23195W        W38664   8.418  11.299   2.710 -0.2018 -0.0591 -0.0542
23196W        W38665   4.763  15.762   5.973  0.2121 -0.0962  0.1837
23197W        W38666  17.353   3.297   4.384  0.1082  0.0624  0.1332
23198W        W38667  10.643  16.080   3.477  0.2638 -0.0374  0.2234
23199W        W38668  11.534  13.301   3.748 -0.0503 -0.2547 -0.1235
23200W        W38669  13.900   1.364  10.954 -0.0164 -0.0869 -0.1645
23201W        W38670  17.506   3.707  11.063  0.1005  0.1579  0.0386
23202W        W38671   9.641  12.562  13.298  0.2440 -0.1591  0.0523
23203W        W38672  15.342   8.368  10.775  0.1231  0.1038 -0.0662
23204W        W38673   6.133   2.529   3.313  0.0890 -0.0984  0.0848
23205W        W38674  18.011  10.315  13.867 -0.1248 -0.3351 -0.0939
23206W        W38675   4.811  10.440  12.290  0.1254 -0.1224 -0.1883
23207W        W38676   9.384   9.582  12.155 -0.1918  0.3707 -0.2216
23208W        W38677  14.848  14.899  15.141 -0.2149 -0.5360 -0.2151
23209W        W38678  14.279   4.246  12.190  0.0644 -0.1439 -0.1827
23210W        W38679   6.411   4.745   4.512 -0.1930  0.3644  0.4314
23211W        W38680  10.153  16.001  10.343 -0.0357 -0.1884 -0.1220
23212W        W38681  14.473   7.761  14.773  0.4315 -0.0289  0.0094
23213W        W38682  18.881   1.559   4.950  0.0746 -0.2238 -0.0884
23214W        W38683   1.451  18.062   3.066 -0.2504  0.2892  0.1759
23215W        W38684  13.152   5.497   2.843  0.1769 -0.2385  0.0480
23216W        W38685  18.730  13.584  13.564 -0.1375  0.0435  0.0409
23217W        W38686   7.096  17.929   4.567  0.0102  0.1613  0.1355
23218W        W38687   3.591   3.789   0.447  0.3766  0.1063  0.3052
23219W        W38688   5.150   7.390   9.261  0.0881  0.2372 -0.0413
23220W        W38689  15.765   1.396   0.778  0.0178 -0.4657 -0.2100
23221W        W38690  14.976  10.001  12.195 -0.0601 -0.0582  0.0884
23222W        W38691  16.710   0.208   1.413  0.0574  0.2356 -0.5343
23223W        W38692   6.721  16.376   0.196  0.2028 -0.5158 -0.0405
23224W        W38693  15.200   4.396  12.012  0.0063  0.0745  0.0976
23225W        W38694  17.933  17.024  13.701 -0.0085 -0.0343  0.2555
23226W        W38695  13.592  15.484   5.705 -0.1399 -0.1841  0.0191
23227W        W38696   5.173  17.055  15.113 -0.3347 -0.0633 -0.3319
23228W        W38697   7.554  10.950   5.039  0.0701  0.1067  0.4202
23229W        W38698  11.089   9.650  11.603 -0.0224  0.2709 -0.0488
23230W        W38699   7.047  14.055  12.525  0.1142  0.0553  0.1505
23231W        W38700  14.283   0.056  14.879  0.1149  0.0482  0.0558
23232W        W38701   5.811   2.786  11.320  0.1012  0.1951  0.0852
23233W        W38702  14.972  14.489   2.783 -0.0423  0.0147 -0.0615
23234W        W38703  15.437  15.884   0.912 -0.0643  0.1718 -0.1079
23235W        W38704   2.526  11.097   0.471  0.0536  0.0737 -0.0512
23236W        W38705  12.790  13.918   0.254 -0.0845 -0.0222 -0.1300
23237W        W38706  15.057  14.069  11.469 -0.0403  0.0364 -0.0166
23238W        W38707  17.645   9.289  11.925 -0.2682 -0.0577  0.0292
23239W        W38708  12.469   3.073   2.092  0.2139 -0.1439 -0.1627
23240W        W38709  14.612  12.816  12.407 -0.0449 -0.2234  0.2301
23241W        W38710   4.825  12.493  13.915 -0.1517  0.0974 -0.3156
23242W        W38711   1.315   7.048  10.088  0.2296  0.1718  0.6430
23243W        W38712   4.829   7.831  13.919  0.0786  0.1179 -0.0966
23244W        W38713   3.568   9.354  13.735 -0.0400  0.4172 -0.1603
23245W        W38714   2.783   6.518  14.281  0.2576 -0.1564 -0.0972
23246W        W38715   2.367   5.906  14.716 -0.0517 -0.0280  0.0901
23247W        W38716   8.115   7.680  14.855  0.4247  0.1110 -0.8859
23248W        W38717  10.059   0.558   0.043 -0.0097 -0.0199 -0.0722
23249W        W38718  16.038   2.099   0.625 -0.1400 -0.2057 -0.3615
23250W        W38719   1.528   1.742   2.203 -0.0367  0.0543 -0.1467
23251W        W38720   6.076   0.320  12.715  0.2501  0.0550 -0.4973
23252W        W38721  16.430   7.124   0.090  0.3010 -0.3217 -0.1759
23253W        W38722   2.764  15.117   4.667 -0.1059  0.1550  0.0021
23254W        W38723  12.849  15.047  13.681  0.0256  0.2436  0.1883
23255W        W38724  10.290  14.404  14.932  0.1740 -0.1497 -0.3146
23256W        W38725   6.468   8.830   5.169 -0.3870  0.4839 -0.0936
23257W        W38726  11.036  15.051  12.013  0.4677  0.0636  0.1612
23258W        W38727  15.284  18.065   1.625 -0.0763 -0.0414  0.4289
23259W        W38728  10.312  12.523  14.995 -0.3895  0.0512 -0.3179
23260W        W38729  18.889   0.807  14.979 -0.0331  0.0025  0.2812
23261W        W38730  13.800  14.690   0.398 -0.0923 -0.0056  0.1165
23262W        W38731   6.298   1.302   3.010  0.3012  0.0285  0.1366
23263W        W38732  17.485   8.545   1.625 -0.1245  0.6000 -0.1626
23264W        W38733   2.612   7.746   4.984  0.2327  0.0980 -0.0292
23265W        W38734  17.138  10.864  13.514 -0.0153  0.1125 -0.0550
23266W        W38735  13.168  14.405  11.482  0.0870 -0.1957 -0.2943
23267W        W38736  17.878   1.227  11.002  0.3045  0.2672 -0.1035
23268W        W38737  10.333   4.623   4.329  0.2397 -0.3161  0.1033
23269W        W38738   2.132   8.298  12.487  0.1804  0.2072  0.0538
23270W        W38739  18.649   9.445  10.744 -0.3574 -0.2528 -0.0050
23271W        W38740  16.627   2.365  13.108  0.3386  0.0988 -0.1492
23272W        W38741   5.075   3.520   3.241 -0.4543  0.0136 -0.0683
23273W        W38742   3.938  14.983   3.254 -0.1237  0.2096 -0.1785
23274W        W38743  16.675   1.686  12.872  0.0265  0.0460  0.0982
23275W        W38744  10.431  17.149   3.800 -0.1017 -0.1698 -0.1077
23276W        W38745   8.878   6.903  14.285  0.0269 -0.0625  0.1490
23277W        W38746  17.777   5.712   3.428 -0.0787  0.1978 -0.1213
23278W        W38747   0.915  17.996   0.633  0.0792  0.2550  0.2949
23279W        W38748   1.751   7.415  15.066  0.0708  0.0714  0.4789
23280W        W38749   3.557  13.012  13.124 -0.0527 -0.2276  0.2101
23281W        W38750  14.453   3.362  11.701  0.0352 -0.0365 -0.0127
23282W        W38751  16.222  10.873  11.039  0.2065  0.0866 -0.0939
23283W        W38752  17.174   4.138   1.512  0.5119 -0.1480  0.1534
23284W        W38753   5.056  13.934  12.617 -0.2345  0.2002 -0.1686
23285W        W38754   8.197   9.906   1.926  0.1793 -0.0266 -0.0130
23286W        W38755   2.953  10.393  14.125 -0.0354 -0.0701 -0.2705
23287W        W38756  13.299  13.412  11.597  0.1717 -0.1191 -0.0885
23288W        W38757  16.158   2.094  11.756 -0.2223 -0.0814 -0.0925
23289W        W38758  12.902  13.071   1.236  0.1437 -0.4560 -0.2005
23290W        W38759  17.816   8.188   4.277  0.0430 -0.0744 -0.0049
23291W        W38760   4.903  10.805   2.105 -0.0940 -0.0695 -0.0067
23292W        W38761   7.501  17.398   0.241  0.3050 -0.0128  0.0650
23293W        W38762  14.544  12.665   1.165  0.1894 -0.1316  0.0545
23294W        W38763   3.093  16.078  11.157 -0.0746 -0.2113 -0.1698
23295W        W38764  17.238  11.417  11.514  0.1190 -0.2093 -0.0150
23296W        W38765  13.817   2.183   0.198  0.2046  0.1108 -0.3048
23297W        W38766   5.051   1.829  11.741  0.1064  0.4293 -0.0139
23298W        W38767   0.540  17.255   4.805  0.0693  0.0569 -0.0753
23299W        W38768   2.616  14.078   3.754  0.0660 -0.2248  0.1761
23300W        W38769  10.654  17.904  14.178 -0.1403 -0.2062  0.3444
23301W        W38770  17.286   8.402   4.150  0.1202  0.0645 -0.2956
23302W        W38771   8.141   5.652   6.094 -0.1044  0.0795  0.0090
23303W        W38772  18.394   5.752   1.872  0.4932 -0.3416  0.0715
23304W        W38773  12.223   6.701   2.141  0.0204 -0.1153 -0.2051
23305W        W38774  17.777  14.806   1.915  0.0545 -0.0056  0.3805
23306W        W38775  17.117   4.695  13.788 -0.1564  0.0659  0.3389
23307W        W38776   7.975   8.898   2.267  0.0396 -0.2831 -0.0842
23308W        W38777   5.100   8.326   3.803  0.0627 -0.1934 -0.0095
23309W        W38778   9.057  14.963   4.388 -0.2167  0.1171 -0.1808
23310W        W38779  16.167   5.485   0.961  0.0715  0.0383 -0.0451
23311W        W38780  14.351   2.285   0.187  0.0746  0.0545 -0.0011
23312W        W38781   4.392  10.287   0.193 -0.4018 -0.0472 -0.1106
23313W        W38782   7.689   8.734   1.911 -0.0236 -0.0367 -0.1089
23314W        W38783  11.208  18.464   4.807 -0.0256  0.3876 -0.0405
23315W        W38784  14.484  16.211   4.264 -0.0851 -0.1627  0.1700
23316W        W38785  15.056  14.629   1.932  0.0424 -0.1730 -0.3627
23317W        W38786   9.790   8.992   0.684  0.0117  0.2525 -0.2720
23318W        W38787   5.055   4.712   2.334  0.0056 -0.1716  0.0997
23319W        W38788   4.996   5.585   2.395 -0.0701 -0.0562 -0.2055
23320W        W38789  17.566  15.212  13.584 -0.3819  0.5701 -0.1106
23321W        W38790   7.370  16.922   1.851  0.1356  0.0784  0.0066
23322W        W38791  12.357   3.661   0.077 -0.3740  0.0826  0.0512
23323W        W38792   4.999   2.300  15.120  0.6535 -0.1204  0.2435
23324W        W38793   3.870   3.785  13.028 -0.0862  0.2678  0.0169
23325W        W38794  14.851   9.878  12.693 -0.0542 -0.1257 -0.0613
23326W        W38795  18.881   5.111   4.400  0.1296  0.0933  0.1296
23327W        W38796   6.420   4.611   0.890 -0.5559  0.1802  0.1824
23328W        W38797  15.117  10.782  12.433 -0.3961  0.5850  0.1281
23329W        W38798  18.221   9.440   3.034  0.2905  0.2250 -0.0954
23330W        W38799   4.214   0.792  13.213  0.0280  0.0233  0.2104
23331W        W38800  18.455   2.812  11.361 -0.0505 -0.3198  0.0160
23332W        W38801  10.132  10.309  12.431 -0.0327  0.2397  0.1747
23333W        W38802   4.474  14.669  13.809 -0.1060 -0.0100  0.0564
23334W        W38803  18.275  14.267   1.263  0.1728 -0.1609  0.0552
23335W        W38804  14.078  15.563   1.529  0.0673 -0.1141 -0.1361
23336W        W38805   8.888  17.381  11.636  0.0615 -0.1482  0.1779
23337W        W38806  18.387   1.418  15.287  0.0475 -0.0467  0.2523
23338W        W38807  17.077   0.131   5.324 -0.1114  0.0729 -0.1401
23339W        W38808  17.930  13.016   3.855 -0.1130  0.3387 -0.2791
23340W        W38809   2.580  11.060   2.135  0.0014  0.4089  0.0159
23341W        W38810  18.778  16.610   2.427 -0.1981 -0.2153 -0.2369
23342W        W38811   0.941  17.004   5.121 -0.1019 -0.0750 -0.1790
23343W        W38812  10.628   1.902  13.344 -0.0346 -0.3765  0.3597
23344W        W38813   1.908  14.641   2.303  0.0669 -0.2642  0.0682
23345W        W38814   0.857   7.357  14.654  0.0466  0.2540  0.1372
23346W        W38815   6.892  12.874   0.008  0.0242  0.1673 -0.1348
23347W        W38816   1.492  15.308   2.850 -0.3431 -0.2659  0.0105
23348W        W38817   6.183  17.872   2.260 -0.3990 -0.0492 -0.2376
23349W        W38818   2.880   4.140  11.206 -0.0026  0.0265 -0.0531
23350W        W38819   2.538  16.751  15.236 -0.0787  0.2608 -0.0879
23351W        W38820   8.920   3.051   4.016  0.0985  0.3032 -0.0897
23352W        W38821   0.172  14.387   4.802 -0.0005  0.0772 -0.0148
23353W        W38822   6.076   7.637   0.067 -0.0075 -0.0817  0.1209
23354W        W38823   8.405   0.181   2.841 -0.1511 -0.0426 -0.0085
23355W        W38824   2.538  10.176  13.066  0.3543  0.1672 -0.0621
23356W        W38825  11.530   2.881   1.844  0.1298 -0.3330  0.2109
23357W        W38826   4.571  11.702  13.493 -0.3726 -0.1535  0.0724
23358W        W38827  16.104   2.039  15.135 -0.1899 -0.0715 -0.2394
23359W        W38828   5.195  17.268  14.658  0.0271 -0.1427  0.2424
23360W        W38829   6.266   6.430   0.769 -0.0069  0.4308  0.0382
23361W        W38830  14.762   9.269  15.130  0.2388 -0.1555  0.0126
23362W        W38831  10.797   1.061  11.445 -0.3252 -0.2082 -0.1570
23363W        W38832   2.385  12.429  11.196 -0.0427 -0.2973 -0.1911
23364W        W38833   1.878   3.033   0.771  0.1893  0.1705  0.0610
23365W        W38834   8.046   7.821   2.326  0.0722 -0.1019  0.3714
23366W        W38835   0.549  17.201  10.663  0.2081  0.4347  0.1876
23367W        W38836   2.294  11.558  14.050  0.2495 -0.2058 -0.0467
23368W        W38837  15.490  12.045   3.503  0.1399  0.2390  0.1395
23369W        W38838  18.509   8.479  14.305  0.3564  0.1506  0.1046
23370W        W38839   9.554  17.534   2.140 -0.4419 -0.1090 -0.1198
23371W        W38840   5.361   4.765   0.890  0.0718  0.2003  0.3906
23372W        W38841   9.366   7.997   2.192  0.0448  0.1098 -0.0291
23373W        W38842  11.006  13.342  14.450  0.0327  0.0383  0.4135
23374W        W38843   6.821  17.974   5.815  0.0401  0.0316  0.1194
23375W        W38844   4.264  13.964   1.026 -0.0866 -0.1941 -0.2893
23376W        W38845  15.580   1.942   3.274  0.0694 -0.0375  0.0523
23377W        W38846   9.474  13.148   0.438  0.0894  0.0075 -0.1701
23378W        W38847   8.146  10.163  11.570 -0.1292  0.2536  0.0345
23379W        W38848  12.743  17.132   2.396 -0.1727 -0.1663 -0.1418
23380W        W38849  18.752   3.035  14.405  0.0762  0.0661  0.0115
23381W        W38850   7.960  10.426   5.879  0.0072 -0.0788 -0.2348
23382W        W38851   4.909  13.015   3.613 -0.0431  0.0523  0.3618
23383W        W38852   8.598  17.357   4.844  0.1267 -0.0397 -0.2489
23384W        W38853   5.496  11.019  10.446 -0.2012  0.1886 -0.2301
23385W        W38854   8.857   4.763  12.315 -0.0152  0.0160 -0.2748
23386W        W38855  15.662   8.945   0.609  0.1841  0.0878 -0.2147
23387W        W38856  15.009  12.797  12.842  0.1332 -0.2253  0.2308
23388W        W38857   0.450  15.530  14.584  0.4629  0.4027  0.0837
23389W        W38858   3.189  17.591   4.297 -0.1951  0.1466  0.1227
23390W        W38859   5.882  12.937  12.356  0.0639  0.0070 -0.0130
23391W        W38860  15.722  15.675   2.756  0.1060 -0.2887  0.2678
23392W        W38861  10.817   8.716   1.821 -0.0295 -0.2263 -0.3022
23393W        W38862   9.846   8.595  13.145 -0.2109  0.1982 -0.2297
23394W        W38863  16.475   4.854  12.050  0.2474 -0.0950  0.0556
23395W        W38864   6.481   8.229   0.631 -0.5057  0.0209 -0.4173
23396W        W38865  18.318   4.641   4.347 -0.1677 -0.0421  0.1528
23397W        W38866   8.987   2.424   4.501 -0.2189 -0.0699  0.3742
23398W        W38867  17.726   6.901  11.014  0.2628 -0.1844 -0.0095
23399W        W38868  10.686   0.283   3.092 -0.4279  0.1529  0.2800
23400W        W38869  10.470   3.177   2.065 -0.1964  0.1521  0.1713
23401W        W38870  14.618   4.338   0.497 -0.1556  0.2642  0.0543
23402W        W38871  11.946   1.124   4.094 -0.3260 -0.1844 -0.2373
23403W        W38872   2.832   6.014  14.000  0.2351  0.1660  0.5388
23404W        W38873   9.673  11.148   0.213 -0.2423  0.3176  0.0584
23405W        W38874   2.598   6.668  13.422 -0.2999 -0.0634 -0.0337
23406W        W38875   2.424   3.089   2.796 -0.0371 -0.1629 -0.1946
23407W        W38876  10.013  13.243   5.059  0.2061 -0.0058  0.2863
23408W        W38877  14.269  12.892   4.537  0.0640  0.2959  0.1592
23409W        W38878   4.115  17.931  14.653 -0.1015 -0.1654  0.1141
23410W        W38879   5.924  14.527  12.060  0.0374  0.1990  0.1288
23411W        W38880   5.013  18.945  13.042  0.0462 -0.0548  0.1910
23412W        W38881  11.661  14.585   0.946  0.1794 -0.2374  0.2241
23413W        W38882  16.017  13.182   5.620 -0.5937 -0.1349  0.1032
23414W        W38883  18.673   4.512  13.966  0.1421  0.1760  0.1720
23415W        W38884  11.898   8.684  15.289 -0.0527  0.2920  0.2633
23416W        W38885  18.373  11.706  14.697 -0.0378 -0.1662 -0.0632
23417W        W38886  18.760   1.755   4.225 -0.1463 -0.0490  0.4295
23418W        W38887  15.811   2.801   4.925 -0.1420 -0.3738 -0.0488
23419W        W38888  12.704  17.289  12.851  0.0359  0.0081  0.2563
23420W        W38889  13.824   1.718   2.861  0.1942  0.1131 -0.1223
23421W        W38890   7.374  11.033  14.049 -0.2101 -0.0920 -0.0800
23422W        W38891   5.439   2.142   3.093 -0.0073  0.1803  0.2775
23423W        W38892   8.234   3.010   0.966 -0.0833  0.2610  0.0014
23424W        W38893  10.643   8.163  10.734  0.0098  0.0244  0.0369
23425W        W38894  15.779   7.935   1.870 -0.2662 -0.0295 -0.0205
23426W        W38895   4.721   6.294   3.007 -0.0890 -0.0961 -0.0667
23427W        W38896   2.840  10.107   2.004  0.2066 -0.0143 -0.3639
23428W        W38897  16.867  13.588   9.710 -0.1166 -0.1731  0.1843
23429W        W38898   2.566  14.593  11.824  0.4223 -0.0481 -0.1957
23430W        W38899  12.245  14.566  14.499 -0.0265  0.0657 -0.3197
23431W        W38900  18.386  18.945  12.085  0.4862 -0.1997  0.1477
23432W        W38901  14.055   3.613   1.058 -0.2125 -0.1484  0.0313
23433W        W38902  15.140   6.882  10.958 -0.1753  0.3385 -0.1708
23434W        W38903  11.637  12.491  12.470  0.0215  0.0464 -0.1339
23435W        W38904   9.323   3.683  11.291 -0.2914 -0.0145  0.2141
23436W        W38905   9.200  11.069   5.720 -0.3570  0.2092 -0.0756
23437W        W38906   3.605  18.353  10.917 -0.3060  0.5545  0.2724
23438W        W38907   6.527  17.285  12.909 -0.3865 -0.3179  0.0647
23439W        W38908  12.030  19.039  13.999  0.0161  0.2114 -0.1229
23440W        W38909   8.715   0.541   3.273 -0.1228  0.1421  0.1607
23441W        W38910   0.794   6.088  13.763 -0.4554 -0.1328 -0.1348
23442W        W38911  17.678  17.677   0.189  0.2314  0.3552  0.1045
23443W        W38912   0.586   2.047  14.929  0.1232  0.1216 -0.3298
23444W        W38913  17.327   2.776  14.042 -0.2314 -0.0177  0.1862
23445W        W38914  17.875   8.577  10.998 -0.0852  0.0143  0.0182
23446W        W38915  12.858   8.664   9.692 -0.1210  0.0756  0.0094
23447W        W38916   3.800  13.010   4.263  0.0699  0.0148  0.0684
23448W        W38917  11.908  18.695  14.334  0.1185  0.0547 -0.1668
23449W        W38918   2.125  15.866   0.914 -0.1476  0.0064 -0.2188
23450W        W38919  18.977   6.155   4.285 -0.0698 -0.3272  0.1223
23451W        W38920  13.218   2.291   4.121  0.1719  0.0004  0.0845
23452W        W38921  10.342   0.561  11.547  0.0512  0.1164 -0.0258
23453W        W38922  10.027   2.757  12.610  0.1138 -0.1196 -0.0776
23454W        W38923   5.355  15.585  14.483  0.0106  0.2558  0.2106
23455W        W38924   8.193   1.098  14.103  0.2065 -0.0294 -0.1327
23456W        W38925   5.154   1.246  11.006  0.2821  0.2761  0.2385
23457W        W38926   5.531  14.540  15.258  0.0652 -0.1479 -0.1488
23458W        W38927   8.845   5.099  14.862  0.1545  0.1537  0.3289
23459W        W38928  12.554  10.036   1.682  0.1018  0.0583 -0.3318
23460W        W38929   6.923  16.564  12.235  0.0849  0.1670  0.2761
23461W        W38930   8.765   5.056  13.160 -0.1842 -0.1126  0.0107
23462W        W38931   2.543  16.015  12.052  0.0807  0.0884 -0.3043
23463W        W38932  16.829  15.873  11.796 -0.5654  0.2120 -0.3157
23464W        W38933  14.722   1.129   1.088  0.1825 -0.0226  0.2576
23465W        W38934   6.081   9.245   0.735 -0.1183  0.0433  0.1451
23466W        W38935  12.190  11.059  10.371  0.0831  0.0477 -0.0862
23467W        W38936   0.450  12.433  10.999 -0.1724  0.1369  0.0373
23468W        W38937  17.731   8.173   0.473  0.0095 -0.5150  0.4620
23469W        W38938  12.394   1.152  10.796  0.0119 -0.0886 -0.2810
23470W        W38939  15.842  10.333  15.194 -0.2772  0.1630 -0.2172
23471W        W38940  11.529   4.655   2.031  0.2281 -0.2384  0.2146
23472W        W38941  17.689   6.886  15.294 -0.0058  0.1224  0.1036
23473W        W38942   9.386  10.475  11.857 -0.1013 -0.0518 -0.0555
23474W        W38943   1.186   6.869   3.209  0.0560  0.1723  0.0422
23475W        W38944   9.767   1.017  12.043 -0.3032  0.0424 -0.2440
23476W        W38945   3.912  17.664  11.298  0.1344 -0.4614 -0.4944
23477W        W38946  10.583   5.477   2.612 -0.0097 -0.0111  0.0505
23478W        W38947  12.265  18.282   2.803  0.2894 -0.2239  0.1655
23479W        W38948   5.468  12.910  13.137 -0.1441  0.2448 -0.2853
23480W        W38949   0.089  14.766  13.613  0.1285  0.1600 -0.3434
23481W        W38950  14.193   1.543   9.874  0.1026 -0.0089  0.1359
23482W        W38951   3.939  11.018  13.747  0.1323  0.2448  0.0284
23483W        W38952   1.606   5.339  12.714  0.0265 -0.0829  0.2267
23484W        W38953   3.119  11.703  14.555  0.2604 -0.3085  0.1887
23485W        W38954  15.599   1.433   2.550  0.1157  0.1761 -0.1327
23486W        W38955  11.327   6.439  12.324  0.1974 -0.0313 -0.1814
23487W        W38956   6.874  12.730   1.216  0.0974  0.0308  0.0578
23488W        W38957   1.464  11.513   0.205 -0.3861 -0.1749  0.1756
23489W        W38958   0.689   6.050  15.300  0.1121  0.0201 -0.0354
23490W        W38959  17.140   8.371   3.661 -0.0086  0.1615 -0.1678
23491W        W38960  18.121  18.323   1.853 -0.0623  0.2223 -0.3242
23492W        W38961   2.466  16.576  10.619 -0.1985 -0.0063 -0.2377
23493W        W38962  13.074   4.238  11.786  0.2616  0.0944 -0.2024
23494W        W38963  10.338   6.418   2.444  0.0539  0.2471  0.1066
23495W        W38964   7.248  18.587   0.474 -0.0342  0.0355 -0.0270
23496W        W38965   0.152   3.944  13.193 -0.0980 -0.2659 -0.0996
23497W        W38966  14.179  12.400   5.796  0.5693  0.3304 -0.0999
23498W        W38967  11.626   5.245  11.468  0.0072  0.3197  0.0746
23499W        W38968  17.035   0.099   4.657  0.0746  0.1839 -0.2213
23500W        W38969   0.619   3.546  14.168 -0.2465 -0.1841 -0.0361
23501W        W38970   7.460   3.681   0.555 -0.0347  0.0958 -0.0584
23502W        W38971   3.532   1.505   4.701  0.0829  0.2062  0.1268
23503W        W38972  10.730   0.937  13.626  0.0229  0.3707  0.1366
23504W        W38973  11.427  14.187   1.136  0.0514 -0.4126  0.0159
23505W        W38974  11.260  12.160  11.719  0.2541  0.1704  0.3076
23506W        W38975  17.485   5.079  11.631  0.1173 -0.1249 -0.1804
23507W        W38976  18.778   6.829   1.664  0.0929  0.0595 -0.0793
23508W        W38977  14.133   8.314  11.616  0.1543  0.0870  0.0698
23509W        W38978   8.404  10.513  15.324 -0.0186 -0.2256  0.0762
23510W        W38979   1.431   1.700   0.885 -0.0565  0.0227  0.1601
23511W        W38980   6.972   4.803  13.547  0.2764  0.1736  0.0229
23512W        W38981   5.603  17.146  11.536  0.1028 -0.3490 -0.0306
23513W        W38982  10.365   9.167  12.936 -0.0324  0.3510 -0.3455
23514W        W38983  18.944   1.383   4.491  0.2808  0.1135  0.0977
23515W        W38984  10.708  12.176  12.939  0.0898 -0.2908  0.1154
23516W        W38985  12.978   6.711   4.670 -0.2161 -0.0103  0.1390
23517W        W38986   4.469   5.290  13.885 -0.1200 -0.0406 -0.1838
23518W        W38987  18.567  11.197   5.347 -0.4010  0.0415 -0.3616
23519W        W38988   6.928   4.318  14.262  0.0918 -0.2121  0.1738
23520W        W38989   0.054   8.948  15.047  0.1870  0.3023 -0.3652
23521W        W38990  18.719  15.715  10.851 -0.2049  0.0707 -0.0223
23522W        W38991   1.146   7.754   1.212 -0.1282  0.0629  0.0036
23523W        W38992  17.172   9.929   0.524  0.0011 -0.1354 -0.0694
23524W        W38993   7.137  16.119  10.054 -0.0553 -0.1731 -0.1645
23525W        W38994   1.014   6.268  13.354 -0.3189 -0.2462  0.2238
23526W        W38995  13.279   5.238   0.967  0.0386  0.1861 -0.2857
23527W        W38996  12.238   9.527  12.338  0.0053 -0.1084  0.1831
23528W        W38997  17.304  14.517  11.929 -0.0338 -0.0884  0.0073
23529W        W38998   3.158   3.936  12.512 -0.0587 -0.0358 -0.1063
23530W        W38999  15.984   7.490   1.684  0.0014 -0.0527  0.0092
23531W        W39000  16.320   6.858  10.268  0.1113  0.4017 -0.0465
23532W        W39001  19.038   4.170   1.669  0.3966  0.1860 -0.0435
23533W        W39002  11.765   7.005   0.027 -0.2690  0.0981 -0.2748
23534W        W39003  13.381   9.249  13.787 -0.0462 -0.0756  0.2154
23535W        W39004   3.490  12.195  13.888 -0.2182 -0.1871 -0.2603
23536W        W39005   3.953  11.812   3.179  0.0270 -0.3623  0.0176
23537W        W39006   6.150  10.695  13.046  0.1082  0.1629  0.3726
23538W        W39007   2.867   6.432   4.048 -0.3550 -0.3503 -0.0964
23539W        W39008  18.351  11.038   2.925 -0.2482 -0.2324 -0.2786
23540W        W39009  18.676   1.702   0.740  0.1977 -0.0625  0.0852
23541W        W39010  10.066  11.190   3.002 -0.0599 -0.0154 -0.4265
23542W        W39011  17.965  12.740  12.835  0.2117 -0.1166 -0.0992
23543W        W39012  11.584   7.176   4.958  0.0946 -0.1511  0.1079
23544W        W39013   0.412   8.509  14.171 -0.1503 -0.0447 -0.2246
23545W        W39014  12.901   5.816   3.193 -0.0730  0.3325 -0.0862
23546W        W39015   5.500   0.825   0.567 -0.0287  0.0313  0.3256
23547W        W39016   7.940  11.275  13.753  0.0231 -0.3312  0.0547
23548W        W39017  17.043   2.931   1.987 -0.1285 -0.1726  0.1472
23549W        W39018   6.086   5.515  11.164  0.0867 -0.2878 -0.4150
23550W        W39019  14.417   8.312  13.863 -0.0239  0.0180 -0.0784
23551W        W39020   3.002  11.792  11.029  0.3491  0.0472 -0.4374
23552W        W39021  16.087   1.364   0.303  0.2045 -0.1603  0.3199
23553W        W39022   6.638   0.200   3.948 -0.0433 -0.2556  0.0565
23554W        W39023   2.653  15.362  14.672  0.2031 -0.2358  0.0654
23555W        W39024  15.849   3.184   9.626 -0.1892 -0.0448 -0.0704
23556W        W39025   3.003  14.645   5.441 -0.1649  0.2963 -0.1983
23557W        W39026   9.286   4.344   0.403 -0.2967  0.1137 -0.1721
23558W        W39027  15.083  13.800   0.649  0.1327  0.1917  0.1273
23559W        W39028  11.760   5.199   2.083  0.1881 -0.0103 -0.0886
23560W        W39029   9.977   2.504  13.565 -0.2629  0.3129  0.3272
23561W        W39030  12.367   6.412  13.435 -0.1602 -0.0474 -0.1943
23562W        W39031   8.346  12.102   4.332 -0.2199 -0.2065  0.2469
23563W        W39032  15.361   2.646   2.016  0.3030  0.2315  0.2280
23564W        W39033   0.842   8.829  11.322  0.1455 -0.2039  0.1580
23565W        W39034  13.093  11.375   1.028  0.0096  0.3514 -0.4152
23566W        W39035   5.516   4.582  13.026 -0.1265  0.3305  0.1250
23567W        W39036  18.033   5.258  11.666  0.2356  0.0576 -0.0150
23568W        W39037  18.526  18.790   4.970 -0.0441 -0.0633  0.0645
23569W        W39038   0.973  13.682   4.871  0.0934 -0.2584  0.0776
23570W        W39039   3.701   9.535  10.807 -0.3416  0.1418 -0.0181
23571W        W39040   3.392  16.946  10.879  0.1268 -0.2014 -0.0559
23572W        W39041   5.237   2.781  11.242 -0.1930  0.2075  0.0956
23573W        W39042  10.742   5.904   3.452 -0.0916  0.1927  0.1864
23574W        W39043  18.669   9.423  14.144 -0.0120  0.0979 -0.3769
23575W        W39044   4.894   3.092  10.529 -0.0312  0.0554  0.5681
23576W        W39045  17.203  12.462  15.139 -0.1134 -0.1725  0.1814
23577W        W39046  18.552  18.762   3.583  0.0966 -0.1310 -0.0827
23578W        W39047   0.670   2.383  10.064 -0.2068 -0.0565 -0.0637
23579W        W39048   8.759   5.291  12.406 -0.3116 -0.1505 -0.2006
23580W        W39049  17.420   5.904   2.192 -0.1232 -0.1145 -0.0894
23581W        W39050   0.946   7.555  10.762 -0.0320 -0.0607 -0.1418
23582W        W39051   5.902   7.603   2.937  0.1535 -0.0438  0.2943
23583W        W39052   7.138  13.359  14.093  0.1813  0.1123  0.2888
23584W        W39053   2.399  11.379  13.341 -0.2837 -0.0959  0.1861
23585W        W39054   6.705   8.137   1.152 -0.0917  0.0004 -0.0401
23586W        W39055   2.391  10.301   2.833  0.1136 -0.0718 -0.0668
23587W        W39056  14.758   7.270  14.778  0.1987 -0.1152  0.1663
23588W        W39057  10.742  14.843  14.252  0.1668  0.2178 -0.1731
23589W        W39058  18.982   5.839   2.535 -0.1865  0.0734 -0.1047
23590W        W39059  17.507  13.292   3.383 -0.0796  0.0392  0.0470
23591W        W39060   3.950   0.491  14.464  0.4912  0.0283  0.2726
23592W        W39061   2.139   6.130   4.820 -0.0159 -0.1746 -0.0365
23593W        W39062   2.247   0.731  12.507 -0.1915 -0.1309  0.0228
23594W        W39063  12.795   0.605   0.055 -0.0367  0.1522 -0.1148
23595W        W39064  11.052  15.930   1.418  0.2389 -0.1222  0.1237
23596W        W39065   9.647   4.783  10.045 -0.1384  0.4573 -0.4644
23597W        W39066  12.048   1.097  12.179 -0.0511 -0.0639 -0.1932
23598W        W39067  16.949   2.625   3.922 -0.1705  0.0645 -0.1386
23599W        W39068  17.360   1.871   0.516 -0.0348 -0.4587 -0.3176
23600W        W39069  15.785   7.731   2.333 -0.2944 -0.0371 -0.2980
23601W        W39070  18.544   3.027  13.190 -0.0867 -0.3127 -0.3289
23602W        W39071  12.108   3.638  11.559  0.0074 -0.0594  0.2984
23603W        W39072   1.368  15.166   0.335  0.1055 -0.2670  0.2375
23604W        W39073  10.067   2.971   0.998  0.0955 -0.0049  0.0946
23605W        W39074   1.362   9.696  10.508 -0.2170 -0.1664  0.1118
23606W        W39075  11.943   2.026   5.167 -0.0079 -0.3773  0.0764
23607W        W39076   1.317   2.101   3.573  0.2088  0.1692  0.2190
23608W        W39077  18.061   2.815   2.418  0.1727 -0.2876  0.0119
23609W        W39078   0.288   5.469   4.376  0.1301 -0.0925 -0.1387
23610W        W39079  10.657  13.748   3.371 -0.0276 -0.0785 -0.0546
23611W        W39080  18.781  11.343   2.749 -0.0265  0.1018  0.0040
23612W        W39081  17.778  12.936   4.290 -0.0836 -0.1090 -0.2124
23613W        W39082  10.793   0.767   5.457 -0.1554 -0.0848 -0.1317
23614W        W39083   6.360   3.931  10.921 -0.1750  0.2085 -0.1183
23615W        W39084   9.364   6.394   3.826 -0.2803 -0.2450  0.3501
23616W        W39085  13.503   0.677   0.881 -0.3034 -0.1214  0.0600
23617W        W39086  12.736   5.328  14.528  0.0028 -0.1079 -0.0455
23618W        W39087  14.773  10.570  11.561 -0.4051 -0.0425  0.1536
23619W        W39088  12.845  16.377  13.375  0.2527  0.3042  0.1493
23620W        W39089   0.036  17.336   4.926 -0.2774 -0.0879 -0.2270
23621W        W39090  14.047  13.073   2.680  0.0876  0.0689  0.0379
23622W        W39091   2.656  11.169   0.962 -0.2545  0.0344 -0.0169
23623W        W39092   5.224   3.522   0.011 -0.0138 -0.0049 -0.3790
23624W        W39093   7.340  12.636   3.702 -0.5827 -0.0815  0.1607
23625W        W39094  11.292   6.138   1.333  0.0340 -0.1534 -0.1543
23626W        W39095   5.317   0.107  14.188 -0.0679  0.1591 -0.0972
23627W        W39096   9.197  11.891  14.135  0.3197  0.1531 -0.4158
23628W        W39097  11.487  16.344   0.101  0.0677 -0.2552  0.0909
23629W        W39098   8.481  15.581  14.956 -0.3489 -0.1554  0.2984
23630W        W39099  11.585  18.078  14.401  0.1871 -0.0160 -0.0089
23631W        W39100  15.338  11.285   4.255 -0.5219  0.2622  0.0164
23632W        W39101  15.874   3.494   2.831  0.0824  0.0008 -0.0755
23633W        W39102   2.312   8.181  14.617  0.1438  0.2798 -0.0502
23634W        W39103  19.032   0.084  10.926 -0.0956 -0.1273 -0.1395
23635W        W39104   0.575  16.718  13.325  0.0592 -0.0473 -0.0878
23636W        W39105   8.095   3.202  14.886  0.1024 -0.1278  0.0016
23637W        W39106   2.500  13.964  14.376 -0.3040  0.1475  0.2348
23638W        W39107   1.459   6.729   1.747  0.0682  0.0968  0.0545
23639W        W39108  16.931   1.795   2.366  0.1038 -0.0903 -0.3461
23640W        W39109   1.854   7.577  11.945  0.2142  0.2681 -0.0262
23641W        W39110   5.930   3.036   4.081  0.3714  0.0224 -0.0306
23642W        W39111  13.721  18.687   4.352  0.2587  0.1061  0.3284
23643W        W39112  11.067  10.216  14.820  0.0948 -0.2184 -0.2641
23644W        W39113   3.687  17.302   5.481  0.1384  0.1130 -0.1649
23645W        W39114   4.622  17.067   3.023  0.0166 -0.2317  0.1493
23646W        W39115   2.934  10.176   0.527  0.1564  0.0271  0.1889
23647W        W39116   5.856  18.335   2.475  0.0750 -0.0595 -0.1233
23648W        W39117   7.798   9.888   2.215 -0.1126  0.0785  0.2438
23649W        W39118   9.781  10.461   1.244 -0.2568 -0.1371 -0.0416
23650W        W39119   8.876  18.980  13.865  0.2626  0.2690  0.2554
23651W        W39120   1.701  11.554   4.612  0.0707  0.2094 -0.0008
23652W        W39121   3.486  15.853   1.142 -0.0941 -0.0045 -0.1323
23653W        W39122  13.146  10.692  13.403  0.1860 -0.0781 -0.1312
23654W        W39123   6.531   6.068  12.477 -0.2099 -0.2912 -0.2456
23655W        W39124   6.793   7.041   9.640  0.0441 -0.2471  0.2260
23656W        W39125  17.390   0.856   0.920  0.3553  0.0410  0.1075
23657W        W39126   2.171   0.778   5.900  0.0021  0.1535  0.1465
23658W        W39127   4.436   8.288   1.947  0.1979  0.1477 -0.0045
23659W        W39128  10.575  10.688   4.054  0.0895 -0.2128  0.0043
23660W        W39129   3.975   0.768   5.984  0.2114  0.0575 -0.1640
23661W        W39130  13.938  14.284   2.561 -0.2769 -0.2286 -0.0537
23662W        W39131   8.195  13.777  12.991 -0.1003 -0.0288  0.0366
23663W        W39132  15.924  11.930  12.220  0.2731 -0.0083  0.1784
23664W        W39133  15.060  13.011   0.293 -0.3721 -0.0108  0.1826
23665W        W39134   9.170   0.687   0.462  0.2444 -0.3327 -0.0245
23666W        W39135   7.932   4.732  10.767 -0.1278  0.1769  0.0374
23667W        W39136   0.910  11.124   3.887  0.0100 -0.2427 -0.0249
23668W        W39137  15.862  10.266  13.690  0.1593 -0.1693  0.0834
23669W        W39138  18.244   7.913  12.520  0.0507  0.3139 -0.1035
23670W        W39139   0.196   9.633   9.691 -0.1971  0.0936 -0.0379
23671W        W39140  11.712  11.912  15.079 -0.0857 -0.3328  0.3813
23672W        W39141   9.136  16.392  14.873 -0.2077 -0.1555  0.2798
23673W        W39142  11.642  17.669   4.049  0.3046  0.0747  0.1665
23674W        W39143  18.976  17.162  13.430 -0.0788 -0.2197 -0.3439
23675W        W39144   9.779   8.647   2.152  0.1440 -0.0703  0.5483
23676W        W39145   0.256  16.665  11.352 -0.1514  0.0510 -0.2054
23677W        W39146  15.612  16.909  14.339  0.4264 -0.1814 -0.0342
23678W        W39147  12.895   1.159   1.273  0.1245  0.0242 -0.0437
23679W        W39148   9.966  18.222  13.996 -0.0789 -0.1196  0.0920
23680W        W39149  16.564  17.884   2.340 -0.1974  0.0844  0.2653
23681W        W39150  17.571   8.719  14.300 -0.0899  0.1805  0.3470
23682W        W39151   9.042   3.021   4.528  0.1699  0.1365  0.2492
23683W        W39152  15.678   2.170  14.474 -0.0439  0.2164 -0.4502
23684W        W39153   8.277   8.171   1.128  0.1378  0.0528  0.1466
23685W        W39154   8.679   1.172  12.424  0.2596  0.0358 -0.1169
23686W        W39155   6.032  13.436   1.657  0.1957  0.0395  0.1972
23687W        W39156   4.173   1.852   2.720  0.5065 -0.0681 -0.1168
23688W        W39157   2.192   8.887   0.682 -0.1737 -0.0665  0.2695
23689W        W39158   1.027   9.740   1.907 -0.0546 -0.0393  0.3617
23690W        W39159   7.875   4.445  11.236  0.5778  0.0052 -0.1402
23691W        W39160  14.017   7.953   2.754 -0.0037 -0.0494 -0.0207
23692W        W39161  17.318   2.866   3.684  0.0122 -0.0293  0.1211
23693W        W39162   3.021  16.429  14.092 -0.1688 -0.0230 -0.1261
23694W        W39163   5.425   1.234  10.411 -0.0772  0.2354  0.3488
23695W        W39164  11.115   5.875   0.033 -0.1783  0.1651  0.0521
23696W        W39165   5.423   8.747   0.110 -0.0501  0.0133  0.0816
23697W        W39166   6.500  10.405  12.250  0.3312 -0.3535 -0.3118
23698W        W39167   0.055   4.708  14.885 -0.2476 -0.2224  0.1759
23699W        W39168   1.019  15.323   2.713  0.1299 -0.1440 -0.0735
23700W        W39169   6.788  11.353   4.177 -0.3109  0.0919  0.0625
23701W        W39170   4.228  15.365   2.412 -0.0124  0.0665 -0.0288
23702W        W39171   4.607  14.885   9.521  0.0864  0.2213  0.1975
23703W        W39172  13.580   4.954  14.904  0.0802 -0.0873 -0.0971
23704W        W39173  17.965  13.174  13.898  0.0032 -0.2584 -0.1936
23705W        W39174  14.500  12.773   2.407  0.1591 -0.2867  0.0025
23706W        W39175   0.993   7.143   3.580 -0.0953  0.3241 -0.2779
23707W        W39176  14.594  13.291   0.998 -0.1106  0.1214 -0.1152
23708W        W39177   1.386   8.189   0.844  0.1437 -0.0624 -0.1625
23709W        W39178  17.391   5.834   1.597  0.2965 -0.0967 -0.1849
23710W        W39179  13.133   2.878  15.269  0.0299  0.0613  0.0081
23711W        W39180   4.991  14.263  14.425 -0.0022 -0.1544 -0.0400
23712W        W39181  18.038  18.653  12.416  0.0740 -0.1578 -0.2468
23713W        W39182   6.696  12.835   5.469 -0.1487 -0.0100  0.2618
23714W        W39183   2.652  12.935   2.679  0.1216  0.3184 -0.2406
23715W        W39184   8.056  18.488  13.180  0.1888 -0.1303  0.1706
23716W        W39185   4.018  14.657   4.661 -0.4629 -0.1069  0.0390
23717W        W39186  13.027   2.627  11.926 -0.2564 -0.0879  0.0137
23718W        W39187  15.420   2.818   0.541 -0.2288 -0.3317  0.2294
23719W        W39188  13.404   0.119  13.654 -0.2436  0.1627 -0.0233
23720W        W39189   6.382   7.870   2.025 -0.0761 -0.2192 -0.3185
23721W        W39190   6.913   1.974   4.150 -0.3782  0.1717  0.3144
23722W        W39191   6.269   7.072   3.180  0.0452  0.3174  0.1631
23723W        W39192   9.157   1.437  10.834 -0.0203 -0.1109  0.0520
23724W        W39193  17.121   3.488  11.517 -0.0379  0.0569 -0.2199
23725W        W39194  11.951  17.259   3.628 -0.0670 -0.3316  0.1442
23726W        W39195  14.256  18.462  13.588  0.0642  0.0473 -0.1584
23727W        W39196  18.573  14.163  13.031 -0.1210 -0.1007 -0.1361
23728W        W39197  18.116  11.021  11.908  0.0125  0.1139  0.2077
23729W        W39198  14.639   8.009   3.038 -0.2225 -0.0494 -0.1391
23730W        W39199  13.071   5.813   1.621  0.0218  0.1530 -0.0456
23731W        W39200  13.279   9.428  12.456  0.0719  0.0683  0.3091
23732W        W39201   3.659  16.618  10.599  0.0953 -0.2296  0.1303
23733W        W39202  15.192  14.270   1.652 -0.1438 -0.2197 -0.1442
23734W        W39203  17.407  15.950   3.918  0.1609  0.0204 -0.0107
23735W        W39204  13.847   7.313  12.056  0.1955 -0.2696  0.2498
23736W        W39205   9.205   6.206  10.389  0.1166  0.0074 -0.1207
23737W        W39206  14.737   7.326  12.260 -0.2607  0.0036 -0.0918
23738W        W39207   1.417   3.050   3.698 -0.0793  0.0726  0.3144
23739W        W39208  11.327   9.525   0.219  0.3589 -0.1047  0.2645
23740W        W39209  14.968  16.567   3.459  0.0310  0.1054 -0.1626
23741W        W39210  13.025  11.980  14.414 -0.0345  0.1883  0.0337
23742W        W39211  16.088  18.988   4.683  0.0478 -0.0182 -0.0826
23743W        W39212  10.974   8.926  10.230 -0.1336  0.0460 -0.0726
23744W        W39213   0.862   3.838  12.595 -0.0391 -0.1289  0.1734
23745W        W39214  17.242  16.394   4.075 -0.3937  0.0568 -0.2880
23746W        W39215   0.532  10.698  11.443 -0.4950 -0.0029  0.2360
23747W        W39216  15.551   1.069   9.462  0.0495  0.1122  0.0562
23748W        W39217  17.111  11.591   9.451  0.0312 -0.4138  0.3174
23749W        W39218   1.973   9.628  12.322 -0.1032 -0.2175  0.1640
23750W        W39219  14.407  18.718  11.631  0.0683  0.3412  0.0475
23751W        W39220  10.434   2.701   0.689 -0.0155  0.2269 -0.0794
23752W        W39221   6.448   2.397  14.308 -0.2046 -0.4448  0.0670
23753W        W39222   9.209   4.955  10.977  0.1863 -0.3315 -0.4664
23754W        W39223  12.947   3.618   2.971  0.0286 -0.0999 -0.0976
23755W        W39224   0.807  13.160   5.668 -0.0834  0.0838  0.0379
23756W        W39225   7.264  15.580   1.267 -0.2304  0.4167  0.0512
23757W        W39226   0.735   4.305  14.518  0.0072  0.0019  0.1921
23758W        W39227  16.096   0.163   1.994  0.0545 -0.0866  0.2874
23759W        W39228  14.338  16.204  11.229  0.5208 -0.2272 -0.1609
23760W        W39229  12.627   9.260   4.698 -0.3813  0.0692 -0.0736
23761W        W39230  12.626   3.509   3.700 -0.0580  0.0462  0.2495
23762W        W39231   8.266   4.892   4.204 -0.2896 -0.3085  0.4049
23763W        W39232  14.675  15.069   2.020 -0.0191  0.0945  0.0626
23764W        W39233  13.483   5.248  10.492 -0.0503  0.0851  0.3006
23765W        W39234   3.236   5.610   9.877  0.0821  0.0354  0.0416
23766W        W39235   2.970  17.448  14.051 -0.0935 -0.0026 -0.0193
23767W        W39236  17.820  14.472  11.124 -0.0504 -0.1200 -0.2525
23768W        W39237   3.861   7.491   5.474  0.1556  0.0453  0.2341
23769W        W39238   5.377  18.764  11.385  0.0298 -0.2041  0.5620
23770W        W39239   2.189  15.611  13.878  0.2172 -0.2166  0.3130
23771W        W39240   0.067   2.931   4.690  0.2904 -0.2616 -0.1789
23772W        W39241  15.973   0.700  11.100  0.0707 -0.1308  0.1401
23773W        W39242  14.642   6.753  13.845 -0.2453  0.0660 -0.0111
23774W        W39243  10.549  11.526   5.599 -0.1956  0.1575 -0.1514
23775W        W39244   0.849  15.459   3.149  0.1560  0.1995 -0.1456
23776W        W39245   9.788   2.125   3.970 -0.0691  0.0096  0.0345
23777W        W39246  10.855  18.601   9.535  0.1528 -0.2329 -0.1599
23778W        W39247   6.248   8.343   1.153  0.0695  0.1671 -0.0138
23779W        W39248   7.944   1.887   0.038 -0.0732  0.1800 -0.4504
23780W        W39249  14.321   6.420   4.040  0.0968  0.0079  0.0376
23781W        W39250   5.558  12.628   1.219  0.1461 -0.0625  0.0327
23782W        W39251  12.478   3.793  10.709  0.0139  0.0404  0.0079
23783W        W39252   5.219  12.999  14.578 -0.0100  0.2617 -0.0323
23784W        W39253   1.579   9.478   4.688  0.0474 -0.2643  0.1262
23785W        W39254   3.326   8.808  12.868 -0.1593  0.1305  0.1631
23786W        W39255   2.995  13.103  12.389 -0.3117  0.0396 -0.0710
23787W        W39256   2.520  12.014   5.149 -0.3246  0.2545 -0.2024
23788W        W39257   7.450   6.028   2.479  0.3419 -0.0758 -0.1733
23789W        W39258  16.432   6.225  12.932 -0.0654 -0.1529  0.1171
23790W        W39259   8.730   0.114  13.387  0.0492 -0.3762 -0.2866
23791W        W39260   5.287  12.466  11.153 -0.2750 -0.2422 -0.1998
23792W        W39261  12.002  12.578   5.113  0.0143  0.1913  0.0914
23793W        W39262  17.010  11.796  13.804  0.1827 -0.0978  0.2859
23794W        W39263  13.900  13.906   3.959 -0.2405  0.0038 -0.2658
23795W        W39264   2.188  18.573   5.246  0.1193 -0.1514  0.2056
23796W        W39265   1.891   1.633  13.258 -0.1989 -0.1039  0.1630
23797W        W39266  17.016  15.590   2.977  0.1350  0.5692  0.1460
23798W        W39267   7.142   4.437   3.275  0.0702  0.1926 -0.1563
23799W        W39268   9.429  10.655   2.649 -0.1977 -0.0927 -0.0622
23800W        W39269   5.194  14.409   1.265  0.1197 -0.2475  0.0908
23801W        W39270   4.971  15.700  14.854 -0.0472  0.1884 -0.0131
23802W        W39271   0.535   8.196   3.462  0.0311 -0.4080  0.4281
23803W        W39272  16.873   7.645   2.139 -0.0476 -0.2122  0.0441
23804W        W39273  15.670   4.532  14.007  0.2275  0.1166  0.0208
23805W        W39274  17.915  12.750   1.152  0.1949 -0.3378  0.0765
23806W        W39275  17.263   7.884   1.690 -0.2917 -0.0380 -0.3409
23807W        W39276  12.407  17.481  12.371 -0.2543 -0.2409 -0.0864
23808W        W39277   8.015  17.773   5.899  0.1680  0.1071 -0.3069
23809W        W39278   8.603   0.359   4.370 -0.0153 -0.0102  0.1622
23810W        W39279  18.547   7.536   4.318 -0.0109  0.1261 -0.2565
23811W        W39280  14.079   1.838  10.820  0.0076  0.1561  0.1549
23812W        W39281   7.336   5.654   3.963 -0.0809  0.1165  0.1413
23813W        W39282  12.161   8.279   9.173 -0.4216  0.1160 -0.0082
23814W        W39283  13.484  18.047  14.765  0.1763 -0.2525 -0.1084
23815W        W39284   0.623   9.928  14.051 -0.1549  0.1276 -0.5172
23816W        W39285   0.264  13.581   3.861 -0.0260  0.1130  0.1262
23817W        W39286   7.071   3.135   0.056  0.1077  0.3622  0.0679
23818W        W39287  17.397   3.645  14.915  0.0156 -0.2090  0.1480
23819W        W39288  18.588  16.597  14.211 -0.0931  0.1312  0.0254
23820W        W39289  12.672  13.649   1.121 -0.1244 -0.0365  0.0366
23821W        W39290  17.113   3.749   1.179 -0.1758 -0.0461  0.0466
23822W        W39291  13.911  12.296  12.623  0.2018  0.1923  0.3723
23823W        W39292   0.493   6.216   2.705 -0.0425 -0.0076  0.4526
23824W        W39293  15.834   4.941  12.599 -0.1088  0.3080 -0.1250
23825W        W39294   0.964  18.111  14.969 -0.1570  0.0369  0.0998
23826W        W39295  13.810  13.210  12.743  0.0197  0.0575 -0.3058
23827W        W39296  18.714   2.631   4.775 -0.1124 -0.0107 -0.0005
23828W        W39297  12.470  18.847   3.954 -0.1921  0.4330 -0.2401
23829W        W39298   0.048   1.781   3.081 -0.2001  0.1102 -0.0902
23830W        W39299  17.469  18.860   4.300  0.0825  0.0528  0.1215
23831W        W39300   5.263  15.123  10.611 -0.0415  0.0128 -0.0487
23832W        W39301   2.270  10.390  15.335  0.1079 -0.0285 -0.0902
23833W        W39302  15.491   8.892  10.737 -0.0485 -0.0629  0.0880
23834W        W39303  17.932  12.957  13.310  0.0789 -0.3277  0.3813
23835W        W39304   9.954   2.548  14.672 -0.0642  0.1786 -0.1041
23836W        W39305   3.781  15.110  13.056  0.2384  0.2062  0.5173
23837W        W39306  10.405   0.925  15.355  0.2400  0.0790  0.1602
23838W        W39307  18.138   5.158   5.159 -0.1851 -0.1370 -0.2838
23839W        W39308  16.759   3.022  14.617  0.1190 -0.0169 -0.0851
23840W        W39309  10.141  15.369  15.201 -0.0220  0.0673  0.2293
23841W        W39310   7.595  13.278  15.116  0.0332 -0.0965 -0.1954
23842W        W39311  16.079  14.221  12.492 -0.0515  0.4618 -0.0395
23843W        W39312  12.547  16.022   3.226  0.3537 -0.0587 -0.2363
23844W        W39313  15.733  18.724  11.102  0.0960  0.3961  0.1746
23845W        W39314  12.329   4.540  12.593 -0.0003 -0.2381 -0.3810
23846W        W39315   2.618   2.400   4.837  0.2887 -0.0254  0.0175
23847W        W39316   8.538  16.448   4.641  0.0147  0.2576  0.0069
23848W        W39317   5.974  17.696   0.415  0.0192 -0.2157  0.0958
23849W        W39318  18.283  14.720   2.248 -0.1218  0.0281 -0.0139
23850W        W39319  16.140  13.799  12.202 -0.0609 -0.3162  0.1046
23851W        W39320   8.804   9.989  10.798 -0.2167  0.3284  0.0083
23852W        W39321   8.704  14.833   5.059  0.1193  0.1688  0.2974
23853W        W39322  15.485  11.436   1.077  0.0618 -0.2194  0.1868
23854W        W39323   0.371   6.483   9.826  0.3010 -0.2003 -0.3582
23855W        W39324  13.190   9.305   3.658 -0.0289  0.5832  0.2581
23856W        W39325   1.467   5.829   1.546 -0.0292  0.1947  0.3318
23857W        W39326   3.333  14.331  15.095 -0.2926  0.2712  0.0701
23858W        W39327  13.629   4.997  14.410 -0.2257 -0.0645  0.0442
23859W        W39328  11.303   2.793  12.959 -0.1225 -0.0810 -0.1587
23860W        W39329   3.480   0.825   4.809  0.1380 -0.0534 -0.3896
23861W        W39330   2.159   4.880   1.687 -0.5652  0.0080 -0.7016
23862W        W39331   6.189  13.339  11.201 -0.0278  0.4158 -0.0775
23863W        W39332  11.665  13.917  13.927  0.2380 -0.1707  0.4272
23864W        W39333   5.567   4.274  14.860  0.0302 -0.2260 -0.0245
23865W        W39334  18.852   3.730   4.805 -0.1122  0.0027  0.0291
23866W        W39335  17.659  15.438   3.924  0.2320  0.1369 -0.0354
23867W        W39336   5.994  13.884   0.136  0.2850 -0.1150 -0.0944
23868W        W39337  10.389  14.480  14.151  0.1163  0.0962 -0.0676
23869W        W39338   7.897   2.872   1.456 -0.1950 -0.0975 -0.2952
23870W        W39339   3.472   4.645   1.859  0.0082  0.1386  0.0240
23871W        W39340  12.925  16.887  10.269 -0.0175  0.0557 -0.0148
23872W        W39341   9.159   2.260  12.979 -0.1246  0.0498  0.2887
23873W        W39342  10.340   2.428  12.500 -0.0477 -0.0689  0.1809
23874W        W39343  16.300  16.479   4.196  0.1932  0.0480 -0.0241
23875W        W39344   5.937   6.857  15.004 -0.0375  0.3801 -0.2611
23876W        W39345   4.172  15.395  13.263  0.1962 -0.1030 -0.1719
23877W        W39346  15.831  11.337   4.094 -0.2349 -0.0114 -0.1307
23878W        W39347  18.524   3.832  13.286  0.1259 -0.0292  0.1330
23879W        W39348  17.576   5.045  14.822 -0.0286 -0.2387  0.0259
23880W        W39349   8.648   4.525   1.568 -0.1289 -0.1630 -0.2108
23881W        W39350   1.182  11.040   4.804 -0.1351  0.3637 -0.0249
23882W        W39351  10.874   0.559   0.655 -0.4238  0.4089 -0.1418
23883W        W39352  10.161   2.762   4.477  0.0784 -0.0004 -0.2232
23884W        W39353   0.789  13.831   1.230  0.3297  0.1638  0.2100
23885W        W39354   1.522  11.697  12.617  0.2932 -0.0950  0.0946
23886W        W39355  14.593  17.862  14.790  0.0015  0.0563 -0.2898
23887W        W39356   5.804  18.157  13.709 -0.0042 -0.4552  0.0577
23888W        W39357   6.071  13.739  12.637 -0.1616  0.2541 -0.2250
23889W        W39358  12.181   8.965   0.281  0.2360  0.1940  0.1960
23890W        W39359  16.422  12.329   1.716  0.1468  0.0465  0.2817
23891W        W39360   2.176  16.696   5.466 -0.1518  0.0530  0.5450
23892W        W39361   8.326  17.649  14.381  0.0059  0.1613 -0.2469
23893W        W39362   0.303  13.707   5.939 -0.3049  0.1047 -0.0040
23894W        W39363   3.819  19.040  11.560  0.0186  0.1471 -0.0164
23895W        W39364   0.978   9.431  10.844 -0.1724 -0.0855 -0.0252
23896W        W39365  10.678  15.404  14.929 -0.2040  0.0568  0.0439
23897W        W39366  15.266   9.045  11.369 -0.3061 -0.1405  0.1492
23898W        W39367   2.383  16.466  11.175  0.1256 -0.2111 -0.2146
23899W        W39368  17.254  15.297   1.367  0.3867 -0.0952  0.0575
23900W        W39369  14.769   0.839   3.283 -0.1930 -0.3213  0.0484
23901W        W39370   7.592  14.024   0.342  0.0120  0.0597  0.0928
23902W        W39371   2.016  17.194  14.279  0.3220 -0.2720 -0.1811
23903W        W39372  18.284   3.931   2.452  0.1466 -0.1802 -0.0024
23904W        W39373  15.960  15.667  12.479  0.0324 -0.0572  0.0256
23905W        W39374   1.679  11.013  14.666 -0.0732  0.3291 -0.0848
23906W        W39375   7.244   7.405   2.997 -0.1377 -0.0733  0.1665
23907W        W39376   4.894  14.364   2.494  0.0901  0.0859 -0.1243
23908W        W39377   7.280  18.667  11.414  0.1058 -0.1308  0.1221
23909W        W39378   6.237  18.532   1.082  0.1938  0.2527  0.1914
23910W        W39379  17.585  15.622  12.332 -0.1400 -0.1667  0.2039
23911W        W39380  14.072  10.227  13.366 -0.1123 -0.3317  0.5099
23912W        W39381   6.563   7.166  14.766  0.2332 -0.0793  0.0544
23913W        W39382  17.714  11.871  14.381  0.1256  0.1318  0.2528
23914W        W39383   5.441  16.238   2.971 -0.4437 -0.2309 -0.0520
23915W        W39384  10.179  14.958  14.038  0.4293  0.3455 -0.0364
23916W        W39385   8.378   3.864   3.695  0.1785 -0.0867 -0.2965
23917W        W39386  10.242   0.522   3.128  0.1114  0.0906  0.2092
23918W        W39387   7.860   6.565  10.246  0.1154 -0.4849 -0.3538
23919W        W39388   0.695   2.994   4.941  0.0226 -0.0943 -0.1115
23920W        W39389  17.341   0.541   3.124  0.0806  0.1257 -0.1654
23921W        W39390   5.915   4.029   3.901 -0.0402 -0.2457  0.0562
23922W        W39391   7.589  13.844  10.978  0.0068 -0.1348 -0.0287
23923W        W39392   9.487  10.309   0.041  0.1458 -0.0396 -0.1046
23924W        W39393   8.840   5.505  15.114  0.2595  0.3812 -0.1269
23925W        W39394   3.443  14.901   5.525  0.2200 -0.0293 -0.0888
23926W        W39395  10.230  11.335  12.885  0.0601  0.4331  0.2279
23927W        W39396   5.033  14.685  14.842  0.1522 -0.2565  0.0885
23928W        W39397  14.343   4.848  15.239 -0.1236  0.1465  0.2167
23929W        W39398  17.101  10.343  10.607 -0.1124  0.0637  0.2574
23930W        W39399   9.368   1.925   5.168  0.4128  0.0586  0.2239
23931W        W39400  10.748  12.633   3.107 -0.1837  0.1725  0.0374
23932W        W39401   6.178   1.927  14.850  0.0412 -0.1756 -0.1679
23933W        W39402   7.867  16.864   1.160  0.2587  0.3518 -0.1727
23934W        W39403   1.665  10.060  10.690 -0.0245 -0.2643 -0.0148
23935W        W39404   0.557  12.869  12.020  0.0291  0.0720 -0.0049
23936W        W39405   7.719   6.159   3.040  0.1942 -0.2345  0.1398
23937W        W39406  16.283  13.931   3.587  0.2291 -0.0002  0.0342
23938W        W39407   9.890   6.133   0.563  0.0202 -0.0291  0.0401
23939W        W39408  18.383   6.605  14.372 -0.3231 -0.3539 -0.0840
23940W        W39409   3.807  10.941   2.040  0.0878 -0.0256 -0.1297
23941W        W39410   8.872  14.246   3.184  0.2401 -0.0833 -0.1439
23942W        W39411  16.167   9.951  12.342  0.1836  0.1595  0.1247
23943W        W39412   1.688  13.507   2.224 -0.2521 -0.0393  0.0717
23944W        W39413  18.369  13.998   3.084 -0.2906  0.0301  0.3800
23945W        W39414   6.134   8.652   3.896 -0.4339  0.2940 -0.1663
23946W        W39415  15.549  13.938  13.599 -0.0173 -0.1413  0.0702
23947W        W39416   7.934  15.266  10.624 -0.1221  0.1945 -0.1475
23948W        W39417   6.943  16.255  11.811 -0.0025  0.1544  0.3804
23949W        W39418   6.204  10.670   3.970  0.0711 -0.0473 -0.0575
23950W        W39419   0.382   0.586   1.684  0.2688  0.2601 -0.2338
23951W        W39420   5.397   4.273  12.485 -0.1682 -0.0201  0.3125
23952W        W39421  13.536  10.508  10.363  0.0768 -0.0444  0.0312
23953W        W39422   9.501   2.618   3.258 -0.1886 -0.2388  0.1544
23954W        W39423  12.881   1.050   3.277 -0.2687 -0.5748 -0.4011
23955W        W39424  13.265  17.354   3.204  0.1394 -0.1853  0.2760
23956W        W39425  15.999   3.660  14.766 -0.0832  0.0037  0.0317
23957W        W39426   8.328   0.572   0.532 -0.0958 -0.0798 -0.2650
23958W        W39427   7.812   0.650   6.414 -0.0279  0.1707  0.1062
23959W        W39428  17.848  14.191   0.124 -0.1078  0.0280 -0.0453
23960W        W39429   6.574   2.369   0.562  0.1280 -0.0223  0.0962
23961W        W39430   9.032   4.354  15.354  0.4440  0.2079 -0.0549
23962W        W39431  11.176   3.604   3.570  0.3971 -0.2174 -0.3406
23963W        W39432   9.217  16.551  11.706 -0.0453 -0.1605 -0.0230
23964W        W39433   3.176   0.505   3.891  0.1614  0.0183  0.0263
23965W        W39434  18.122   5.120   1.090 -0.0687 -0.1758  0.2141
23966W        W39435  16.852  17.247  10.366  0.2089  0.1576  0.1308
23967W        W39436   5.084  16.094   0.947  0.5151  0.1093  0.5845
23968W        W39437  17.623   1.249  14.648  0.2745 -0.0116  0.0622
23969W        W39438   0.140  18.161  14.611  0.3964  0.0517 -0.3439
23970W        W39439  14.750   3.426   1.580 -0.0354  0.2908 -0.3051
23971W        W39440   5.094  16.915  11.563 -0.0415 -0.0030 -0.1927
23972W        W39441  16.169   3.010   2.420 -0.0246 -0.3116 -0.3826
23973W        W39442  13.243  11.810   0.569 -0.2865 -0.2528 -0.0237
23974W        W39443   0.466   7.889  13.441 -0.0261 -0.1628 -0.2929
23975W        W39444   1.654  14.030  12.374  0.1283 -0.1205  0.0594
23976W        W39445   5.630  14.756   0.683  0.2633  0.4915  0.1866
23977W        W39446   8.306  17.427  13.429 -0.3211  0.2552  0.1936
23978W        W39447  17.013  11.748   5.048 -0.5436  0.2805  0.2035
23979W        W39448  18.101   7.117  11.933 -0.1464  0.0016  0.0350
23980W        W39449   2.751   9.141  11.353  0.3623 -0.1770  0.0297
23981W        W39450   9.704   0.432   3.168 -0.1359 -0.0035  0.0684
23982W        W39451   8.623   3.371  14.346  0.0738 -0.0051  0.0119
23983W        W39452  10.643   2.988   3.478 -0.2673 -0.0823 -0.0174
23984W        W39453  18.377  10.571  10.906 -0.0419  0.0150 -0.3477
23985W        W39454   2.051   8.107  15.012 -0.1663 -0.1572 -0.0002
23986W        W39455  10.681   9.544  13.056  0.0539  0.2678 -0.0177
23987W        W39456   1.945  10.649   1.282 -0.3087  0.0080  0.1271
23988W        W39457   8.779  11.752   1.401 -0.0744  0.0022  0.3134
23989W        W39458   4.260  14.611   2.702  0.3215 -0.2023 -0.0944
23990W        W39459   0.233   2.241  14.585 -0.1498  0.1029 -0.3640
23991W        W39460  15.214   8.839  13.201  0.2326  0.1057 -0.5415
23992W        W39461  16.184  18.654   3.394 -0.0652 -0.1227 -0.0241
23993W        W39462  15.152   4.536  14.734  0.2786 -0.2086  0.0248
23994W        W39463   4.624  14.551  14.505  0.2173 -0.2898  0.4461
23995W        W39464  12.773  10.308  13.206  0.0148  0.1839 -0.0875
23996W        W39465   0.676   7.266   0.840 -0.0490  0.0614  0.0539
23997W        W39466  13.421  10.251   1.528 -0.0468  0.2547 -0.2365
23998W        W39467  12.009  15.655  10.973  0.0389  0.0573 -0.1743
23999W        W39468  13.538   3.944  13.820 -0.0385 -0.3983 -0.3540
24000W        W39469  12.774  12.678  11.271  0.1377 -0.2729  0.0723
24001W        W39470   4.644   3.555  11.090  0.2856 -0.2503  0.0454
24002W        W39471   5.707  16.509   4.468 -0.0426  0.0816  0.1318
24003W        W39472  12.558   1.090   3.739 -0.0165  0.0510  0.0602
24004W        W39473  10.593  16.337  13.532 -0.2567 -0.0018  0.1326
24005W        W39474   1.636   7.137   3.412  0.1907 -0.1988 -0.0708
24006W        W39475  14.032   5.947   2.624  0.2354 -0.0513  0.2137
24007W        W39476   1.396  12.057  11.932  0.0125  0.1227  0.0263
24008W        W39477   8.542   5.830   5.088  0.7659 -0.2831 -0.1036
24009W        W39478  17.666  19.020   4.785  0.0679 -0.2021 -0.4597
24010W        W39479  13.549   2.288   0.651  0.1681  0.2288  0.2690
24011W        W39480  12.565   5.062   2.603  0.1365 -0.2963 -0.0144
24012W        W39481  15.665  16.343   0.890 -0.4136  0.0136  0.0897
24013W        W39482   0.025   6.417   2.507 -0.1342  0.1694  0.0116
24014W        W39483  12.030   1.129   3.594 -0.0420  0.0696 -0.1174
24015W        W39484  14.643   8.754   2.439  0.1498 -0.3503 -0.3910
24016W        W39485  18.324  10.786  11.468 -0.0972 -0.0989  0.1359
24017W        W39486  13.202  13.367   4.774 -0.2092  0.0986 -0.4380
24018W        W39487  16.831  13.222  11.126  0.2008 -0.0935 -0.0737
24019W        W39488  13.715  12.674  15.115 -0.1053 -0.1625 -0.1300
24020W        W39489  10.853   6.075   4.713 -0.2534  0.0397 -0.0990
24021W        W39490  14.083   9.788   5.372  0.2354  0.4064 -0.2249
24022W        W39491   8.381   8.598  12.953 -0.1512  0.1437  0.0374
24023W        W39492  10.371  14.324   0.650 -0.0936  0.0247 -0.0457
24024W        W39493  18.596  14.630   3.625 -0.3166  0.0727 -0.0832
24025W        W39494  10.621   6.069   0.551 -0.1790  0.2321 -0.2063
24026W        W39495   0.049   0.158   0.968  0.0598  0.2054  0.1245
24027W        W39496   5.127  10.128  13.421 -0.0827 -0.1675 -0.0689
24028W        W39497   3.311   8.819  12.023 -0.0119 -0.2081 -0.0072
24029W        W39498  15.106   9.497  13.005 -0.0027  0.3526  0.0674
24030W        W39499   4.664   2.341   1.427 -0.5813 -0.0123 -0.2004
24031W        W39500   6.689   1.015   2.814  0.0703  0.0817  0.4497
24032W        W39501   4.290   9.685   0.718 -0.2365 -0.0422  0.0016
24033W        W39502   4.861   0.626  10.851  0.1639 -0.0936  0.2192
24034W        W39503  15.775   0.407  11.803  0.1475 -0.2318  0.2356
24035W        W39504   4.058  13.992   5.770 -0.1627 -0.0707 -0.1434
24036W        W39505  13.721   2.706  12.126  0.1184  0.0429  0.1531
24037W        W39506   7.925   0.129   0.457 -0.0032  0.0501  0.0995
24038W        W39507   3.410  15.191   3.023  0.2137  0.2205 -0.2525
24039W        W39508  14.113  11.366  14.860  0.2586  0.0786 -0.1137
24040W        W39509   9.233   4.693   0.868  0.3000  0.0314  0.1925
24041W        W39510  10.683   1.261   2.762 -0.3093  0.1101  0.2579
24042W        W39511   4.846   1.969  10.829 -0.1771  0.2914 -0.1668
24043W        W39512  16.591  17.123  15.127 -0.3590 -0.0356  0.0398
24044W        W39513  10.260  13.282  13.175 -0.2013 -0.0874 -0.0284
24045W        W39514  14.689  15.448  10.130 -0.0977  0.0115 -0.0140
24046W        W39515   1.951   9.697  11.069 -0.0045 -0.0271 -0.1414
24047W        W39516   1.241  17.175   1.968  0.1502  0.2489  0.2321
24048W        W39517  17.739  16.742   4.102 -0.1219  0.1058  0.0584
24049W        W39518  15.957   7.233   2.740 -0.2655  0.2758  0.4636
24050W        W39519   9.449  15.249   2.257  0.1290  0.0227 -0.2233
24051W        W39520  10.868   0.727  12.378  0.0379 -0.1888 -0.1246
24052W        W39521  10.184  12.261  13.733 -0.0627 -0.0901 -0.3033
24053W        W39522  11.449   2.349  12.734  0.1428 -0.1190  0.2246
24054W        W39523   7.933   7.325  11.093 -0.0244 -0.1118  0.1128
24055W        W39524   7.877   8.970  14.640  0.1258 -0.2111  0.0787
24056W        W39525  11.009  12.719  10.946  0.1914 -0.2165 -0.2332
24057W        W39526  17.290  14.429   4.163 -0.0727 -0.1683 -0.2294
24058W        W39527   8.203   7.434  12.943  0.0988 -0.1808 -0.0153
24059W        W39528  12.341   1.759  12.947  0.2151 -0.2872  0.2814
24060W        W39529   8.200  10.642  10.326 -0.1025 -0.0654  0.0478
24061W        W39530   9.014   5.156   3.678  0.0537 -0.1751 -0.2564
24062W        W39531   2.946   8.392  13.969 -0.3787 -0.2192  0.1439
24063W        W39532   6.747   8.022   5.012  0.1632 -0.0090  0.3142
24064W        W39533   4.227  15.895   5.266 -0.2969 -0.0387  0.3405
24065W        W39534   9.843   2.767  11.708  0.1993  0.0113  0.0378
24066W        W39535   2.794  10.814  10.209  0.2511 -0.1446 -0.3765
24067W        W39536  11.598   6.037  11.590 -0.0994 -0.0779 -0.1418
24068W        W39537   2.645   2.791   9.883 -0.2804 -0.1720  0.3026
24069W        W39538   8.676   9.188   5.408 -0.0778 -0.2244  0.0604
24070W        W39539   7.827  17.455  15.205 -0.0689  0.1701 -0.0914
24071W        W39540  13.889   7.189  13.136 -0.0780 -0.1848 -0.2125
24072W        W39541  14.132   4.642   1.964 -0.3485 -0.1402 -0.1621
24073W        W39542  10.691   2.991   2.477 -0.0840  0.2221  0.2252
24074W        W39543  10.689  10.967  14.086  0.1314 -0.3534 -0.2663
24075W        W39544  16.929   6.096  15.318 -0.0462  0.0638 -0.1444
24076W        W39545  12.499  14.592   1.457 -0.0629 -0.2388 -0.0578
24077W        W39546   6.014   8.887   4.432  0.0787  0.1283 -0.1201
24078W        W39547  12.986  14.898  10.408 -0.2186  0.3799 -0.0038
24079W        W39548   0.092   7.722   1.494  0.1449  0.0570 -0.1669
24080W        W39549  18.306   2.348  12.790  0.4358 -0.1220 -0.3167
24081W        W39550   9.010   2.025  13.441 -0.0056 -0.1948 -0.3574
24082W        W39551  18.904   0.061  11.983 -0.1336 -0.3374 -0.0325
24083W        W39552  12.466   1.420  14.633 -0.0122  0.0306  0.0760
24084W        W39553  10.803  11.323   4.746  0.1540  0.0805 -0.3028
24085W        W39554   0.700  10.511   5.280  0.0294 -0.0078 -0.2301
24086W        W39555   8.434  18.822  14.108  0.0915 -0.2578  0.3234
24087W        W39556   4.228   5.526  15.054  0.2946  0.1612 -0.2817
24088W        W39557  11.443   5.682  13.032  0.1598 -0.0622 -0.0307
24089W        W39558  16.723  14.222   6.023  0.3429  0.3243 -0.1184
24090W        W39559   1.363   2.017   1.630 -0.3291  0.2204 -0.1924
24091W        W39560   4.219   4.672  13.061  0.2398 -0.0451 -0.2709
24092W        W39561  15.130  15.091   0.688 -0.0172 -0.1934  0.0574
24093W        W39562  15.126  14.689  14.263  0.0262  0.1791 -0.2143
24094W        W39563   9.307  10.107   3.413  0.3807  0.1955 -0.0016
24095W        W39564  16.314  14.688   4.052 -0.2890  0.4768 -0.0803
24096W        W39565  11.095  15.198   1.941 -0.0490 -0.0267  0.0742
24097W        W39566  14.065  11.045  12.244  0.1891  0.0922  0.0671
24098W        W39567   3.395   7.306  12.248 -0.0332 -0.0911  0.0013
24099W        W39568  17.104   8.576   2.419 -0.1299 -0.1098 -0.0062
24100W        W39569   9.348   0.481  11.212  0.0321 -0.1611 -0.1160
24101W        W39570   7.871  17.852  11.050 -0.0179 -0.1817  0.2845
24102W        W39571  14.375   6.597   5.067 -0.2274 -0.1641  0.3639
24103W        W39572   5.209  10.110   4.593  0.1319  0.0350 -0.0384
24104W        W39573  14.067  15.886  10.583  0.3609  0.2410 -0.1512
24105W        W39574  12.966   5.151  12.072 -0.1619  0.2104 -0.2693
24106W        W39575   2.852   2.037   3.145  0.0670 -0.1812 -0.0887
24107W        W39576  16.661  10.427   2.639  0.0501  0.4858  0.0532
24108W        W39577   1.401  10.425  11.139 -0.4958 -0.3624  0.0273
24109W        W39578  17.562  18.954   2.770 -0.3068  0.1521 -0.1671
24110W        W39579  10.037   9.086   2.121 -0.3774 -0.0950  0.2529
24111W        W39580  17.534  15.908   2.088 -0.6457 -0.2232 -0.3367
24112W        W39581   7.530  15.533  14.742  0.0398 -0.1938  0.1449
24113W        W39582  16.575  11.723  13.063  0.3981  0.1820 -0.1922
24114W        W39583  15.106  12.538   0.476 -0.2200  0.0081 -0.1882
24115W        W39584  14.712   1.749   3.305  0.0808 -0.0752  0.2010
24116W        W39585  12.020   3.778   3.068  0.0555 -0.1004 -0.0872
24117W        W39586   0.067   1.371  12.705 -0.1352  0.1694  0.4463
24118W        W39587   3.974   4.465  10.704  0.0892  0.1051 -0.0016
24119W        W39588   7.446   6.109  11.046  0.2060  0.0111 -0.2114
24120W        W39589  17.413  18.738   3.785 -0.0486 -0.0106  0.2160
24121W        W39590  14.743  13.907   4.426 -0.1372  0.0165  0.1036
24122W        W39591   4.597   7.008   2.379 -0.2001 -0.1435 -0.1786
24123W        W39592  13.302   7.337  14.013 -0.1353  0.3173  0.1429
24124W        W39593   2.327  17.874  10.979  0.0345 -0.2857  0.1979
24125W        W39594  10.082  14.185  13.002 -0.0848 -0.0742 -0.0608
24126W        W39595   1.528  17.088  11.819  0.0133 -0.1522  0.1535
24127W        W39596   0.640  18.946  15.165 -0.0414  0.0317  0.0188
24128W        W39597   8.170  18.286  11.821  0.0209  0.0307 -0.0856
24129W        W39598   9.001  17.468  12.784 -0.1006 -0.3418  0.2594
24130W        W39599   9.574  18.059  10.998 -0.2827  0.1541 -0.0676
24131W        W39600   4.788  17.606  15.274  0.1457 -0.4986  0.0250
24132W        W39601   8.285   2.166   3.769  0.1266 -0.1790 -0.2314
24133W        W39602   9.905   7.426  15.266  0.1294  0.3112  0.1882
24134W        W39603   9.988  17.247   0.386 -0.2304  0.0094  0.0854
24135W        W39604  17.358   1.253  15.160  0.0759  0.1980 -0.1962
24136W        W39605  17.959   3.263   2.214  0.2226  0.1649 -0.1214
24137W        W39606   8.740   7.800  13.672  0.0122 -0.0382 -0.2906
24138W        W39607  11.410   6.949  15.022 -0.0351  0.3636  0.2276
24139W        W39608  12.235  11.625  11.036  0.0346  0.3520 -0.1300
24140W        W39609  18.638  12.292   0.343 -0.1052  0.0814 -0.2015
24141W        W39610   0.322  11.574  11.973  0.0888 -0.2301 -0.0270
24142W        W39611   7.397  12.553  12.492  0.0757 -0.3376  0.3576
24143W        W39612  10.685   3.761   4.529 -0.1043  0.0704  0.0322
24144W        W39613   8.625   5.649   2.022  0.1618  0.0407 -0.1305
24145W        W39614  11.956  11.421   1.549 -0.1209 -0.1223 -0.2049
24146W        W39615   7.272  10.584   2.606  0.1553 -0.0500  0.0755
24147W        W39616   4.552   3.568   1.907 -0.1049  0.2743  0.0162
24148W        W39617  10.373  17.951   3.168  0.0735 -0.0670 -0.1820
24149W        W39618  10.075   0.475  13.747  0.3013  0.2962 -0.0949
24150W        W39619  17.158   9.718   3.111 -0.2173  0.0222 -0.2993
24151W        W39620   1.284   0.168   4.496  0.1271  0.0836 -0.4494
24152W        W39621  11.635  11.716   1.101  0.2035  0.0708  0.1382
24153W        W39622  15.574   9.610   1.411 -0.0037  0.0902  0.1815
24154W        W39623  18.703   5.160   3.203  0.2879  0.2448 -0.0468
24155W        W39624  10.480   8.735   4.582  0.2108 -0.3568 -0.1549
24156W        W39625  14.079  12.797  12.616  0.1034  0.1963  0.0421
24157W        W39626   4.495   5.967   1.656 -0.0418 -0.2961  0.1287
24158W        W39627  10.082   5.386   2.880  0.0792  0.1573 -0.0485
24159W        W39628  14.225  16.124  10.146  0.0252 -0.0531 -0.2019
24160W        W39629   6.859   7.990  11.048  0.2034 -0.1367 -0.0741
24161W        W39630   7.034   2.564   3.046 -0.0990  0.1286  0.1002
24162W        W39631  11.884  10.021  12.996  0.4455 -0.4372  0.4593
24163W        W39632  11.544   4.181   2.263  0.3440  0.1748 -0.1473
24164W        W39633   6.757   5.818   4.038 -0.0462  0.2195 -0.2337
24165W        W39634  11.574  14.830   4.797  0.3795  0.2086  0.0926
24166W        W39635  14.092  16.767   2.898 -0.2514 -0.0559 -0.0786
24167W        W39636  15.591  16.888   3.005 -0.3517  0.0623 -0.0775
24168W        W39637   9.924  10.105   0.305 -0.0758 -0.0423  0.4064
24169W        W39638   3.606  15.956   2.527  0.0543 -0.2397 -0.1803
24170W        W39639   2.859   9.525   1.806 -0.0787 -0.2386  0.2244
24171W        W39640   2.984  10.628   3.542  0.0979  0.0133 -0.1994
24172W        W39641   5.567  15.308   2.550 -0.0916  0.0509  0.3714
24173W        W39642   6.215  17.204  14.153  0.0521  0.0722  0.0381
24174W        W39643  18.100  12.541   2.007 -0.0212 -0.0726 -0.1088
24175W        W39644   9.216  18.581  15.126 -0.1937 -0.1716  0.1467
24176W        W39645  10.144  16.856  13.142 -0.1321 -0.1517 -0.1128
24177W        W39646   3.594   9.340   4.654  0.1494  0.4988  0.1106
24178W        W39647  18.271   7.402  12.659 -0.0939 -0.2508 -0.0025
24179W        W39648  17.551   1.567   4.479 -0.0962  0.0362  0.2281
24180W        W39649  13.530  13.459   1.391  0.4041  0.2023 -0.2804
24181W        W39650   7.085   9.386   0.676  0.0820  0.1627  0.0565
24182W        W39651  11.754  14.112  12.925 -0.5936 -0.2383  0.0641
24183W        W39652  14.056  12.702  13.161  0.4073  0.0894 -0.0853
24184W        W39653   8.547  13.342   2.459 -0.3242  0.0748 -0.0590
24185W        W39654   5.547  13.287  10.284  0.2010  0.0156 -0.2923
24186W        W39655   6.378  12.663  10.574  0.2087 -0.1347 -0.1489
24187W        W39656   2.643  15.873  11.253  0.2061  0.0502  0.0172
24188W        W39657   1.866   9.519   3.273  0.0866  0.1438 -0.4057
24189W        W39658   9.474  16.459  14.380  0.0220 -0.1622  0.2347
24190W        W39659  13.251   8.881   1.530  0.2069 -0.3461 -0.2909
24191W        W39660   3.759  13.137   1.895 -0.2861  0.3274 -0.1031
24192W        W39661  18.543   3.811  15.291 -0.1925 -0.2175 -0.3888
24193W        W39662  11.590   6.644  13.950  0.0380 -0.2799 -0.3446
24194W        W39663  12.610  14.717  13.374 -0.0313 -0.1837  0.0537
24195W        W39664  17.369  13.968   5.015 -0.1082  0.0473 -0.2384
24196W        W39665   3.113   6.647  10.986  0.1298  0.1119  0.1148
24197W        W39666   4.100  15.484   0.652 -0.0203  0.3060  0.0257
24198W        W39667  10.119  15.480  13.266  0.0118 -0.1115 -0.1359
24199W        W39668  18.569  11.040  11.153 -0.1378 -0.0149  0.3798
24200W        W39669  17.122  12.169   0.229  0.2045  0.0012 -0.0439
24201W        W39670  15.289  12.598   1.854 -0.3808  0.2330 -0.2417
24202W        W39671  15.320   2.529  14.119  0.1014  0.2442 -0.0973
24203W        W39672  18.933   9.732   4.799  0.1079  0.1590 -0.4822
24204W        W39673   0.908   7.143   4.501  0.2974 -0.1812 -0.2871
24205W        W39674  12.563  10.947  14.945  0.2881 -0.0569 -0.1060
24206W        W39675  13.641  14.157  11.553 -0.1937  0.0770  0.0339
24207W        W39676   9.502   6.420  13.096  0.2812  0.1190 -0.0703
24208W        W39677  12.975  13.409  14.048  0.1313 -0.1277  0.0292
24209W        W39678  15.403  12.173  10.069  0.0055 -0.0626 -0.1724
24210W        W39679   8.398   8.133   2.519 -0.0389  0.1078 -0.0922
24211W        W39680   3.096   8.469   4.361  0.4237 -0.2443 -0.0774
24212W        W39681  18.273   3.115   4.099 -0.0610 -0.4990 -0.1001
24213W        W39682   3.748  16.877   5.764 -0.2988  0.0704  0.0827
24214W        W39683  18.586  17.379  13.090  0.0085  0.0972 -0.2856
24215W        W39684   1.161   1.422  13.944 -0.1586  0.0452  0.2293
24216W        W39685  16.441   8.415  10.948  0.1445 -0.2510  0.1437
24217W        W39686   6.478  18.667   4.290  0.0944 -0.1764 -0.0891
24218W        W39687  11.354   5.303   5.021  0.0691 -0.1381 -0.5124
24219W        W39688   5.103   0.824  13.160  0.0286 -0.0947 -0.0445
24220W        W39689   3.520  18.181   3.007  0.3506 -0.0053  0.0764
24221W        W39690  12.096   0.000  13.220 -0.0367 -0.2234  0.0961
24222W        W39691   6.838   1.469  12.190 -0.2307 -0.0410 -0.3115
24223W        W39692   5.237   7.819  11.273 -0.0230  0.3427  0.3990
24224W        W39693  17.741  14.805  12.052  0.0533  0.2496 -0.0300
24225W        W39694   7.273   3.763   5.456  0.0650  0.1063  0.0925
24226W        W39695  10.467  13.601   2.823  0.0210 -0.2195  0.2124
24227W        W39696   0.344  11.082   4.100 -0.1068  0.1035 -0.1289
24228W        W39697  11.176   9.035   2.083  0.0119  0.0531 -0.1680
24229W        W39698   6.415  11.654   4.000  0.0115 -0.2104  0.0959
24230W        W39699  11.840   9.079  11.262 -0.1680 -0.0506 -0.0569
24231W        W39700   6.089   1.497  14.609 -0.1209  0.3964 -0.2820
24232W        W39701  14.512   3.846  11.800  0.1287 -0.1446 -0.0441
24233W        W39702  15.536  13.291   3.360 -0.0894  0.3214  0.1612
24234W        W39703  17.027   9.135   1.249 -0.1112  0.4125 -0.2205
24235W        W39704  16.271   9.355  13.509 -0.1780 -0.2806 -0.2156
24236W        W39705   6.806   1.859   1.374  0.1235 -0.0266  0.0199
24237W        W39706  18.405   7.866  13.039  0.1283  0.1007  0.1369
24238W        W39707  13.503   7.154   0.056 -0.0049  0.0406 -0.0057
24239W        W39708  16.829  18.028  14.723  0.0835 -0.1052 -0.6407
24240W        W39709   7.253  18.797  11.909  0.0452  0.1008  0.0422
24241W        W39710   8.620   0.685   6.232 -0.2220  0.1255  0.0872
24242W        W39711  15.047  17.731  13.145  0.0403 -0.0424 -0.3705
24243W        W39712  10.789   0.321  11.510 -0.1008 -0.0582  0.1642
24244W        W39713  14.336   1.899  14.154 -0.2165 -0.2899  0.0492
24245W        W39714  10.948  17.651  14.500  0.0979  0.0925  0.3606
24246W        W39715   1.170   3.255  10.890 -0.0052 -0.1858 -0.3592
24247W        W39716  12.145   9.480  11.467  0.1002 -0.2514  0.1052
24248W        W39717  17.287   4.040  15.297 -0.0534 -0.1737 -0.2674
24249W        W39718  17.735  10.909   1.930  0.3092 -0.2575 -0.2509
24250W        W39719   1.194  17.846   4.241 -0.0232 -0.0462 -0.4510
24251W        W39720   1.129  10.045  12.965  0.3210 -0.3748 -0.0343
24252W        W39721  11.228   3.920   1.022 -0.2711  0.3564  0.1894
24253W        W39722  11.741   6.043   3.246  0.2356  0.1760 -0.1758
24254W        W39723  14.407  12.186   2.562  0.1410  0.5025  0.3025
24255W        W39724   6.958   5.251  14.457  0.4663  0.0684 -0.0406
24256W        W39725  15.937   4.939  11.906  0.1774  0.0172  0.0282
24257W        W39726  15.610   0.449   3.864  0.1380  0.0033  0.0684
24258W        W39727  13.917   7.644  10.667  0.0208  0.1907  0.0488
24259W        W39728  16.207   0.542   4.574 -0.1047  0.1924 -0.0775
24260W        W39729  17.436   1.386  11.450 -0.0489  0.2392 -0.4008
24261W        W39730   4.728  15.300  13.971 -0.2522  0.0671 -0.4243
24262W        W39731  11.675   9.025  14.986 -0.1907  0.1578 -0.0601
24263W        W39732   6.995  12.479  11.187 -0.0028  0.2318  0.0727
24264W        W39733  18.094  16.924   0.050 -0.0628 -0.2911 -0.0990
24265W        W39734  16.202   8.658  10.570 -0.0045 -0.2753 -0.0708
24266W        W39735   7.849   4.447   5.405  0.0071  0.1991  0.2615
24267W        W39736   3.425   8.803   1.169 -0.0419 -0.2719  0.2338
24268W        W39737   2.812   3.275  12.307 -0.1620 -0.1487 -0.0018
24269W        W39738   0.886  16.654  11.945  0.0010 -0.1365 -0.1821
24270W        W39739  18.965   1.923   0.388 -0.2871  0.1634  0.2599
24271W        W39740   7.512   7.659   5.494 -0.1445  0.0070 -0.0384
24272W        W39741   8.367  18.085   5.461  0.0650  0.1315  0.2930
24273W        W39742   5.454   9.141  14.374  0.1431 -0.0552  0.1478
24274W        W39743   8.442  17.927   2.753  0.0512 -0.1407 -0.1340
24275W        W39744  18.800  10.764   2.885 -0.0185  0.3807  0.1338
24276W        W39745   8.867   4.942   4.321  0.0613 -0.3713 -0.0168
24277W        W39746   3.355   5.292  14.792  0.0501  0.0522  0.0563
24278W        W39747   4.355   2.322  13.158 -0.1183 -0.2329 -0.0817
24279W        W39748   3.500   8.447  11.784  0.3094  0.2500  0.2579
24280W        W39749  16.420  10.231   1.710  0.0658 -0.0592 -0.5472
24281W        W39750  11.085  10.083   0.719  0.0037  0.1076  0.0220
24282W        W39751   7.080  14.359  12.080  0.3760 -0.0399  0.1195
24283W        W39752  15.110   5.112   4.221 -0.3647  0.0309  0.2006
24284W        W39753  18.570   1.092   5.281 -0.0563 -0.0794  0.0955
24285W        W39754   3.436   6.946   2.771 -0.0883  0.2223 -0.1650
24286W        W39755   6.563   5.821  15.104 -0.0345  0.0822 -0.1955
24287W        W39756   1.124   3.793   2.482 -0.0230  0.2649 -0.2532
24288W        W39757  13.562  14.094  12.642  0.0758 -0.3154  0.1160
24289W        W39758   5.948   8.266   0.765  0.0405 -0.1016 -0.4111
24290W        W39759   7.754   4.924  14.024  0.1331  0.0068  0.2923
24291W        W39760   0.786   7.293   5.555  0.2352  0.2805  0.0630
24292W        W39761   5.082  10.782  15.061  0.3327 -0.0613  0.1138
24293W        W39762   6.187   7.823  12.374 -0.2328  0.1421 -0.1322
24294W        W39763   2.126  15.940  14.891 -0.1216 -0.1858  0.0828
24295W        W39764   6.641   5.985   2.875  0.0601  0.0632 -0.0609
24296W        W39765  16.601  12.940   2.338  0.2749 -0.1730 -0.1066
24297W        W39766  14.165   0.049  10.418 -0.1313 -0.2017 -0.0936
24298W        W39767  12.082  17.125   1.514  0.0346  0.1118 -0.2030
24299W        W39768   0.459   5.567  12.334  0.1652 -0.1678 -0.0010
24300W        W39769  16.867   7.793   0.731 -0.0049 -0.4616 -0.0693
24301W        W39770  16.375  18.795   0.590  0.0014 -0.0112 -0.2805
24302W        W39771  16.324  16.846   3.778  0.2555  0.0338 -0.1045
24303W        W39772   7.549   6.540  12.445 -0.1002  0.1577 -0.1518
24304W        W39773   8.946   2.763   1.911  0.2670 -0.2276  0.2421
24305W        W39774   8.267   3.100   3.447 -0.1753  0.3475  0.1693
24306W        W39775  12.951   1.061  15.266 -0.3780  0.5782 -0.0884
24307W        W39776  14.861  12.800   5.374  0.0396 -0.3404  0.0732
24308W        W39777  10.924   3.426  14.133  0.0215 -0.0768 -0.0976
24309W        W39778  15.995  15.912   1.372  0.0610  0.3492  0.1070
24310W        W39779   7.794  17.874   4.654  0.0818 -0.2904 -0.1710
24311W        W39780   1.045  18.032  13.846 -0.0321 -0.1808 -0.0843
24312W        W39781  18.445  14.466  14.784 -0.0650 -0.0419 -0.0801
24313W        W39782   2.103  10.149  12.180  0.0982 -0.2074 -0.1053
24314W        W39783  16.535  18.115  10.925 -0.0172 -0.1139  0.3184
24315W        W39784   3.820   3.071   2.265  0.3158  0.1397 -0.1565
24316W        W39785   4.154   2.117   0.989  0.2974  0.3344  0.2481
24317W        W39786   8.231  11.780  15.227 -0.1963 -0.3150  0.0782
24318W        W39787  12.399   8.434   2.050  0.0832 -0.0964  0.2111
24319W        W39788  15.064  17.159   1.761 -0.1921 -0.0921 -0.2138
24320W        W39789  15.365  15.096   1.145 -0.0213 -0.2556  0.1578
24321W        W39790  17.205   6.578  15.101 -0.0960 -0.1384 -0.0403
24322W        W39791  16.791   4.115  10.806 -0.1442 -0.1408 -0.0352
24323W        W39792   8.305   2.604   1.345 -0.2571  0.0673  0.0824
24324W        W39793  13.325  13.020  10.207 -0.2431 -0.4382 -0.0242
24325W        W39794   8.562  14.420  11.938  0.1381 -0.1822  0.1629
24326W        W39795  18.777  15.607  13.679  0.0173  0.2025  0.0554
24327W        W39796  11.501   2.804   4.605  0.1322 -0.0838 -0.1393
24328W        W39797   5.813  10.349   4.197  0.0437 -0.0833 -0.0135
24329W        W39798   1.594   0.812   3.175  0.0402 -0.1105 -0.1251
24330W        W39799   4.310   4.328  14.219 -0.2736  0.2746  0.0024
24331W        W39800   3.053  18.548   2.715  0.0159 -0.1389  0.0159
24332W        W39801   3.901  12.234   1.381  0.3715 -0.2569 -0.2533
24333W        W39802  10.702  14.986   4.179  0.6121  0.0777  0.1399
24334W        W39803  14.355   0.437  13.657  0.0278 -0.1878  0.1399
24335W        W39804  12.032  10.545   5.171 -0.0381  0.0040 -0.1285
24336W        W39805   1.296   9.097  12.610 -0.2242  0.2740 -0.2676
24337W        W39806  14.673   5.651  12.577  0.3008  0.2293 -0.2783
24338W        W39807   0.682  17.492   5.267 -0.0761  0.1944  0.0259
24339W        W39808   7.500   0.900   0.343 -0.0598 -0.1481 -0.0177
24340W        W39809  10.052   1.376  12.414 -0.0502 -0.1920 -0.0126
24341W        W39810   9.085   6.258   0.127  0.0969  0.3107  0.3115
24342W        W39811  11.942  14.760  14.875 -0.2001  0.2249  0.0079
24343W        W39812  15.170  11.998  12.306 -0.0078 -0.0317 -0.0460
24344W        W39813  11.718  10.935  14.979  0.0193 -0.0211  0.1743
24345W        W39814  13.382   7.762  10.854  0.3756  0.1510 -0.4287
24346W        W39815  11.981  18.107   1.115  0.1314 -0.1633  0.0724
24347W        W39816  16.815   5.400  12.812 -0.1302 -0.1262  0.2450
24348W        W39817   9.549  13.541   3.158 -0.3974  0.0118 -0.0599
24349W        W39818  18.892  12.968  10.480  0.2992 -0.1072 -0.4230
24350W        W39819  13.732   1.305   1.499 -0.0652  0.1991  0.2892
24351W        W39820   2.235   6.470   0.654  0.0052 -0.0262  0.1344
24352W        W39821  14.987  18.287  13.439  0.0260 -0.0344  0.2499
24353W        W39822   2.069  17.685   2.023 -0.0498 -0.0311 -0.2308
24354W        W39823  17.833  15.509   2.111  0.2006 -0.0037 -0.0112
24355W        W39824  11.027  15.503  11.501  0.0327 -0.0416 -0.1007
24356W        W39825   2.570  10.077  14.058  0.0764 -0.3637 -0.0918
24357W        W39826  10.468  17.630   1.023  0.1539  0.3230 -0.2538
24358W        W39827  11.430  11.297   0.794  0.0575 -0.3188  0.3486
24359W        W39828   7.285   6.342   5.068  0.2124  0.0539  0.2803
24360W        W39829   9.577   4.604  13.409  0.0963  0.0816  0.1429
24361W        W39830   6.456   5.101  12.640  0.0385  0.0368 -0.5049
24362W        W39831   9.994  15.105   1.212 -0.2693  0.1065  0.3330
24363W        W39832   0.227   8.770  14.553  0.4614  0.0236  0.0148
24364W        W39833   5.932  17.844  12.887  0.0336  0.0296 -0.1849
24365W        W39834   8.755  10.408   0.331  0.0110 -0.2214  0.2005
24366W        W39835  15.022  15.179  12.614 -0.0745  0.0306  0.0616
24367W        W39836  14.317   4.861   2.367 -0.4059 -0.0871  0.2145
24368W        W39837  16.682  12.362   2.309 -0.3129 -0.0396 -0.1685
24369W        W39838   3.197  16.430  11.564 -0.0029  0.1311 -0.1088
24370W        W39839  16.446  10.598   3.208  0.3690  0.2881 -0.2461
24371W        W39840   8.307   9.422  14.277  0.3061 -0.2202  0.0803
24372W        W39841   7.206  16.184  14.479 -0.1120  0.0326  0.2119
24373W        W39842   6.310   2.476   1.854 -0.1158  0.1907  0.0390
24374W        W39843   0.651  12.440   0.225  0.1066 -0.1815 -0.2094
24375W        W39844   0.793  16.893  15.027 -0.0349  0.1956  0.1737
24376W        W39845   3.127   5.003  12.903  0.0750  0.0064 -0.4177
24377W        W39846   5.301   4.922   2.693 -0.0017  0.0616  0.0046
24378W        W39847   2.781  15.779   3.096  0.0082  0.3075 -0.0444
24379W        W39848   9.682  11.399   3.418 -0.0644 -0.2914  0.0377
24380W        W39849   8.909  18.397   3.848 -0.1294  0.1649  0.0235
24381W        W39850  10.773   8.911   3.012  0.3498 -0.0982 -0.2769
24382W        W39851   6.980   0.004  10.329  0.1427  0.3154 -0.1031
24383W        W39852  12.393   5.381   4.574 -0.0481  0.1784  0.1965
24384W        W39853  17.327   2.534   2.893 -0.2603 -0.0043  0.0818
24385W        W39854  15.006  16.554   3.973  0.2494 -0.0919 -0.0492
24386W        W39855   4.158   3.163   5.650 -0.0752  0.1914  0.0102
24387W        W39856   1.248   5.480  11.885  0.1309 -0.0186 -0.1307
24388W        W39857  14.753  16.202   3.748  0.1273 -0.1353 -0.0052
24389W        W39858   0.413   8.981   0.214  0.1565 -0.2651 -0.0944
24390W        W39859  10.486   6.968  12.525 -0.1772  0.0367 -0.5403
24391W        W39860  17.177   6.847  12.954 -0.0403 -0.2006 -0.0926
24392W        W39861  15.823   2.827  10.861 -0.1493  0.1972  0.3544
24393W        W39862  11.374   0.401  13.053  0.1640  0.3364  0.2207
24394W        W39863   4.189   3.344  14.044  0.3343  0.1447 -0.0024
24395W        W39864   2.250   4.466   4.838 -0.0467 -0.0373 -0.2497
24396W        W39865  13.291  13.098  12.007 -0.0536 -0.2052 -0.1131
24397W        W39866  16.507   6.043  13.948 -0.1919  0.0956  0.0400
24398W        W39867   6.110  15.672   2.395 -0.0533  0.1832  0.0855
24399W        W39868  16.982  10.478   4.183  0.0798  0.0512 -0.1360
24400W        W39869  12.743  14.840  15.216  0.2510  0.0130  0.2188
24401W        W39870  17.415   9.528  11.589  0.0818 -0.2373 -0.0468
24402W        W39871   2.571   1.173   1.054  0.3426  0.0112  0.0525
24403W        W39872  15.710   3.052   2.607  0.2226 -0.0314  0.2357
24404W        W39873  14.892  10.409   1.111  0.0201  0.2842 -0.1186
24405W        W39874  11.525   3.751   0.116  0.1723  0.3474  0.0251
24406W        W39875   5.012   0.766   2.722 -0.0382 -0.0422  0.1955
24407W        W39876  18.309  18.224  14.753 -0.1794 -0.2931  0.2709
24408W        W39877   2.482   2.837   0.320 -0.0377  0.1641  0.1330
24409W        W39878  17.508  14.866   1.486 -0.2366 -0.1668  0.3897
24410W        W39879   8.045  15.582   2.923 -0.0643  0.1592 -0.0462
24411W        W39880   5.209  13.191   3.089 -0.0534  0.2441 -0.2023
24412W        W39881  14.680  13.401   1.456 -0.0038  0.3205 -0.0909
24413W        W39882   1.337   8.879   0.177 -0.0207  0.2407  0.1467
24414W        W39883  12.273  17.799  13.863  0.0570 -0.2360 -0.1824
24415W        W39884  11.364  13.737   3.193  0.2617 -0.2081 -0.0850
24416W        W39885   5.041  17.139  14.167  0.1323 -0.1267 -0.0060
24417W        W39886  14.242  17.355   3.818  0.0155  0.1996 -0.1676
24418W        W39887   0.571   3.943  13.556 -0.4269  0.0490  0.0506
24419W        W39888   6.966   6.465  13.298  0.0261 -0.4327  0.3391
24420W        W39889  13.893   3.226  11.605 -0.0333  0.0469  0.2183
24421W        W39890   8.251   3.283   0.511  0.0451  0.0298 -0.1200
24422W        W39891  15.766   6.139  12.940  0.4522  0.2027  0.1446
24423W        W39892   8.924  16.772   2.026  0.0459 -0.0529  0.0589
24424W        W39893   6.718   2.190  13.425 -0.2385 -0.0019  0.1453
24425W        W39894  13.792  15.575   2.250 -0.1439 -0.0412  0.2820
24426W        W39895  12.395  11.266  12.532 -0.1225 -0.2823 -0.2743
24427W        W39896   3.987   1.626   3.443 -0.2082 -0.1605  0.1200
24428W        W39897   8.842  13.749   4.865  0.0839 -0.2201 -0.0794
24429W        W39898  13.534  11.102   4.025  0.0524 -0.0116  0.0410
24430W        W39899  17.637  18.177   9.692  0.1763 -0.1252 -0.0771
24431W        W39900   2.817   5.031   3.721 -0.3817 -0.1569  0.0448
24432W        W39901   1.194   3.631  14.140 -0.0422 -0.0636  0.2629
24433W        W39902  18.161   3.484  13.174  0.5091  0.1756 -0.0507
24434W        W39903  13.474   0.029  11.652  0.2406 -0.3646  0.0971
24435W        W39904  12.230  18.800   3.547 -0.1406 -0.0447  0.1240
24436W        W39905  12.611   8.633  14.007  0.1627  0.1615  0.1729
24437W        W39906   6.149  14.661   1.649 -0.0456 -0.1717  0.2219
24438W        W39907   0.149  13.873  11.182 -0.2809  0.0619  0.3948
24439W        W39908   0.829   8.805  14.326  0.1674 -0.0218 -0.0171
24440W        W39909  10.345   8.825   1.677 -0.3564 -0.1015  0.0543
24441W        W39910   4.169   1.662   1.889 -0.1797  0.3114 -0.3757
24442W        W39911   5.618  16.340  14.659 -0.3380 -0.2972  0.1301
24443W        W39912  14.831   2.852  12.257 -0.0469  0.0690  0.1740
24444W        W39913   5.344  15.535  12.210  0.3984  0.0079 -0.3441
24445W        W39914   2.065   0.978   3.224 -0.1392 -0.1496 -0.4504
24446W        W39915   6.368   8.472  11.559 -0.1854  0.0870  0.2437
24447W        W39916  15.498   4.871  12.976  0.2098 -0.1888  0.0611
24448W        W39917   5.174   8.896   0.916 -0.1467 -0.3196  0.3255
24449W        W39918  18.367  11.834   0.422  0.3192  0.1083  0.1713
24450W        W39919   9.410   6.050   0.513 -0.0780  0.0128  0.0222
24451W        W39920   5.203   2.550   2.288 -0.1427  0.2940 -0.1031
24452W        W39921   9.624   3.648  15.267  0.4425  0.1284  0.1567
24453W        W39922   0.972   5.845   3.320  0.2463  0.1589  0.2715
24454W        W39923  17.177   8.866   3.822 -0.0322 -0.1353 -0.0747
24455W        W39924  13.212  13.064  15.108  0.0560 -0.2749 -0.0773
24456W        W39925  14.140  15.015   5.099  0.0554  0.1414 -0.0028
24457W        W39926  18.786  17.937  11.169  0.2917  0.2665  0.0451
24458W        W39927  12.779   8.629   4.125 -0.1202 -0.2828  0.0803
24459W        W39928   5.990  15.228   4.831 -0.5973  0.0305 -0.3522
24460W        W39929   4.124  11.705  14.987  0.2927  0.1802  0.2465
24461W        W39930   1.806   5.125  13.565 -0.0277  0.2139 -0.0103
24462W        W39931  11.964  16.318  13.658 -0.1639  0.1013 -0.0641
24463W        W39932  14.113   9.171   4.195  0.0167 -0.0609  0.0243
24464W        W39933   6.776  13.066  12.225  0.0596  0.1482 -0.0191
24465W        W39934  11.979  11.098  10.815 -0.2786 -0.2091 -0.2544
24466W        W39935   8.169  10.665  12.963 -0.1040 -0.0806 -0.0750
24467W        W39936  16.803   4.179   0.894 -0.1068 -0.2298  0.0132
24468W        W39937   9.588   5.264   4.189  0.1071 -0.0263  0.0070
24469W        W39938  11.066  17.847  15.350 -0.2233  0.1399 -0.3498
24470W        W39939  12.846  13.801  10.901  0.0159 -0.1569 -0.1576
24471W        W39940  11.318  14.521   4.467 -0.1636  0.0922 -0.1088
24472W        W39941   9.911   0.603   0.729 -0.1711 -0.0717  0.2304
24473W        W39942  10.711  13.462  14.863  0.0333 -0.0680  0.0420
24474W        W39943  16.339  12.578  14.425  0.1918  0.0263  0.1279
24475W        W39944  16.444   0.579   1.114 -0.0818  0.1311 -0.4898
24476W        W39945   9.315   8.605  14.921  0.2029 -0.2375 -0.0512
24477W        W39946   4.179  14.143  12.037 -0.3289  0.0523 -0.1715
24478W        W39947   9.484   6.732  12.657  0.0628  0.2465  0.0979
24479W        W39948   2.892   8.435  12.974 -0.0612  0.1767 -0.0130
24480W        W39949  17.168   7.340   1.470  0.0665 -0.2090 -0.0990
24481W        W39950   5.909   2.757   1.676 -0.1341 -0.2550 -0.2637
24482W        W39951  16.408  18.936   9.865 -0.2105  0.4417  0.1545
24483W        W39952  14.044   2.894   3.698 -0.0238 -0.2393 -0.1431
24484W        W39953   7.046  10.282  14.776  0.1089 -0.2292  0.1113
24485W        W39954  14.011  10.227   1.501 -0.0195 -0.1382  0.0489
24486W        W39955   2.803  15.558   3.858  0.0133  0.1308  0.2031
24487W        W39956  18.169  10.894   0.413 -0.1474  0.0820 -0.3771
24488W        W39957  18.625   5.718   5.619 -0.1481 -0.0931 -0.2652
24489W        W39958  10.998  10.746   2.843  0.1440  0.1119  0.0637
24490W        W39959   9.971   7.286   1.484 -0.1443 -0.4505  0.0436
24491W        W39960   5.836   1.689   1.255  0.0222 -0.3216 -0.1151
24492W        W39961   8.757   6.772   4.887 -0.2385 -0.0953  0.0294
24493W        W39962   4.196   4.206   5.421  0.2592 -0.2944 -0.0171
24494W        W39963  14.910  10.859  11.985  0.1603 -0.2204 -0.0925
24495W        W39964   1.750  17.532  11.614 -0.1186  0.0024  0.0054
24496W        W39965   2.819  13.282  11.475  0.0977  0.1784  0.0001
24497W        W39966  10.276   6.573   4.015 -0.0402 -0.0123  0.0826
24498W        W39967  18.042   6.302   4.577 -0.1157  0.1830  0.0215
24499W        W39968   4.763   3.801   2.598  0.2266  0.3119 -0.0767
24500W        W39969   5.607   1.929  12.551  0.2100  0.2685  0.1624
24501W        W39970  15.495  11.735  10.916 -0.2195 -0.0644 -0.3826
24502W        W39971  16.877   4.182  14.466  0.2009  0.4421 -0.2743
24503W        W39972   3.066   4.055  14.170 -0.2865  0.0428 -0.2318
24504W        W39973  11.809  12.066  12.184 -0.1750 -0.1043 -0.1059
24505W        W39974   0.123  11.949  12.322 -0.0936 -0.0961 -0.0030
24506W        W39975  12.614   6.215   2.137  0.2546 -0.2187  0.0561
24507W        W39976   7.989  11.778   4.452 -0.1744 -0.1173  0.0204
24508W        W39977   2.099  17.150  10.811  0.2751 -0.0320 -0.2117
24509W        W39978  11.888   1.553   3.853 -0.0004 -0.1490  0.1941
24510W        W39979   2.950  16.267  12.022  0.2177  0.2635  0.1073
24511W        W39980  13.349  18.542   4.622  0.0532  0.0812  0.0178
24512W        W39981  17.636  12.605   2.718 -0.1418  0.0801 -0.1126
24513W        W39982   7.085  10.154  11.070  0.0019 -0.2485  0.0528
24514W        W39983  11.206  19.007   1.542 -0.1203 -0.3116 -0.1305
24515W        W39984  17.244   3.249  14.642 -0.1675  0.1116 -0.0027
24516W        W39985   0.201  13.659   0.099 -0.1690 -0.0495  0.1335
24517W        W39986   8.484  16.004  13.931  0.0507  0.1562  0.0461
24518W        W39987  17.996  14.860   0.800 -0.0128  0.2730 -0.2753
24519W        W39988   4.471  15.706   1.432 -0.1881  0.1319 -0.1352
24520W        W39989   2.396  12.346   1.923 -0.1782 -0.1864 -0.1766
24521W        W39990  18.049  18.281   5.334 -0.2992 -0.0342 -0.2395
24522W        W39991   9.037   2.323   2.669  0.2812  0.2099 -0.0402
24523W        W39992   7.618  10.374   0.434  0.0816  0.0370 -0.0104
24524W        W39993   7.383   9.212  14.771  0.0943  0.0112  0.0048
24525W        W39994   9.941   5.640   1.111 -0.0929  0.2736 -0.2114
24526W        W39995  13.750   6.188   1.711  0.1032 -0.1626 -0.0025
24527W        W39996   8.776  17.590   4.161  0.0453  0.0507  0.0021
24528W        W39997   7.440  14.697   1.968  0.0068  0.1093 -0.0291
24529W        W39998   1.382  18.581   3.894 -0.2798  0.1378 -0.1054
24530W        W39999   8.192   9.761   4.122 -0.0987  0.3110  0.0017
24531W        W40000   8.731   1.642  12.666 -0.1676  0.1065 -0.1469
24532W        W40001  13.328  12.209   2.240  0.0311 -0.0158 -0.0360
24533W        W40002  12.536  15.669   1.506  0.1772  0.3133 -0.0624
24534W        W40003  12.661  16.129   2.750  0.2758  0.3552 -0.2455
24535W        W40004   0.454  18.235  14.248 -0.1098  0.1404 -0.0869
24536W        W40005  18.869   2.580  14.232  0.1066  0.0563  0.2513
24537W        W40006  17.043   4.448  15.175 -0.2259  0.0718  0.0204
24538W        W40007  15.646  12.085  10.584  0.2006  0.2558 -0.1336
24539W        W40008   6.561   1.464   5.679  0.0374 -0.0827  0.1666
24540W        W40009  12.930   6.299   9.434 -0.0767 -0.0148 -0.0535
24541W        W40010  17.354   7.053  12.496  0.2764 -0.0506  0.2985
24542W        W40011  12.074  18.713   4.982 -0.0455 -0.0639  0.0616
24543W        W40012  12.804  13.791   4.007  0.1581 -0.4172  0.1428
24544W        W40013   1.693   7.986   1.182  0.3693 -0.0890 -0.0709
24545W        W40014   8.201   2.282   3.137 -0.2532  0.0215  0.1824
24546W        W40015  11.094  10.417   3.264  0.0111  0.1180  0.1693
24547W        W40016  18.239   5.786   9.676 -0.1936 -0.1709 -0.0212
24548W        W40017   0.437   9.454   2.886  0.1805 -0.0613 -0.0659
24549W        W40018   9.110  16.052  11.479  0.0027 -0.3199 -0.0258
24550W        W40019  11.720   8.496   1.358  0.2711  0.4473  0.0805
24551W        W40020  13.630  11.469   4.893 -0.1894 -0.0086 -0.0136
24552W        W40021   2.029  16.878   5.011  0.2690 -0.2071 -0.2157
24553W        W40022   5.489   7.485   0.170  0.0226 -0.0257 -0.2288
24554W        W40023   7.871   1.421  13.791  0.1202 -0.1441 -0.2919
24555W        W40024  14.583   9.662  14.848  0.2463  0.2685 -0.4971
24556W        W40025   9.190   0.216   4.767  0.3796 -0.0931  0.0799
24557W        W40026   8.092   6.443  13.343  0.0156  0.4536  0.0463
24558W        W40027  15.686  17.322  14.053  0.3123 -0.1373 -0.0867
24559W        W40028  17.022  11.527   2.017 -0.0659 -0.0523 -0.0150
24560W        W40029   1.659  17.112  11.321 -0.2561  0.2943  0.0614
24561W        W40030   4.811   6.470  14.925 -0.0449 -0.0707  0.2127
24562W        W40031  18.786   6.782  11.496 -0.3581  0.2325  0.3493
24563W        W40032   5.768  11.807  13.123 -0.0064  0.5259 -0.1051
24564W        W40033   1.919  14.598  14.460  0.0324  0.3006 -0.1374
24565W        W40034  13.842   8.172   5.118 -0.1801 -0.0544  0.2110
24566W        W40035  15.747  13.633   4.888 -0.0215  0.0700  0.3669
24567W        W40036   7.253  11.013   3.723  0.0623 -0.0273 -0.1118
24568W        W40037  13.732   0.663   9.576  0.1065 -0.1396  0.0620
24569W        W40038  12.061   4.549   0.200  0.0733  0.1411 -0.3539
24570W        W40039   4.505   2.255  15.357  0.3052  0.0397  0.3233
24571W        W40040  17.213  14.712   2.725  0.1362  0.1946 -0.2764
24572W        W40041   1.191   8.214  12.929  0.2340  0.1696 -0.0259
24573W        W40042   8.493   4.918   9.602 -0.1241 -0.1078  0.1237
24574W        W40043   6.438  14.820  11.156 -0.3548  0.1074 -0.0124
24575W        W40044  12.978  14.581  11.100  0.0787 -0.0026  0.2552
24576W        W40045   4.855  18.513  13.267  0.1221  0.1633 -0.3749
24577W        W40046   6.318   2.534  12.495 -0.0915  0.4238  0.1273
24578W        W40047   9.884   1.381  11.662 -0.3592 -0.1220  0.0842
24579W        W40048   5.944   4.667   3.702 -0.2238  0.2623  0.1930
24580W        W40049  16.609   3.249  12.186 -0.2520  0.1482 -0.0532
24581W        W40050  10.862   9.624   1.276 -0.1205  0.1294  0.0992
24582W        W40051   9.709  14.612   2.881  0.1599 -0.1846  0.1992
24583W        W40052   4.388  12.937  12.823 -0.0206  0.1050 -0.1880
24584W        W40053  11.403   3.338   1.995 -0.0908 -0.3568 -0.0692
24585W        W40054  12.037   4.024  14.846 -0.3971  0.1741  0.2359
24586W        W40055  13.050  14.842   5.423  0.0939  0.0457  0.0143
24587W        W40056  17.095   9.492  11.975 -0.2121  0.0409 -0.0631
24588W        W40057   7.398   1.756  14.797 -0.2163  0.1311 -0.2437
24589W        W40058  11.192  12.059  15.096  0.0478  0.0969 -0.1671
24590W        W40059   8.318  17.977  10.320  0.4567 -0.1763  0.2287
24591W        W40060  15.065   5.802  14.498  0.0187 -0.2055  0.2870
24592W        W40061   6.873  18.755  13.673  0.1730  0.1341  0.1597
24593W        W40062   8.087   5.291   3.740  0.1400 -0.3617  0.3384
24594W        W40063   5.747  15.219   3.785 -0.0688  0.0791 -0.0237
24595W        W40064   4.950  18.532   3.118  0.2251  0.0199 -0.2249
24596W        W40065  16.174   3.837   2.483  0.1157  0.3189 -0.0626
24597W        W40066   7.745  12.872   2.212 -0.0518  0.0613  0.1045
24598W        W40067  16.486   5.877  12.029  0.1111  0.1923 -0.0097
24599W        W40068   0.405   1.737   1.798 -0.2273 -0.2014 -0.2363
24600W        W40069  16.027  14.503  14.524  0.0357 -0.0716 -0.1127
24601W        W40070  18.595   9.711  13.647  0.0321 -0.2034 -0.0889
24602W        W40071  12.302   5.214  10.949  0.2862 -0.0490  0.0209
24603W        W40072   6.067   7.229  14.663 -0.1064  0.1399  0.1924
24604W        W40073   8.493  12.477  14.283  0.0439  0.1553 -0.0684
24605W        W40074   4.344  10.212   5.237  0.1512 -0.0162  0.3296
24606W        W40075  15.889  11.044  12.467  0.0929  0.0964 -0.0674
24607W        W40076   9.980  13.300   2.886 -0.0312 -0.3002  0.0117
24608W        W40077   7.349   4.596  11.702  0.1018 -0.1543 -0.5146
24609W        W40078  14.441  12.512   2.988 -0.0560  0.2090  0.0665
24610W        W40079  15.330  17.797   4.707  0.0818 -0.2860 -0.0028
24611W        W40080   8.185   7.725  11.463 -0.1879  0.1320  0.2603
24612W        W40081   1.995  16.287  10.599 -0.0934 -0.3443  0.1345
24613W        W40082  12.001  14.261  15.286 -0.1869  0.0045  0.3010
24614W        W40083  18.386   6.803   1.381  0.0049  0.1872 -0.2053
24615W        W40084  12.294  12.885  13.245 -0.1338  0.0893  0.4797
24616W        W40085   4.510  12.276  13.552  0.0295 -0.1195 -0.0415
24617W        W40086   8.622   7.117  12.663  0.5231 -0.0041 -0.1530
24618W        W40087  16.941   9.473  14.908  0.0143  0.2163  0.1361
24619W        W40088  18.500  15.043   0.709 -0.1329 -0.3942  0.2247
24620W        W40089  10.654   9.993  11.906 -0.0851 -0.1289 -0.2246
24621W        W40090   7.630  13.428   0.453  0.1215  0.0140 -0.2955
24622W        W40091   6.515  14.086  14.601 -0.1287 -0.0643 -0.0045
24623W        W40092  14.936  13.593  12.877 -0.0811  0.2786 -0.0011
24624W        W40093  13.279   2.148   4.620  0.0915 -0.3670 -0.0509
24625W        W40094   3.327   1.709  14.322  0.3298  0.2734 -0.3449
24626W        W40095  13.297   9.349  14.646 -0.1546 -0.2720  0.3729
24627W        W40096   8.166   0.621   6.022  0.1397 -0.1408 -0.1696
24628W        W40097  16.385   3.653   2.886 -0.0481 -0.2155  0.0554
24629W        W40098  18.998  14.914   3.422  0.0657 -0.2173  0.1741
24630W        W40099   5.332  15.520  15.240  0.2417  0.2724 -0.1340
24631W        W40100  11.409  16.041   2.215 -0.3895  0.3473  0.1489
24632W        W40101  18.605  12.894  11.983  0.0179  0.2806  0.0983
24633W        W40102   1.585  17.586   3.301 -0.0298  0.1736 -0.2628
24634W        W40103   0.043  13.585  12.224 -0.0071  0.1327 -0.4788
24635W        W40104  12.235  17.067  13.759 -0.2898  0.0726 -0.2945
24636W        W40105  10.416  12.220  14.632  0.0391  0.2929 -0.0889
24637W        W40106   8.096  14.024   4.089 -0.1202 -0.4263  0.2650
24638W        W40107  14.101   7.037  10.882 -0.2524  0.1239  0.0307
24639W        W40108   4.521   6.995   5.014 -0.2404 -0.1584 -0.1247
24640W        W40109   5.852   5.006   2.532  0.1513 -0.1682  0.0248
24641W        W40110  18.685  12.672  11.288  0.0729 -0.1869  0.2012
24642W        W40111   0.022   0.948   4.130 -0.2659  0.0758 -0.1822
24643W        W40112   9.715  15.981  10.927  0.2210  0.1650 -0.2923
24644W        W40113   6.560   2.626   3.733  0.1676 -0.1081  0.1178
24645W        W40114   1.033   6.256   0.914  0.0218  0.0255  0.0555
24646W        W40115   9.880  12.971  13.101  0.1326 -0.0571 -0.0975
24647W        W40116  18.956   7.699  11.237 -0.0484 -0.0421  0.0458
24648W        W40117   6.667   9.815  13.061  0.0635  0.1250 -0.0830
24649W        W40118  14.349   5.358  12.715  0.2685 -0.0231 -0.0017
24650W        W40119   0.338   1.666  10.935  0.1342 -0.0784  0.0856
24651W        W40120  13.593  18.716   5.249 -0.0039  0.0444 -0.3263
24652W        W40121   9.402   2.190   4.386  0.1476  0.0563 -0.0001
24653W        W40122  13.378   5.234  12.744  0.2414 -0.2556  0.1086
24654W        W40123   0.133  16.968   4.599  0.1194  0.3223 -0.1648
24655W        W40124   3.787   4.524  14.408  0.1858 -0.0383 -0.3443
24656W        W40125  11.513  12.598   4.136 -0.1019 -0.0580 -0.1201
24657W        W40126  15.434  10.231   3.532  0.0731  0.1122 -0.2973
24658W        W40127  10.739   9.960  11.412  0.1892  0.3911 -0.0353
24659W        W40128  18.850  11.517  13.357 -0.1213  0.0769 -0.0313
24660W        W40129   8.966  13.831  12.471 -0.0873 -0.0785 -0.4650
24661W        W40130   3.634  15.627   0.709  0.2636 -0.0233 -0.0494
24662W        W40131  17.672   1.680  13.744  0.3559 -0.1052  0.2173
24663W        W40132   8.775  13.055   0.308 -0.0858  0.0479 -0.0383
24664W        W40133  16.497   5.345  13.827  0.3542 -0.1060 -0.2955
24665W        W40134   3.576  14.947   3.614 -0.0789 -0.1127  0.0782
24666W        W40135   2.622   1.838   2.253  0.0029 -0.4391 -0.1656
24667W        W40136  12.491  16.469   4.582  0.0018  0.1467 -0.0315
24668W        W40137  18.610  13.311   9.511  0.1191 -0.0899  0.2374
24669W        W40138   5.810   2.286  11.736  0.0855  0.1002 -0.2727
24670W        W40139   4.179   6.260  14.006  0.1427  0.2312 -0.4562
24671W        W40140  18.207   5.136   3.017 -0.2398  0.2948 -0.0743
24672W        W40141  18.593   8.022   4.390  0.0157 -0.0060  0.3723
24673W        W40142  18.890   7.580  11.863  0.1101  0.1038 -0.2130
24674W        W40143   3.662   5.042   0.761  0.0035  0.0048  0.4810
24675W        W40144   8.299   8.951   3.028 -0.0556 -0.0178 -0.2433
24676W        W40145   1.071   9.666  13.241 -0.1957 -0.1945 -0.2029
24677W        W40146   8.667  18.369   2.870 -0.1145 -0.2182 -0.1959
24678W        W40147   0.220   8.000   5.957 -0.0266  0.2651 -0.3207
24679W        W40148  18.728  14.361   5.021  0.2091  0.1840 -0.0782
24680W        W40149   8.084  10.560   3.604 -0.0025 -0.4351 -0.4239
24681W        W40150   8.421  12.150   1.395  0.2428  0.2760  0.0345
24682W        W40151   2.195   8.067  10.704  0.2086  0.0748 -0.0170
24683W        W40152  12.553  16.729  12.975 -0.1700 -0.0901 -0.0082
24684W        W40153  13.304  14.214  14.058 -0.2241  0.1087 -0.3976
24685W        W40154  19.031   3.228   9.840 -0.2238  0.2757 -0.2626
24686W        W40155   7.030   2.327  11.330 -0.2061  0.2391  0.0208
24687W        W40156   9.655  11.127  12.869 -0.0324  0.4604  0.0191
24688W        W40157   4.376   8.106   4.433  0.2359 -0.1615 -0.0647
24689W        W40158   4.182   3.764   3.282 -0.1142  0.1785  0.1237
24690W        W40159  14.845  18.288  12.950  0.0576 -0.2489  0.0406
24691W        W40160  18.213  14.132  11.619  0.2135 -0.2075 -0.0238
24692W        W40161  12.700   7.229   4.698 -0.0184 -0.2344  0.1059
24693W        W40162  16.292  14.896  12.767 -0.3601  0.2927 -0.0081
24694W        W40163  18.654  14.421  15.354 -0.0602  0.1688 -0.1455
24695W        W40164   1.743   6.604   3.696 -0.3292 -0.0010  0.3022
24696W        W40165  14.453   5.436  13.363  0.0745  0.0356 -0.1173
24697W        W40166   9.323   0.853   3.980  0.2371  0.0057 -0.2310
24698W        W40167   7.498  10.896  11.736 -0.1419  0.0966  0.1221
24699W        W40168  16.382   1.637  10.352 -0.0050 -0.0364 -0.1397
24700W        W40169   1.571  17.465  13.603 -0.2449 -0.0484  0.0972
24701W        W40170   9.638   5.226   2.390 -0.1512  0.3461  0.2341
24702W        W40171   2.305  10.020  13.619  0.0045  0.0396  0.2134
24703W        W40172   7.156  17.386  15.114 -0.0514 -0.2370  0.1077
24704W        W40173  11.236  17.785  11.131 -0.0020 -0.1027  0.1243
24705W        W40174   0.051   1.135   1.224  0.0952  0.1850 -0.0597
24706W        W40175   1.173  13.922   2.528  0.1756  0.0348 -0.0920
24707W        W40176  17.994   4.266   2.815 -0.4277  0.1532 -0.1472
24708W        W40177  12.974  12.791   3.839  0.2442 -0.2734 -0.4114
24709W        W40178   9.647   0.749  13.621 -0.1421 -0.0225 -0.0221
24710W        W40179  11.180  18.757   3.894  0.1174  0.4528 -0.1274
24711W        W40180   2.971   0.401  13.484 -0.3820 -0.1597  0.0200
24712W        W40181  17.624   5.922   3.888 -0.2497  0.2564  0.1516
24713W        W40182  15.481  16.927   1.512  0.2260 -0.2344 -0.0981
24714W        W40183   6.683   5.448  12.891 -0.0549  0.1791  0.0936
24715W        W40184   7.333   8.606  12.785  0.1133 -0.3004 -0.1947
24716W        W40185   2.846   0.534   4.824  0.2603 -0.0479  0.1244
24717W        W40186  15.371  16.684   1.090  0.1242 -0.0436 -0.0818
24718W        W40187   4.594   0.212  10.896 -0.0652  0.0856  0.0111
24719W        W40188   7.529  14.590   1.292  0.2793 -0.0126 -0.2300
24720W        W40189  18.765   3.061  13.913 -0.0590 -0.2947  0.0464
24721W        W40190  14.649   3.966  13.501  0.1481 -0.0000 -0.0236
24722W        W40191  12.862  14.241  14.603 -0.2764  0.0927  0.4517
24723W        W40192  18.053  14.392   4.351  0.1569  0.1436 -0.1943
24724W        W40193  15.975  15.287   3.901 -0.1210  0.0106  0.2370
24725W        W40194   1.284   6.355   3.458  0.0550 -0.1568 -0.0791
24726W        W40195   0.607   3.000   1.073 -0.1704  0.0123 -0.0127
24727W        W40196  13.784  17.138   3.194 -0.1981 -0.4653  0.0364
24728W        W40197  11.199   4.510   2.415  0.0319  0.3844 -0.0373
24729W        W40198   0.905   6.962   4.045 -0.2679 -0.0869  0.3145
24730W        W40199   4.794   6.832  11.547  0.0666 -0.2641 -0.0900
24731W        W40200   1.879  18.936  11.088 -0.0153  0.1156 -0.4677
24732W        W40201  11.739  12.234   1.182 -0.0721  0.1629 -0.3504
24733W        W40202  18.089   2.677   5.654  0.2872  0.1100  0.0548
24734W        W40203  17.682   9.467   3.094  0.0766  0.1059 -0.0481
24735W        W40204  18.350  13.768  14.394  0.1278  0.4626  0.1064
24736W        W40205  15.400  18.356   4.345  0.2790  0.0416 -0.2395
24737W        W40206  17.327  15.878   0.681  0.1614 -0.0318 -0.0521
24738W        W40207   9.365   8.329  14.266 -0.2510 -0.1067  0.1484
24739W        W40208  13.424  15.336  14.034  0.1424 -0.1448  0.0283
24740W        W40209  14.471  13.376   3.392  0.2641  0.3862 -0.0374
24741W        W40210   7.691  17.906   0.172  0.1157  0.0233  0.0696
24742W        W40211  18.036  18.806   2.538 -0.0654 -0.1445  0.0166
24743W        W40212  11.235  11.407  11.171  0.4183 -0.1879  0.0993
24744W        W40213  14.270  17.120  14.134 -0.1064 -0.1376 -0.0352
24745W        W40214   6.669   0.894  14.170 -0.0391 -0.2107 -0.2046
24746W        W40215  15.056  18.743  13.134 -0.0271 -0.0915  0.0282
24747W        W40216  16.471  11.846   5.066 -0.0730 -0.5635 -0.2404
24748W        W40217  12.485   4.910   3.329 -0.0285 -0.4616  0.2219
24749W        W40218  14.760  15.458   2.345 -0.1438 -0.2380  0.0702
24750W        W40219   7.105   2.402  13.758  0.0373 -0.0611  0.5347
24751W        W40220  13.230   8.794   5.385  0.3803  0.0039 -0.2396
24752W        W40221   1.683  14.995   2.081  0.0006  0.0011 -0.1781
24753W        W40222  12.843   3.428   4.200 -0.3708 -0.2879  0.0365
24754W        W40223  12.116   3.709  13.518  0.1336 -0.0233 -0.2442
24755W        W40224   7.559  13.375  12.007  0.1216  0.0953  0.0055
24756W        W40225  16.688  15.339  11.933 -0.0180  0.0533 -0.1726
24757W        W40226  17.717   9.887  15.215  0.1111  0.0630 -0.1478
24758W        W40227   7.949   6.528  12.837 -0.2823 -0.2960  0.0553
24759W        W40228  16.753  10.170  12.397 -0.1407 -0.3087 -0.0610
24760W        W40229  15.589   1.201  13.368 -0.5278  0.0188 -0.0925
24761W        W40230   6.473  14.376  10.777 -0.0539  0.2276  0.1293
24762W        W40231   9.504   6.338  14.618  0.0153 -0.0416 -0.0118
24763W        W40232  15.457   2.793   1.461  0.0563 -0.0239  0.1024
24764W        W40233   3.668   4.919  10.058 -0.3577  0.3682  0.1609
24765W        W40234   0.626   0.672  10.979 -0.2778  0.0626  0.2079
24766W        W40235  10.130   2.385  11.271 -0.2055  0.0788  0.0861
24767W        W40236   1.228  13.491  15.188 -0.3260  0.0801 -0.3981
24768W        W40237  10.583  13.025  14.630 -0.0547 -0.0257 -0.1380
24769W        W40238  10.501  15.561   3.432  0.0282 -0.2584  0.2363
24770W        W40239  12.152   7.064   3.030 -0.3931  0.0012  0.0938
24771W        W40240   7.345   2.112   1.548 -0.0821 -0.0790 -0.0307
24772W        W40241   0.659   0.447  12.360 -0.0520  0.2045 -0.1492
24773W        W40242  15.882   6.547   2.865 -0.0141  0.2427 -0.0130
24774W        W40243  14.200   9.166  12.258  0.0969 -0.2107  0.1941
24775W        W40244   4.826  10.511   0.092  0.4039 -0.0273 -0.1360
24776W        W40245   4.306   1.807   1.352 -0.0476 -0.1366  0.1562
24777W        W40246   0.049   7.226  13.108  0.1267 -0.0243 -0.1969
24778W        W40247   7.232   1.929  12.987 -0.1406 -0.2917 -0.5280
24779W        W40248  16.299  11.305   3.810  0.0357 -0.3292 -0.0621
24780W        W40249   0.515  10.016   5.538 -0.0353  0.0337  0.1431
24781W        W40250  15.858  16.913  11.193  0.0438 -0.0419  0.1076
24782W        W40251  16.838   8.233  13.177 -0.4626 -0.0257 -0.0366
24783W        W40252   1.095   2.020   0.161  0.0260  0.3342 -0.0991
24784W        W40253  12.123   9.179   0.811 -0.0608 -0.0071  0.0541
24785W        W40254   1.474  16.354  10.660  0.0143  0.0713  0.1005
24786W        W40255   1.639   8.446  11.454 -0.1669 -0.0656  0.1620
24787W        W40256   4.226   2.184   3.777 -0.2594 -0.0748 -0.2063
24788W        W40257   3.175   5.669  10.573 -0.1065  0.0079  0.0513
24789W        W40258   2.522   2.980  12.613 -0.1072  0.5444  0.1729
24790W        W40259  12.891  17.810   9.890 -0.0582 -0.0486 -0.2166
24791W        W40260   9.617  13.115  14.235  0.1531  0.0089 -0.0978
24792W        W40261   3.588  17.025   5.084  0.0669  0.2557 -0.1067
24793W        W40262   8.289   1.783   2.983 -0.2192 -0.0219  0.1278
24794W        W40263   5.408   9.289  13.500 -0.2255  0.0062 -0.0702
24795W        W40264   3.276  17.803   3.778  0.2189 -0.0122  0.2463
24796W        W40265   6.686  16.213  11.022 -0.0357 -0.0192 -0.2436
24797W        W40266   1.017   8.600   9.687  0.1944 -0.1451 -0.0096
24798W        W40267   0.322   8.023  14.436  0.3484  0.0471 -0.0522
24799W        W40268  18.034  11.955  12.160  0.0049 -0.2711 -0.2570
24800W        W40269   9.265  14.117  14.348 -0.1927 -0.0010 -0.2533
24801W        W40270   6.231  11.537   1.021  0.0692  0.0001  0.0989
24802W        W40271  17.383  13.743  14.196  0.1361 -0.3890 -0.0767
24803W        W40272   7.725   4.817   3.306  0.0615  0.3504  0.0248
24804W        W40273   7.497  16.759   2.311 -0.0466 -0.0332 -0.1878
24805W        W40274  11.575   4.142   2.989 -0.0011  0.0314 -0.0020
24806W        W40275   7.550  14.167   1.074 -0.1004 -0.2521 -0.0754
24807W        W40276  15.060   1.475  13.464 -0.4593  0.2445  0.1478
24808W        W40277   9.151   6.449   4.933  0.3722 -0.0833 -0.1789
24809W        W40278   1.435  15.672  10.877  0.1170  0.1177  0.2510
24810W        W40279  10.035   9.102   5.282  0.2296  0.1494 -0.1752
24811W        W40280  10.446  16.237   4.320 -0.2595 -0.1795 -0.1166
24812W        W40281   8.113  15.832   4.188 -0.1471 -0.1555 -0.2875
24813W        W40282  10.055  12.691  10.561 -0.0376  0.0624  0.0651
24814W        W40283  10.817  18.272  11.095 -0.2568  0.2149 -0.1480
24815W        W40284  13.103  11.474   3.073  0.3959  0.1368 -0.2959
24816W        W40285  13.946   5.260   2.579 -0.2421 -0.0316  0.0602
24817W        W40286  18.912   3.533   5.803 -0.0683  0.1347  0.0328
24818W        W40287  16.057  17.182  13.613  0.0518  0.1910  0.1897
24819W        W40288  16.068   4.971   0.127 -0.2067  0.1836  0.1685
24820W        W40289  10.275  18.469   0.055  0.3603 -0.0879 -0.1688
24821W        W40290  16.147  14.264   2.459 -0.1122  0.0336 -0.1820
24822W        W40291  12.145   1.985  14.739  0.3455  0.0417 -0.2929
24823W        W40292   4.583   9.813   2.249 -0.1459  0.3104 -0.4928
24824W        W40293   2.017   7.942  13.122  0.0371 -0.1786 -0.1021
24825W        W40294   8.369   6.898  13.064  0.1009 -0.0432 -0.2573
24826W        W40295   4.789  17.150   5.900  0.0382 -0.2343 -0.4075
24827W        W40296   1.972   1.435   1.464 -0.0146  0.1928  0.2898
24828W        W40297   1.471  10.530   1.126  0.1440  0.2173 -0.0090
24829W        W40298   0.549  10.323  13.195  0.2654  0.1915  0.0677
24830W        W40299   0.909  10.300   1.984  0.2280  0.3554 -0.1774
24831W        W40300  15.551   2.813  15.311 -0.1643  0.3070 -0.1306
24832W        W40301   9.841  11.223   4.865  0.2562 -0.0749 -0.0329
24833W        W40302  11.593  14.358  11.442 -0.0718  0.3610  0.0638
24834W        W40303   9.549   5.137  11.753 -0.0786 -0.0665 -0.4540
24835W        W40304   1.462  13.359   0.797  0.0557  0.0475 -0.0201
24836W        W40305  13.090  10.460   3.228  0.1023  0.0448 -0.0823
24837W        W40306  14.095   7.553   1.825 -0.1514 -0.1945  0.1476
24838W        W40307   2.245   4.973  12.125 -0.1977  0.0578 -0.1421
24839W        W40308   8.867   1.707  11.225 -0.0439 -0.2501 -0.0029
24840W        W40309  12.965   8.787   1.070 -0.3419  0.1676 -0.1890
24841W        W40310   8.289  10.610  14.631  0.0092 -0.0741 -0.0810
24842W        W40311   1.672   0.198   1.835 -0.1155  0.0825  0.1649
24843W        W40312   2.667  15.998   4.612 -0.2374 -0.2194  0.2643
24844W        W40313   7.737   0.630   1.850  0.1464  0.0272 -0.0551
24845W        W40314  16.836  12.237  13.703 -0.0247  0.1257 -0.1390
24846W        W40315   0.256   3.884   5.037  0.1318  0.3049  0.0887
24847W        W40316   1.238   2.551   1.298 -0.2238 -0.2156 -0.0994
24848W        W40317  10.577   4.111   2.646  0.2212 -0.2541  0.0982
24849W        W40318  10.840   7.023   9.965 -0.1810 -0.1776 -0.4289
24850W        W40319   0.965  14.308  14.783 -0.2167 -0.0293 -0.3426
24851W        W40320  10.840   7.225   4.052 -0.1377  0.1166  0.1265
24852W        W40321  18.047  10.831  10.567  0.0405  0.0904 -0.0456
24853W        W40322  17.251  14.221  14.366  0.0227 -0.0792  0.1722
24854W        W40323  14.708   5.455  14.685 -0.2204  0.0755 -0.0852
24855W        W40324   6.815  18.293  12.562 -0.0642 -0.2358 -0.0723
24856W        W40325  17.824   3.968  11.469  0.0486 -0.1414  0.2893
24857W        W40326   4.404   3.253   9.601 -0.0482  0.1265 -0.2422
24858W        W40327  14.571  18.324   4.496  0.2908  0.2845  0.4147
24859W        W40328   8.927  17.280   3.158 -0.1492  0.4266 -0.2405
24860W        W40329   0.402  16.239  13.517  0.1198 -0.3031  0.0737
24861W        W40330  12.634  13.378   3.542  0.3040 -0.2250 -0.0900
24862W        W40331   3.244   0.613   4.429 -0.3910  0.4513  0.1159
24863W        W40332  14.202   0.791  10.641  0.0765  0.2525  0.0132
24864W        W40333   9.983   8.650   4.446  0.2230  0.1319 -0.1513
24865W        W40334   0.591   4.026   2.652 -0.1124  0.2654  0.2071
24866W        W40335  16.029  14.525   9.398 -0.1218 -0.3236  0.2737
24867W        W40336   3.298   3.280   3.244  0.0851  0.0068  0.1550
24868W        W40337  17.733  13.246   2.040 -0.0090 -0.2210  0.2005
24869W        W40338  11.094   6.352  11.830 -0.0044  0.0611  0.3040
24870W        W40339  11.454   6.879  10.325  0.1268  0.4037  0.2416
24871W        W40340  17.701   3.092  13.244  0.2443  0.1500  0.1518
24872W        W40341   0.373   9.400  13.871 -0.4661 -0.3008  0.1302
24873W        W40342  15.531   9.667   2.759 -0.0399  0.1760  0.0465
24874W        W40343  15.013   4.053  11.622  0.2105 -0.2905 -0.4611
24875W        W40344  16.739  17.260  12.842  0.3669 -0.1930 -0.1912
24876W        W40345  18.706  16.109   4.750  0.1878  0.2370 -0.0522
24877W        W40346   8.543  10.677   2.147  0.1124 -0.3716 -0.1556
24878W        W40347   1.971   8.176  10.300 -0.2702 -0.0215  0.0255
24879W        W40348  15.768   9.456  13.599 -0.1184  0.1009  0.0427
24880W        W40349  10.957  16.477   0.268  0.1539 -0.0781  0.1926
24881W        W40350  18.923  15.684  12.321  0.0057 -0.1873 -0.0403
24882W        W40351  18.261  14.290  10.919 -0.0118  0.1016  0.1360
24883W        W40352   3.595   8.357   0.721  0.1894  0.2090 -0.0506
24884W        W40353   9.367  14.284  11.707 -0.2314 -0.0966  0.6951
24885W        W40354  10.012  12.320   0.980 -0.0662 -0.1924 -0.1569
24886W        W40355  17.752   1.202  14.004 -0.0672  0.1247  0.0586
24887W        W40356   7.102  14.053   2.286  0.0101 -0.1694 -0.1307
24888W        W40357   7.290   0.380  10.943  0.1958 -0.1379  0.1656
24889W        W40358  18.207   8.918  10.740 -0.2670  0.3294 -0.1603
24890W        W40359  12.352   7.641  12.662  0.2260  0.1030  0.0699
24891W        W40360   6.908   3.926  14.523  0.2665  0.0516 -0.1494
24892W        W40361  11.177  12.438   2.800 -0.0209 -0.1993 -0.0830
24893W        W40362  12.892  15.121   4.153 -0.0288 -0.2071  0.1176
24894W        W40363   4.182  13.908  11.505 -0.0678 -0.0771 -0.1097
24895W        W40364   2.334   9.298  10.970  0.3240  0.0424 -0.2666
24896W        W40365   1.835  13.417  14.185  0.1280  0.3826 -0.0978
24897W        W40366  14.540   5.897  12.094 -0.2105  0.5218 -0.2519
24898W        W40367   2.463   5.991  10.488 -0.0733 -0.0580 -0.0558
24899W        W40368   7.785  10.934  10.263 -0.0597  0.3048  0.0501
24900W        W40369   5.873  12.648  13.467 -0.1124  0.0635  0.3319
24901W        W40370   1.688  17.659   0.493 -0.2491  0.2612  0.0984
24902W        W40371  14.190   2.800  13.621  0.5760  0.0379  0.0724
24903W        W40372   1.785  11.920  13.721 -0.0189 -0.2914 -0.1447
24904W        W40373  14.252  14.974  11.044  0.4093  0.2086  0.0423
24905W        W40374   1.394  12.861   0.862 -0.0220 -0.0838 -0.3206
24906W        W40375  13.958   6.552  11.954 -0.2736  0.1708  0.0744
24907W        W40376  10.645   1.828   1.477  0.2427 -0.0639 -0.1938
24908W        W40377   1.734   2.150   3.291 -0.0863  0.1940  0.2737
24909W        W40378  10.326   2.589  15.000 -0.0620  0.0126 -0.0985
24910W        W40379   7.699   8.952   6.016  0.2799  0.4188  0.3008
24911W        W40380  13.607  13.119   3.343 -0.1028 -0.3242  0.1900
24912W        W40381  15.530  16.929  10.068 -0.1424 -0.1526  0.1947
24913W        W40382   6.536   1.232  12.692 -0.2521  0.1831 -0.2035
24914W        W40383  18.673   3.498   0.379  0.0131 -0.1306 -0.0706
24915W        W40384  11.537   4.316   4.159 -0.0459 -0.1707 -0.0248
24916W        W40385  14.463   6.416  12.086  0.1934  0.0903 -0.0256
24917W        W40386  12.171  18.967   0.917  0.1534  0.2085  0.2146
24918W        W40387   0.444  17.884  13.811 -0.2444 -0.1091  0.2124
24919W        W40388  15.893   2.247  10.811  0.0618  0.1277 -0.2036
24920W        W40389  14.496   2.759  10.108 -0.0483  0.0363 -0.2381
24921W        W40390  18.918   0.428   4.178 -0.3160  0.3563  0.1113
24922W        W40391   2.073   9.496   3.917 -0.1005 -0.2227  0.1490
24923W        W40392  17.160   8.440  14.126 -0.0497  0.5097  0.3009
24924W        W40393   9.478   0.643  12.086  0.1207  0.2549 -0.3349
24925W        W40394   1.434   1.631   3.185 -0.5298 -0.1878 -0.0865
24926W        W40395   9.059   6.155  14.665  0.2743 -0.0037  0.0711
24927W        W40396   3.286  12.461  14.933 -0.2452  0.0007 -0.1713
24928W        W40397   1.376  13.262   0.269 -0.1349 -0.0604  0.0765
24929W        W40398  10.042  17.453   5.411  0.2459 -0.2093  0.0498
24930W        W40399  11.415  10.898   0.009 -0.1807  0.1855  0.0010
24931W        W40400  14.140   9.777  13.647  0.0497 -0.2332  0.0995
24932W        W40401  17.915  14.287  12.022 -0.2018  0.1069 -0.1650
24933W        W40402  13.530   7.448   1.131  0.2485 -0.3389  0.5815
24934W        W40403   0.831   0.867   1.622 -0.0616 -0.3218 -0.1073
24935W        W40404   3.883  10.213  11.834 -0.0316 -0.0046  0.0124
24936W        W40405   0.596   0.341   1.285  0.0197 -0.3077 -0.0965
24937W        W40406   1.405  18.022  14.140  0.0544  0.2280 -0.2167
24938W        W40407   7.835   0.592   0.519  0.0168 -0.1046 -0.2357
24939W        W40408  10.011   2.642  10.875 -0.0326 -0.2313  0.2155
24940W        W40409  10.073   6.974  11.026  0.0201 -0.0016 -0.2068
24941W        W40410  10.270   8.754  10.064  0.1508 -0.0193 -0.0392
24942W        W40411  16.788  17.110  11.547 -0.2434  0.1285 -0.3144
24943W        W40412   8.405  18.613   2.053 -0.1761 -0.0549 -0.0972
24944W        W40413  14.911   8.585   1.982 -0.1467 -0.1941  0.0821
24945W        W40414   9.837   3.586   1.572 -0.3151 -0.1518 -0.2228
24946W        W40415  18.980   2.056  11.489 -0.0733 -0.1452 -0.0389
24947W        W40416  15.371   0.045  11.111 -0.1066  0.3947  0.1183
24948W        W40417   6.632   0.640  13.672  0.2825 -0.0478  0.1763
24949W        W40418   1.226   2.889  14.562 -0.2098 -0.1437 -0.0435
24950W        W40419   1.417  12.774   4.019 -0.1272 -0.2538 -0.0131
24951W        W40420  10.029   7.454  14.435  0.1397 -0.1309 -0.0117
24952W        W40421  17.664  14.031  13.706  0.0947 -0.0512  0.2485
24953W        W40422   5.651  13.731   1.837 -0.1140  0.2663  0.3440
24954W        W40423   2.124  17.598  15.169 -0.2000 -0.3872 -0.0129
24955W        W40424   8.377   6.554  14.112  0.0470 -0.2557 -0.3888
24956W        W40425   4.506   4.403   1.984 -0.1717 -0.3675  0.0764
24957W        W40426   0.929   0.380  12.781 -0.3194 -0.1908 -0.3816
24958W        W40427  17.761   0.993  11.473  0.0192 -0.1680 -0.0470
24959W        W40428  11.489  15.862   1.204  0.1047  0.1471  0.0525
24960W        W40429   4.176   6.457   2.314  0.3364  0.0259 -0.0518
24961W        W40430  17.078  12.871   3.266  0.2260  0.0455 -0.1666
24962W        W40431   7.529   7.002   2.566  0.3101 -0.0044 -0.1890
24963W        W40432  15.991  17.781  11.674  0.1935  0.3493  0.1633
24964W        W40433  10.985  16.374   4.717 -0.0460  0.0204  0.1155
24965W        W40434   0.844   1.752  10.850  0.0831  0.2592  0.0162
24966W        W40435  14.275   7.155  13.568  0.0512  0.0797  0.1833
24967W        W40436   4.206   3.032   5.140  0.0279 -0.2481 -0.1438
24968W        W40437   7.416  10.166  13.519  0.0419  0.0097  0.2629
24969W        W40438  17.561   1.585  10.989 -0.0941 -0.1212  0.1252
24970W        W40439   3.703  16.966   2.790  0.0849 -0.0889 -0.0543
24971W        W40440  11.352  17.581  12.089 -0.0748  0.2717  0.0193
24972W        W40441   9.617  14.388  13.802 -0.0161 -0.0087 -0.2871
24973W        W40442   2.380   5.228   1.241 -0.0404 -0.2772  0.0366
24974W        W40443  14.638   3.611   4.048 -0.2417  0.0737  0.0239
24975W        W40444  11.124   7.297   2.123 -0.1702  0.0020 -0.0633
24976W        W40445   2.975   8.983   5.279 -0.0123  0.0173  0.5068
24977W        W40446  15.311  11.097   2.694  0.0891 -0.1509 -0.2271
24978W        W40447  15.880   3.081   2.001  0.1488 -0.3824  0.0819
24979W        W40448  11.273   7.491  11.315  0.0333 -0.1009 -0.2539
24980W        W40449   4.356  17.789   3.413 -0.2443 -0.1553 -0.0130
24981W        W40450  17.913   1.208   4.671  0.0613 -0.2345  0.3427
24982W        W40451  13.952   6.105  12.749 -0.4173 -0.7174  0.0162
24983W        W40452  17.890  16.200  12.188  0.0682  0.0176  0.3627
24984W        W40453   3.951  15.786  10.836 -0.2542  0.1750  0.0330
24985W        W40454  16.364   9.662  10.243 -0.1535 -0.0031 -0.0298
24986W        W40455  11.636  11.641  13.034  0.0977  0.1954  0.2311
24987W        W40456   0.088   9.154   4.254 -0.0206  0.2130 -0.1869
24988W        W40457  12.163  13.827   4.347 -0.2811 -0.5347 -0.0702
24989W        W40458   0.184  18.979  14.577 -0.0451  0.0975 -0.1081
24990W        W40459   3.659   6.231  11.987  0.1800  0.0817 -0.2141
24991W        W40460   1.059   3.720   0.683  0.1085 -0.1441 -0.0602
24992W        W40461  11.243   6.783  14.338 -0.2661 -0.0474 -0.1307
24993W        W40462  15.506  14.310  14.934  0.1828  0.0310  0.1526
24994W        W40463  10.407   3.798   3.025  0.2853  0.1637 -0.0750
24995W        W40464   3.187   5.861  11.654  0.0398  0.4710 -0.0608
24996W        W40465  14.149   2.873  11.839 -0.0036 -0.2960  0.0415
24997W        W40466   4.415   9.372   0.363  0.0939  0.0143  0.0033
24998W        W40467  17.340   6.473  14.627  0.2211 -0.1189 -0.1097
24999W        W40468   6.326   0.226   2.201 -0.4002 -0.1336  0.0374
25000W        W40469  17.051   9.422   0.375 -0.1514 -0.1530 -0.1115
25001W        W40470   5.837   1.193   0.615 -0.2179 -0.2991 -0.1914
25002W        W40471   8.412  14.726  11.100  0.3102  0.1908  0.2716
25003W        W40472  10.798   6.724   0.557 -0.0905 -0.0824  0.1745
25004W        W40473   8.548  10.794   1.290  0.0738  0.0761 -0.0261
25005W        W40474   4.020   9.656  11.243 -0.1016 -0.1041 -0.0806
25006W        W40475  16.586   3.871   3.333  0.2399  0.1498  0.0186
25007W        W40476  16.826  15.935   9.685  0.1351 -0.0487 -0.2746
25008W        W40477  14.790   7.611   0.181  0.0522 -0.0759 -0.2763
25009W        W40478   6.498  14.814   2.015 -0.1986  0.1649  0.2743
25010W        W40479  16.637   9.518   3.203  0.0012 -0.0644  0.2182
25011W        W40480   4.368  12.330   1.654 -0.0780  0.1213  0.1034
25012W        W40481   2.301   1.479   9.756 -0.1811  0.4475 -0.1946
25013W        W40482  12.788   9.352   2.268  0.2590 -0.1768 -0.0596
25014W        W40483  17.060   9.452  13.936 -0.1656 -0.1795 -0.0169
25015W        W40484  14.265   0.802   0.999  0.2975 -0.0306 -0.0443
25016W        W40485   4.233   9.662  10.620  0.0392  0.0518 -0.3767
25017W        W40486   3.047   9.938  15.041  0.1936 -0.0500  0.2813
25018W        W40487  10.551  14.287  13.440  0.0937 -0.0413 -0.1170
25019W        W40488  13.164   4.758   1.167  0.1318  0.0824 -0.0750
25020W        W40489  13.015  12.271   3.659  0.1057 -0.0985  0.2607
25021W        W40490   8.531  18.755   2.592 -0.1840 -0.0360  0.3044
25022W        W40491  15.817   8.373   0.301  0.1187  0.1199  0.1726
25023W        W40492  11.766  14.526   0.419 -0.3796 -0.0186 -0.0237
25024W        W40493  17.198  11.821  11.249  0.0253 -0.0608 -0.3158
25025W        W40494  18.522   5.887  12.811  0.2389  0.2379 -0.2852
25026W        W40495   9.630   9.701   1.479  0.1451 -0.1421 -0.1989
25027W        W40496   8.797  10.285  14.718  0.1462  0.1628 -0.1807
25028W        W40497   6.203   5.083  11.603 -0.0721  0.0582  0.1992
25029W        W40498   1.126  13.333  11.395  0.1830  0.3114  0.2153
25030W        W40499  13.589   0.617   0.398 -0.0988  0.3099  0.1437
25031W        W40500  10.360  12.203  12.554 -0.0600  0.0531  0.1753
25032W        W40501  11.782   6.560  15.158  0.0595  0.3096  0.1209
25033W        W40502  10.802   1.659   3.770 -0.0738  0.0678  0.3341
25034W        W40503   2.876   2.872   1.839 -0.1383  0.1073 -0.0591
25035W        W40504   1.994   1.236  15.011  0.1107 -0.1700  0.1303
25036W        W40505  15.312   0.717   3.015 -0.3201  0.1881 -0.0684
25037W        W40506   1.632  10.463   0.155  0.0419  0.0726  0.4875
25038W        W40507   9.035   1.220  12.784 -0.0849 -0.1418 -0.0319
25039W        W40508  13.929   7.676   3.659 -0.0606  0.0455  0.0419
25040W        W40509   3.158  14.160   4.408  0.0495 -0.3710 -0.1221
25041W        W40510   3.781  13.793  12.438  0.0555 -0.0285 -0.1475
25042W        W40511  12.587   9.918  12.955 -0.1279  0.0914  0.0138
25043W        W40512   3.586   8.428   4.678 -0.3311  0.0826 -0.0139
25044W        W40513  11.468  16.436   3.292  0.0096 -0.0432  0.1242
25045W        W40514  16.181  15.363  12.129  0.1478 -0.4942 -0.2878
25046W        W40515  17.011   4.950  12.992  0.0034  0.0765 -0.1121
25047W        W40516  11.611  15.261  12.361  0.1377 -0.0934 -0.0349
25048W        W40517  17.168   0.119   1.310 -0.1293 -0.2115  0.1755
25049W        W40518   9.073  10.444  10.705 -0.1249  0.0274  0.0288
25050W        W40519   4.340  15.944  14.857  0.0300 -0.0790 -0.3300
25051W        W40520  10.368  14.480   5.472 -0.0347  0.1868  0.0749
25052W        W40521  16.826  15.918   0.707  0.1825  0.1426  0.1179
25053W        W40522   1.641   3.428   4.017 -0.0605  0.0063  0.1286
25054W        W40523  16.025  12.539   4.542  0.1776  0.2586 -0.3938
25055W        W40524   6.821   5.397   5.143  0.1270  0.2886 -0.1003
25056W        W40525   3.871  18.851  14.214  0.0954 -0.0424 -0.2781
25057W        W40526  18.783  10.756   4.120 -0.1681 -0.0101 -0.4600
25058W        W40527  16.580   0.922  11.776  0.1403  0.0101  0.0492
25059W        W40528   9.139  11.848  10.911  0.1455 -0.0700  0.3460
25060W        W40529  10.233   9.741  12.751 -0.1782  0.2735 -0.0912
25061W        W40530  16.124  14.160  10.561 -0.1348 -0.0276  0.1110
25062W        W40531   1.872   6.431  10.025 -0.1551 -0.1185 -0.1131
25063W        W40532  10.919   7.065  15.224  0.0386  0.2287  0.0369
25064W        W40533  14.122   8.941  14.163 -0.0026  0.1467 -0.2233
25065W        W40534   9.767   3.420   5.061  0.1395  0.2511 -0.1006
25066W        W40535   0.134  11.221   2.986  0.1886 -0.3585 -0.0271
25067W        W40536   1.386   6.042  14.544 -0.0436  0.0150 -0.1012
25068W        W40537  18.837   4.779   1.764  0.0215  0.1859  0.2437
25069W        W40538  18.109   5.079  14.638  0.3267  0.1216 -0.0394
25070W        W40539   0.696   4.002  10.492  0.1669 -0.0113 -0.2883
25071W        W40540  12.039   4.173  14.256 -0.0798  0.0169 -0.1465
25072W        W40541  16.068   7.203  11.306 -0.1671 -0.0830  0.1934
25073W        W40542   0.591  17.388  13.927  0.1208  0.0215 -0.1254
25074W        W40543  13.474  12.845   0.154 -0.2237 -0.2812  0.2625
25075W        W40544   8.585  13.966  13.857  0.0879  0.1496 -0.0187
25076W        W40545  10.163   4.110  12.893 -0.1913  0.0527  0.1635
25077W        W40546   8.376  17.739   3.948 -0.1387  0.0145  0.0789
25078W        W40547   7.235  12.829   1.992 -0.2670 -0.0821 -0.2543
25079W        W40548  10.919   3.379   4.616  0.0775  0.1730 -0.3492
25080W        W40549  12.390  17.403   6.477  0.0055  0.1241 -0.2241
25081W        W40550  14.569   6.299  11.277  0.0885  0.2786  0.0922
25082W        W40551  16.715   2.088  11.919 -0.0940  0.2282  0.1422
25083W        W40552   1.355  12.826  10.935 -0.2753  0.1559 -0.2111
25084W        W40553  17.715  16.986  11.567 -0.1438  0.0713 -0.0661
25085W        W40554   5.754  11.730   1.627 -0.4068  0.5675  0.3187
25086W        W40555   7.388  15.236  12.608  0.0673  0.0435 -0.2675
25087W        W40556  16.651  18.896  14.305 -0.2472  0.2043  0.0083
25088W        W40557   8.235  12.835   3.188  0.0988 -0.2844  0.0768
25089W        W40558  14.335  17.422  14.850  0.2105 -0.0386 -0.3105
25090W        W40559  17.266  15.547   4.408  0.0501  0.1141 -0.1011
25091W        W40560   4.223  16.195   3.226 -0.4513  0.1455 -0.5256
25092W        W40561  19.013   1.934  14.830  0.0670 -0.1598 -0.1209
25093W        W40562  11.275  13.824   2.709  0.1974  0.1336 -0.0934
25094W        W40563  18.298   6.633   3.269  0.0462  0.0582 -0.1622
25095W        W40564   9.561   4.480  12.911  0.1846  0.1666  0.0324
25096W        W40565   9.650   8.965   4.106 -0.2148 -0.1613  0.1599
25097W        W40566   8.912   3.986   4.389  0.5057 -0.2743  0.4131
25098W        W40567   0.164  18.676  11.013  0.2456 -0.1146 -0.1564
25099W        W40568   2.253  16.805  13.776 -0.0753  0.1326 -0.0274
25100W        W40569  12.288  11.027  12.948  0.0164 -0.0573 -0.1018
25101W        W40570  14.266  18.382   4.982  0.0923  0.2732  0.1353
25102W        W40571   9.857   4.574   2.738 -0.2779  0.1803 -0.1038
25103W        W40572   8.964  13.456   3.697 -0.0971 -0.2099 -0.0124
25104W        W40573  18.859  16.184   2.057 -0.2455  0.1427  0.1551
25105W        W40574   8.778  18.291   3.341  0.0491  0.1713  0.1559
25106W        W40575  12.758  10.591   2.788 -0.0415  0.0451  0.2404
25107W        W40576   5.149  17.591  12.364 -0.0366 -0.0951 -0.2209
25108W        W40577   2.941   3.852  12.094 -0.0465 -0.0036  0.0376
25109W        W40578  14.303   7.493  11.071  0.0731  0.2532  0.3050
25110W        W40579  17.742   9.729   5.825  0.1440 -0.0832  0.2388
25111W        W40580  13.387   6.200   4.119 -0.2353  0.2135  0.1168
25112W        W40581   1.663  17.166   1.612 -0.0343  0.0126  0.1472
25113W        W40582  17.635   6.300   1.489  0.0462 -0.2859  0.0609
25114W        W40583  16.023  11.645   1.930  0.1374 -0.2466 -0.0135
25115W        W40584  17.228  18.497  12.386  0.0630 -0.0894  0.1114
25116W        W40585   7.867   8.951  12.444 -0.0742 -0.0422 -0.0314
25117W        W40586  10.348   4.422  14.827 -0.0034 -0.2189 -0.1240
25118W        W40587  12.148   9.432  13.311  0.1579 -0.2035 -0.2683
25119W        W40588   2.546   8.403   0.017  0.5280 -0.0434 -0.2954
25120W        W40589   0.726  17.611   3.987  0.2028 -0.3381 -0.1750
25121W        W40590   7.038  10.790   1.003  0.1554 -0.0040 -0.2119
25122W        W40591  13.563   9.475   1.664  0.0000 -0.3078 -0.1484
25123W        W40592   8.821   3.627  11.002 -0.0327  0.0470 -0.2256
25124W        W40593   3.449   7.045  10.702 -0.0067 -0.2737 -0.3652
25125W        W40594   2.209   9.463   5.333  0.1498  0.0547 -0.0545
25126W        W40595   0.543  11.897  13.112 -0.1807 -0.0503 -0.2013
25127W        W40596   6.876  12.942   0.512  0.0274  0.0845 -0.3267
25128W        W40597  14.323  16.312  15.002  0.4549 -0.0300 -0.1639
25129W        W40598  14.355   5.175   5.001 -0.1256 -0.1952 -0.0173
25130W        W40599  10.558  15.293  10.714 -0.2467  0.0734 -0.1743
25131W        W40600  18.135  13.335  14.394  0.0482  0.1324 -0.2355
25132W        W40601  11.455  11.103  10.832  0.0287  0.0324  0.1426
25133W        W40602   1.101  12.193   1.944 -0.0563 -0.3298 -0.0521
25134W        W40603   8.768   0.860   4.153  0.4667  0.0599  0.2189
25135W        W40604  13.669  13.082  14.762  0.1582 -0.1590 -0.0231
25136W        W40605  16.583   8.419   9.876  0.2077  0.2924  0.4963
25137W        W40606   5.639   3.036   5.103 -0.1237  0.2791  0.1896
25138W        W40607  12.511  17.203   4.950  0.1479  0.2993 -0.1418
25139W        W40608   2.959  14.122  12.511  0.1081 -0.1868  0.2649
25140W        W40609   0.848   6.157   0.429 -0.0107  0.2032  0.1657
25141W        W40610  18.212  14.531   1.762  0.1268 -0.0731 -0.0063
25142W        W40611  17.209  17.127  15.340  0.4043  0.0620  0.2856
25143W        W40612   4.812  12.203   0.155 -0.1111 -0.1132 -0.0907
25144W        W40613   9.308   4.633  12.488  0.3670  0.2623 -0.0810
25145W        W40614   0.346   1.601  14.773  0.0487 -0.4255  0.1368
25146W        W40615  14.341  15.641  11.838 -0.0054 -0.3166 -0.0143
25147W        W40616   1.353  10.969  10.693 -0.0117 -0.1548 -0.2077
25148W        W40617   1.499   4.839   2.808 -0.0132 -0.3251  0.3145
25149W        W40618  18.075   0.969   3.411  0.1261  0.2865  0.3108
25150W        W40619  18.040  17.786  15.022 -0.1710 -0.1049  0.0207
25151W        W40620   1.924  17.315  13.236  0.0807  0.2327 -0.3122
25152W        W40621   4.864  10.298  13.863 -0.0611  0.1821 -0.0044
25153W        W40622   7.105  11.160   0.559 -0.3697  0.0283  0.2879
25154W        W40623  18.893   7.690   4.986 -0.1420  0.2352 -0.3365
25155W        W40624   3.543  18.231   3.502  0.0168  0.0219  0.1210
25156W        W40625   2.182  13.202  15.155 -0.2030 -0.0104  0.0678
25157W        W40626   4.583   1.005   4.924  0.3953 -0.0013 -0.1077
25158W        W40627  14.156  15.526  14.467  0.1070  0.3638 -0.0797
25159W        W40628   5.118  15.107   2.620  0.2382 -0.2080  0.0331
25160W        W40629  17.051   3.328   4.831  0.0399 -0.2266 -0.0431
25161W        W40630   7.399   6.607   2.157 -0.4463 -0.0002  0.1098
25162W        W40631   8.838   8.968  12.955 -0.0343 -0.0637 -0.2661
25163W        W40632   6.199  15.708  12.098 -0.1013 -0.1341  0.0852
25164W        W40633   0.305  16.351   2.276 -0.1434  0.1558 -0.0492
25165W        W40634   3.276  10.953   2.052 -0.1337  0.2832 -0.0463
25166W        W40635   8.287  16.009  14.743  0.0169  0.2863  0.3665
25167W        W40636  13.080  14.562  11.996 -0.1411  0.0303  0.0498
25168W        W40637  18.123   6.799  13.975  0.2778  0.1705  0.0462
25169W        W40638   7.663   5.118  10.806  0.0746  0.2819  0.2294
25170W        W40639   1.439   6.428   0.374  0.0689  0.1450 -0.0027
25171W        W40640  18.218  18.280   0.802  0.0337 -0.3503 -0.2269
25172W        W40641   1.472   0.387  12.840  0.1051  0.0092  0.0678
25173W        W40642   4.221   5.825  13.699  0.0632  0.2674  0.2729
25174W        W40643   1.342   0.481  15.358 -0.1154  0.2904 -0.0697
25175W        W40644  12.161   6.368  11.000 -0.0624 -0.1006  0.0424
25176W        W40645  14.372  12.571  13.722  0.0504  0.2177 -0.2726
25177W        W40646   7.696  15.623   1.718 -0.2378  0.2221 -0.0634
25178W        W40647  12.180   7.793   9.264 -0.0867 -0.0505  0.0870
25179W        W40648   4.543  13.711  14.314 -0.0174  0.2724 -0.2053
25180W        W40649   6.424  12.584  12.165 -0.2436 -0.1292 -0.1894
25181W        W40650  12.533   5.447  13.519 -0.0697  0.2281  0.2898
25182W        W40651   7.563   7.536   4.459  0.0045  0.1029 -0.1964
25183W        W40652   5.917   9.682   5.195 -0.1841  0.3799  0.0448
25184W        W40653   7.546  11.542   0.630  0.2994  0.0519  0.1366
25185W        W40654   9.403   8.942   3.319  0.0788 -0.2665 -0.0076
25186W        W40655   6.610   7.169  11.776 -0.2498 -0.3043  0.0580
25187W        W40656   3.021   5.299   0.042 -0.0664 -0.2885 -0.0238
25188W        W40657   1.727  15.726  13.995 -0.0447 -0.1490 -0.0337
25189W        W40658  17.256   2.463   1.734 -0.3456  0.1200  0.0072
25190W        W40659  16.377  15.393  12.714  0.0424  0.1907  0.1268
25191W        W40660   1.662  12.606   1.297 -0.0972  0.0784  0.1205
25192W        W40661  12.826   3.916   3.820  0.1932  0.2335 -0.1107
25193W        W40662   4.516  13.778   2.716 -0.0579 -0.1723  0.1875
25194W        W40663  16.463  12.615   4.230  0.1640  0.0205  0.1421
25195W        W40664   2.659   2.276   2.456  0.0939 -0.2045 -0.2535
25196W        W40665  17.748   9.994   3.171 -0.0546  0.3101  0.1115
25197W        W40666   6.226  16.504   2.493 -0.1085  0.4937 -0.2695
25198W        W40667  18.769   0.222   9.636  0.1658  0.3628  0.1477
25199W        W40668  11.778  18.797   9.769 -0.1666 -0.1069  0.2629
25200W        W40669   6.834   7.323  12.268  0.3478 -0.2055  0.1151
25201W        W40670   8.654  12.093  13.509  0.0310  0.1958  0.2366
25202W        W40671   6.933   0.985  12.908 -0.0584  0.2142 -0.2601
25203W        W40672   1.159   1.486   0.066 -0.3058 -0.1335 -0.0094
25204W        W40673  11.091  13.788  14.996  0.3720 -0.1205 -0.3938
25205W        W40674  11.622   7.303   3.169  0.2237 -0.0471 -0.2709
25206W        W40675   1.819  18.506   4.796  0.0009  0.0458  0.1449
25207W        W40676  16.633   7.196   5.910 -0.1524 -0.0057  0.2223
25208W        W40677   2.388   4.058  12.679 -0.1468  0.2523 -0.0967
25209W        W40678  16.032  10.398   1.407 -0.1281 -0.0269  0.0366
25210W        W40679   0.496   4.998  13.167  0.2211  0.0552  0.2719
25211W        W40680  11.001  12.946  10.415  0.0083  0.2235 -0.0013
25212W        W40681   1.847   5.818  11.575 -0.0418  0.1481 -0.1760
25213W        W40682   5.062  16.681  12.812 -0.0004 -0.1904  0.1605
25214W        W40683   2.902   7.493   1.419 -0.1329  0.2832  0.0644
25215W        W40684  15.779   4.199  11.297 -0.1233  0.1264 -0.0152
25216W        W40685  16.554   8.327  10.363 -0.0123 -0.0794 -0.3830
25217W        W40686  12.911   0.034  14.040 -0.2025  0.2780  0.0178
25218W        W40687   1.967   0.842   1.766  0.0005  0.0610 -0.0841
25219W        W40688  10.442   3.245   4.405 -0.1312  0.2413 -0.0934
25220W        W40689  10.847  16.310  10.767 -0.1205  0.0933  0.1390
25221W        W40690   7.603  13.576   2.985  0.4933  0.0791  0.2186
25222W        W40691   4.289   9.466  13.659  0.1556  0.1706  0.1364
25223W        W40692   3.884   6.571  12.740  0.0766  0.0329 -0.0699
25224W        W40693  11.019   8.805  12.234  0.1995 -0.0529  0.0431
25225W        W40694   4.795   0.215   3.300  0.0532 -0.1524 -0.2393
25226W        W40695   9.876   4.101   4.954  0.2854 -0.0272  0.1879
25227W        W40696  10.341  10.317  10.857  0.4400  0.0122  0.0910
25228W        W40697  13.666   5.044  10.865 -0.2449 -0.2102 -0.1275
25229W        W40698  12.483  10.620  14.116 -0.0424  0.1073  0.1245
25230W        W40699  15.955   6.612   4.352  0.1884 -0.2652 -0.2993
25231W        W40700   4.356   1.150   9.616 -0.2530 -0.3316 -0.1499
25232W        W40701   6.783   2.755  13.386 -0.1686 -0.2622  0.0342
25233W        W40702  17.006  17.614  14.475  0.0977  0.0818 -0.0198
25234W        W40703  13.422   8.838  11.859 -0.2716 -0.1249 -0.0362
25235W        W40704  14.717   9.363  13.656  0.0832  0.1546  0.0948
25236W        W40705   1.069   9.820  12.505  0.1986 -0.3234  0.0794
25237W        W40706   2.914   8.646   1.205 -0.0722  0.1221  0.1258
25238W        W40707  14.682  12.023  12.090  0.3000 -0.3966 -0.2359
25239W        W40708  15.802   2.111  13.988 -0.0762 -0.0425  0.2603
25240W        W40709   2.755   2.291  13.331 -0.0844  0.3056  0.1000
25241W        W40710   1.681  15.383  13.584  0.0284  0.2126  0.0580
25242W        W40711  12.424   5.594  10.563 -0.3916 -0.0750  0.1402
25243W        W40712   1.862  15.602   2.574 -0.1030 -0.1448 -0.3611
25244W        W40713  13.764   7.309  13.696  0.2935 -0.2864 -0.0735
25245W        W40714  11.308   2.262   1.190  0.0643 -0.0083 -0.0193
25246W        W40715  18.764   0.910  11.336  0.1176 -0.2626 -0.3229
25247W        W40716   8.704  17.771  14.772  0.0382  0.1031 -0.0370
25248W        W40717   0.143  17.228  11.686  0.2386 -0.0535 -0.1915
25249W        W40718   8.554   7.011  13.900  0.0566  0.2023  0.0269
25250W        W40719  13.755  12.287   4.292  0.1717 -0.0271  0.2386
25251W        W40720   3.544  14.528   0.186  0.2702 -0.2654  0.2195
25252W        W40721  18.679   5.368   2.643  0.1122 -0.0486 -0.3331
25253W        W40722  15.824  15.281  14.250 -0.1291 -0.5629 -0.0760
25254W        W40723  11.461   7.461   0.170  0.0634  0.0722  0.1468
25255W        W40724   0.371  18.642  11.899  0.0978  0.0419 -0.3273
25256W        W40725   7.787  11.936  11.001  0.0557  0.0002  0.4901
25257W        W40726   0.082  18.548  14.342  0.0240 -0.4612 -0.0716
25258W        W40727  16.105   9.863  11.070  0.1126 -0.2044  0.0664
25259W        W40728   6.824   4.951   6.111  0.1303 -0.2023 -0.2011
25260W        W40729   5.625  14.944   0.171  0.0672  0.1444  0.0459
25261W        W40730  18.435  14.221  12.524  0.2826 -0.2095 -0.0494
25262W        W40731  15.312   5.421  11.917  0.2043 -0.2931 -0.0219
25263W        W40732  15.950   6.085   4.734 -0.1360  0.0904 -0.4084
25264W        W40733   0.145   4.252   2.477 -0.0396 -0.0196  0.0688
25265W        W40734  13.505   4.724  12.510  0.0521 -0.0907  0.0443
25266W        W40735   1.719  14.471   4.644  0.0033  0.2749  0.3351
25267W        W40736   9.640   5.490  14.103  0.0511  0.1545 -0.1365
25268W        W40737  10.767  18.091   9.957  0.0674 -0.0796  0.1273
25269W        W40738   4.002  16.746   1.174 -0.2863  0.0226  0.2639
25270W        W40739   4.524  10.701   4.329 -0.0504 -0.0290  0.3035
25271W        W40740   1.624  11.093   3.025 -0.0966  0.0768  0.4191
25272W        W40741   3.736   8.166   1.543 -0.0177  0.1170 -0.2070
25273W        W40742  17.942   2.935  11.335 -0.1806  0.0603 -0.3605
25274W        W40743   4.449   9.489   1.134 -0.0482  0.1134  0.0562
25275W        W40744  10.264   6.032  12.262 -0.1109 -0.2983 -0.0250
25276W        W40745  13.831  14.504  12.174  0.0166  0.1665  0.0034
25277W        W40746  12.498  16.170  11.971 -0.0327 -0.1245  0.1723
25278W        W40747   7.848   3.329   1.135  0.0200 -0.0209  0.1760
25279W        W40748   1.583  15.314   1.757 -0.3017  0.1607 -0.3470
25280W        W40749  12.766  17.936   3.512  0.1740 -0.2167  0.1423
25281W        W40750   8.938   7.995  12.528 -0.0093  0.2944 -0.2665
25282W        W40751  13.644  17.254  13.677  0.0001 -0.2188 -0.0237
25283W        W40752  15.351  10.495   9.429 -0.0327 -0.0421 -0.3496
25284W        W40753   0.931  18.444   4.865  0.2127 -0.0790 -0.2076
25285W        W40754  16.809   9.965   2.446  0.1128  0.1349  0.0315
25286W        W40755   0.327   5.582   2.201  0.2384  0.1288  0.0698
25287W        W40756   0.755   8.202   1.114  0.1980 -0.1130 -0.0646
25288W        W40757  17.906   4.536  13.521  0.1207  0.1522  0.0792
25289W        W40758  15.654  12.461   1.432  0.1646  0.1177 -0.0329
25290W        W40759  12.444  10.470  14.906 -0.1438 -0.0284 -0.0924
25291W        W40760  14.974  17.523   1.447 -0.0156 -0.1275 -0.3022
25292W        W40761   8.929   5.711   0.226 -0.1328 -0.1666 -0.0456
25293W        W40762   5.331  15.075  12.072 -0.2372  0.2330 -0.0857
25294W        W40763   0.973   8.910   3.990 -0.1234 -0.1654 -0.1559
25295W        W40764   9.614  14.277  10.109 -0.0079  0.0105 -0.3836
25296W        W40765   0.939  12.696   9.754  0.1079  0.0247 -0.1412
25297W        W40766  11.687   2.032   3.810  0.0260 -0.1243 -0.1124
25298W        W40767   0.352  14.959   1.193  0.0666 -0.1127  0.2537
25299W        W40768  10.209  11.229   3.454  0.4922 -0.0435 -0.1845
25300W        W40769   1.647   0.725   0.947 -0.1780 -0.1571  0.1984
25301W        W40770   2.020  17.984  11.392  0.3121  0.2473 -0.1718
25302W        W40771   9.396   1.819   0.946  0.0834 -0.2004  0.0695
25303W        W40772   3.397  12.961  12.626 -0.2824 -0.0322 -0.1109
25304W        W40773   6.290   5.686   1.934 -0.1105 -0.2003  0.1231
25305W        W40774  17.804   0.933   0.577  0.1325 -0.1575 -0.2099
25306W        W40775   5.693   5.489   2.487 -0.0718 -0.3480  0.0285
25307W        W40776  14.162   9.098   3.720  0.1511  0.2594 -0.0919
25308W        W40777   7.007   4.928  11.520 -0.0340 -0.2884 -0.1362
25309W        W40778  10.496  17.624  11.843 -0.3270 -0.2835 -0.0846
25310W        W40779   7.615   3.731  10.412  0.1921 -0.0332  0.1529
25311W        W40780   8.893  12.816  14.363  0.0213  0.3683 -0.1215
25312W        W40781   0.972  18.162  14.469 -0.3938 -0.0239  0.2101
25313W        W40782   1.495  17.463   1.243 -0.3900  0.0308 -0.1647
25314W        W40783   7.564  14.944  13.886 -0.2935  0.0594 -0.2840
25315W        W40784   5.467  15.016   4.892  0.2292  0.0991  0.3084
25316W        W40785   3.552  17.300  11.230  0.2717 -0.0242 -0.1605
25317W        W40786   1.809   3.891   0.461 -0.1057 -0.2005  0.0543
25318W        W40787   9.597  14.851   3.570 -0.2123 -0.4684  0.1299
25319W        W40788   6.745  15.938  14.106  0.2066 -0.1535  0.0093
25320W        W40789  13.906   3.163  12.199 -0.0469  0.2392 -0.1423
25321W        W40790  10.403   1.438   4.725 -0.0907 -0.0374 -0.0974
25322W        W40791  16.905   1.625  15.048 -0.3098  0.1663  0.1522
25323W        W40792  19.028   0.852   5.429 -0.1599  0.0596 -0.1204
25324W        W40793  14.087  12.112   2.979  0.1732 -0.0970 -0.0042
25325W        W40794  11.900   2.769   4.177  0.1547 -0.1589 -0.1314
25326W        W40795   1.482  18.794  13.383 -0.2159  0.1759  0.1346
25327W        W40796  12.828   7.180   1.911  0.0073 -0.3298  0.2168
25328W        W40797  17.526   6.035  10.000  0.0214 -0.0891  0.0271
25329W        W40798  13.778  12.554  11.171  0.1298 -0.1821  0.0374
25330W        W40799   4.175  16.715   3.581 -0.0421  0.2276 -0.0771
25331W        W40800   2.479  13.580   3.701 -0.0718  0.1691 -0.1054
25332W        W40801   1.170  16.301  10.242 -0.1339 -0.0306 -0.0306
25333W        W40802  11.545   3.687   0.638  0.1775  0.1648 -0.4216
25334W        W40803   4.078  17.308   1.003  0.1120  0.1936 -0.1866
25335W        W40804   3.904   2.864   3.289 -0.0918  0.2746 -0.2003
25336W        W40805  12.291   5.979   3.991 -0.0004 -0.0773 -0.0726
25337W        W40806  11.097   4.036  14.776 -0.3220  0.1062  0.1919
25338W        W40807   9.656  13.109  14.766  0.2142  0.4424 -0.0735
25339W        W40808   2.228  15.874   3.782  0.2641 -0.4883  0.2358
25340W        W40809  11.158   9.263   3.093 -0.0641  0.0111  0.2508
25341W        W40810  15.284  12.196  14.317 -0.5292 -0.0522  0.0604
25342W        W40811   5.039   7.953   0.551  0.1569 -0.1234  0.1334
25343W        W40812   4.366   4.614   0.460  0.1899 -0.1520  0.0539
25344W        W40813   0.779  16.476   2.375  0.2436 -0.0360  0.0369
25345W        W40814   5.648   0.125   2.783  0.1013 -0.1716 -0.3520
25346W        W40815   8.582   3.479  12.683 -0.1294 -0.1389 -0.1938
25347W        W40816   8.835  16.685   4.277 -0.1644  0.0100  0.0335
25348W        W40817  18.517  17.555   0.744  0.0156  0.0539 -0.1916
25349W        W40818  14.054  14.609   4.812 -0.2598 -0.0696 -0.1853
25350W        W40819   6.274   0.428   0.735  0.2089 -0.0066 -0.2550
25351W        W40820  16.302  10.218   4.668  0.3538  0.3195 -0.0505
25352W        W40821  11.121   5.904  11.647  0.4394 -0.0028 -0.2719
25353W        W40822  14.357   1.780   5.242  0.0043 -0.3708  0.5911
25354W        W40823  12.437  11.394   4.695  0.0466  0.0133  0.0203
25355W        W40824  18.018   8.578   2.723  0.0358  0.2060  0.0157
25356W        W40825   8.643   6.505  12.931  0.2748 -0.0340  0.3135
25357W        W40826   8.101   4.665   1.292 -0.3047 -0.0012 -0.1961
25358W        W40827  10.316   3.997   1.200  0.3121  0.2475 -0.1896
25359W        W40828   4.255  16.911   0.673 -0.0905 -0.1742  0.1783
25360W        W40829  15.452   8.456   3.612  0.4945  0.2463  0.1214
25361W        W40830   2.110   3.864  14.519  0.2391 -0.2675 -0.0292
25362W        W40831   4.228   4.139  12.929 -0.1276 -0.2068  0.0295
25363W        W40832  11.741   4.274   1.106  0.2556 -0.1215  0.0116
25364W        W40833   0.510   1.208  10.819  0.0283  0.1327  0.2259
25365W        W40834  18.865   8.402  10.512  0.1166  0.0743  0.0146
25366W        W40835  11.497   0.055   5.968 -0.1431  0.1666  0.1120
25367W        W40836   7.569   1.423  10.466  0.0350  0.1339  0.1061
25368W        W40837   3.050  15.159   1.593  0.2984 -0.2567  0.0015
25369W        W40838  14.458   4.317  12.636  0.2650  0.0418 -0.0866
25370W        W40839   1.265   5.364   4.355  0.2613  0.2803 -0.0601
25371W        W40840  13.792  16.261   0.148  0.1392 -0.1125  0.0638
25372W        W40841  14.142   7.649  13.445  0.0289 -0.3617 -0.0125
25373W        W40842   9.770   8.519  14.112 -0.0249  0.3607  0.1584
25374W        W40843   7.409  18.517  12.314  0.1518  0.1346 -0.0561
25375W        W40844  15.334   2.562   4.395  0.1078  0.1374  0.2585
25376W        W40845   2.682   1.699   9.962 -0.3987  0.1355  0.0320
25377W        W40846  17.067  12.445  10.687 -0.2880 -0.0597 -0.0805
25378W        W40847   8.951  17.791  11.900  0.0025  0.0389  0.1108
25379W        W40848  15.951  18.524   9.670 -0.1182  0.0900  0.1544
25380W        W40849  14.869   9.650   2.876  0.2134 -0.1516 -0.2195
25381W        W40850  12.811   6.447  10.833 -0.0095  0.1293 -0.1932
25382W        W40851   7.092  13.465  12.895  0.1178  0.2070 -0.1480
25383W        W40852   9.532   9.454  13.159 -0.1980  0.1847 -0.3760
25384W        W40853  14.330   8.313  12.797  0.0016 -0.2057  0.0606
25385W        W40854   0.832  17.196   0.126  0.0509  0.3843 -0.2702
25386W        W40855   5.268  18.534  13.029 -0.0726  0.0191  0.0243
25387W        W40856  15.210  17.599   2.030  0.3845  0.0337 -0.0858
25388W        W40857  13.162   0.618   2.334  0.2855  0.1235 -0.2299
25389W        W40858   8.083  17.382   3.694 -0.0473  0.1518 -0.0645
25390W        W40859  16.256   6.123   1.470 -0.0042 -0.1456  0.0026
25391W        W40860   1.488  15.241  11.264 -0.0567  0.1221 -0.2345
25392W        W40861  17.867   3.336  12.776  0.3880 -0.1158  0.0094
25393W        W40862  14.341   7.773  11.524 -0.6028  0.1726  0.1508
25394W        W40863  10.054   9.786   9.251  0.0030  0.2458  0.1966
25395W        W40864  18.301   1.857  12.963  0.2193 -0.2559  0.0221
25396W        W40865  18.474   0.804   2.035  0.0377 -0.0383  0.3739
25397W        W40866   7.545   3.058   5.735 -0.0834  0.0861  0.3739
25398W        W40867   0.191   6.636   5.074  0.0791  0.1766 -0.3999
25399W        W40868  12.155   4.097  12.533 -0.0372 -0.1974  0.0519
25400W        W40869   9.442   8.939  10.641 -0.1627  0.1671 -0.1278
25401W        W40870   4.925  12.295   3.014 -0.2989  0.0346 -0.0471
25402W        W40871   1.730  15.066   5.150  0.3186 -0.0706  0.3752
25403W        W40872   6.842  12.968  11.312 -0.3056 -0.3752  0.0989
25404W        W40873  14.933   6.957   2.878 -0.0292  0.1076 -0.0628
25405W        W40874  11.275   4.981   5.897  0.0435 -0.0173 -0.1234
25406W        W40875  16.905   4.689   4.716  0.1818 -0.1025  0.6149
25407W        W40876   0.776   0.698   0.191  0.0320 -0.2286  0.2138
25408W        W40877  10.279  16.313   2.789 -0.4504 -0.1883 -0.0623
25409W        W40878  14.791   0.873   2.738  0.0216  0.0764 -0.0941
25410W        W40879   6.414   3.749   1.908 -0.0821  0.2693 -0.1517
25411W        W40880  11.083  15.716   2.102 -0.0048  0.1454  0.0500
25412W        W40881   9.248  14.028   3.501 -0.2472 -0.0633  0.0538
25413W        W40882   7.513  17.206  11.384 -0.0155 -0.1635  0.4063
25414W        W40883   7.189  10.222  13.995 -0.1276 -0.0356  0.1010
25415W        W40884  15.640   7.370  12.339 -0.1920 -0.2594 -0.1753
25416W        W40885   5.939   6.017  10.779 -0.1107 -0.1307 -0.2525
25417W        W40886   1.291   6.794   3.786 -0.0954 -0.1948  0.2991
25418W        W40887   2.272  12.840   2.155 -0.1271 -0.1263 -0.4147
25419W        W40888  14.145  15.190   0.514  0.1597 -0.3288 -0.2570
25420W        W40889   7.482   7.563   1.415 -0.2110 -0.0175  0.1537
25421W        W40890  15.825   6.863   3.555  0.3901  0.1967  0.2041
25422W        W40891  17.114   6.457   1.626  0.2964 -0.1216 -0.0088
25423W        W40892   2.157   0.125   0.526 -0.2477  0.1354 -0.1270
25424W        W40893   8.565   8.036  10.451 -0.0302  0.0641  0.0259
25425W        W40894  18.167  14.584   3.776  0.2077  0.1542  0.1900
25426W        W40895   2.108  16.023   0.020  0.0485 -0.1350 -0.1221
25427W        W40896   3.546   0.774  12.075  0.0473 -0.2391  0.2789
25428W        W40897   8.687  19.016  11.876 -0.2552  0.1469  0.3630
25429W        W40898  15.053  11.540  15.100 -0.2440  0.0177 -0.0667
25430W        W40899  10.905  16.041  14.218 -0.3771  0.1618  0.0291
25431W        W40900  15.968   4.534   0.380  0.0613  0.0533 -0.1163
25432W        W40901   2.009  17.225  13.758 -0.2919  0.0944  0.0569
25433W        W40902   0.136  11.717  12.812  0.1700 -0.1529  0.0131
25434W        W40903  17.948  14.380  13.307  0.0046 -0.0751 -0.1506
25435W        W40904  10.916   5.027  10.935 -0.2145  0.2414 -0.0513
25436W        W40905  15.706   4.345   2.230  0.1540 -0.1824 -0.0464
25437W        W40906   4.095  17.209  13.982  0.4147  0.2607  0.2313
25438W        W40907   3.597  12.090   5.091  0.1343  0.2173  0.2409
25439W        W40908   5.281  15.177  14.807  0.1089 -0.5160  0.2629
25440W        W40909  17.234  15.509  14.027 -0.0362  0.0018  0.0758
25441W        W40910  16.126   1.734  13.819 -0.0478  0.0739 -0.2509
25442W        W40911   7.835  15.461  12.390 -0.5575  0.1351 -0.0282
25443W        W40912   8.223  10.805   1.735  0.0178  0.0470  0.0476
25444W        W40913   2.801  13.597  14.611  0.4045 -0.0321 -0.4780
25445W        W40914  12.393  15.250   2.783 -0.0545 -0.0932 -0.0664
25446W        W40915   2.176   6.493  12.492  0.0799  0.0136 -0.3339
25447W        W40916  15.517   9.062  15.317 -0.0523  0.0269 -0.2674
25448W        W40917   9.933  17.757   0.075  0.0864 -0.0513  0.0315
25449W        W40918  16.881  12.051   3.444  0.1405 -0.0026  0.1812
25450W        W40919   5.133  16.302  14.700 -0.1833  0.1467 -0.0660
25451W        W40920   8.178   7.867  13.614 -0.0506  0.1036  0.0365
25452W        W40921  10.389  18.071  11.598 -0.2634  0.0616 -0.1923
25453W        W40922   9.305   3.903   1.274 -0.4056 -0.0122 -0.0433
25454W        W40923   6.172  19.002   4.108 -0.0240  0.1393  0.2239
25455W        W40924   7.400   2.997  11.928  0.1138 -0.1246  0.1292
25456W        W40925   0.291  12.992   2.992  0.0079  0.0954  0.1485
25457W        W40926  18.645  13.824  12.256 -0.2462 -0.4741 -0.2025
25458W        W40927  10.687  11.472  10.358 -0.0252  0.0714  0.0626
25459W        W40928   0.141  10.673   3.823  0.1168 -0.1774 -0.1633
25460W        W40929   1.492  10.512  11.612  0.0126 -0.1277  0.2366
25461W        W40930   8.180   5.083   1.536 -0.2409  0.0383 -0.0183
25462W        W40931   7.178  17.380   3.463 -0.1201 -0.0394  0.0707
25463W        W40932   2.052   4.806   3.248 -0.2621  0.0317 -0.2200
25464W        W40933   9.850  11.287   1.782  0.0202  0.0219  0.2839
25465W        W40934  17.110   4.910   2.600 -0.1721 -0.0081  0.2345
25466W        W40935   8.850   2.233   3.597  0.0350  0.2983  0.1804
25467W        W40936  10.617   3.423   5.012  0.0304 -0.3768  0.0601
25468W        W40937  15.088   3.926  13.828  0.2445  0.2335  0.0990
25469W        W40938  14.319   5.589   4.701 -0.2883 -0.0740 -0.0256
25470W        W40939   8.673   4.512   5.218 -0.1448 -0.1091  0.0649
25471W        W40940  15.854   2.109  11.296  0.0906  0.0306 -0.2881
25472W        W40941  17.639  11.451  12.428  0.1806 -0.0968 -0.0206
25473W        W40942  12.680  15.134  13.137 -0.0338  0.0635 -0.0603
25474W        W40943  10.410  17.008  11.188 -0.0395  0.2329 -0.2510
25475W        W40944   8.720  13.587  13.423  0.0626 -0.3819  0.0119
25476W        W40945  11.080   2.125  14.068  0.0112  0.0660  0.3072
25477W        W40946  16.614  10.789  11.644 -0.0157 -0.1070 -0.0722
25478W        W40947  18.546   8.564   1.184  0.4596  0.1311  0.1913
25479W        W40948  13.291  13.725   0.500  0.0806 -0.2604 -0.0626
25480W        W40949  15.754  17.584   2.274 -0.3124  0.1472 -0.0080
25481W        W40950  12.515   2.661  12.483  0.0634  0.4874 -0.1850
25482W        W40951   4.099   3.862   0.346 -0.1851  0.3881 -0.2818
25483W        W40952  12.227   4.041   4.420  0.1323  0.0948  0.2401
25484W        W40953   5.731  14.564  14.277  0.2298 -0.2195  0.0945
25485W        W40954  14.006   5.054  12.094  0.1820  0.0825  0.0787
25486W        W40955   9.838  12.852   2.586  0.1126  0.1877  0.2622
25487W        W40956   9.039   5.922   4.980  0.1821  0.2006  0.1246
25488W        W40957   2.600   0.401   2.705 -0.0702 -0.1892  0.2756
25489W        W40958  14.770  12.214  10.899 -0.2973  0.3690  0.0663
25490W        W40959  12.505  10.653  10.338 -0.3218  0.0194  0.1913
25491W        W40960  12.515  11.476   2.253 -0.1748 -0.0780  0.3101
25492W        W40961  16.173   9.413  12.319 -0.2722 -0.4577  0.2750
25493W        W40962   1.543   6.397  14.117 -0.0120 -0.0393  0.0493
25494W        W40963   2.459  15.110  13.819 -0.0904 -0.0283 -0.1416
25495W        W40964  13.080   0.941   0.842  0.0813  0.2613  0.0680
25496W        W40965  15.005  18.063   0.306 -0.0256  0.0804 -0.0568
25497W        W40966   0.082   6.563   0.648  0.3239  0.1174  0.0490
25498W        W40967  10.336   8.056   2.178 -0.2561 -0.1294 -0.1195
25499W        W40968   6.702  12.110   0.139 -0.3532  0.0476 -0.0660
25500W        W40969  12.698  12.660   0.820 -0.0695  0.1425 -0.2167
25501W        W40970   6.104   7.386   4.672  0.1429  0.0564 -0.1267
25502W        W40971  15.855   6.409   5.336  0.1423  0.1070  0.0453
25503W        W40972   1.079  10.764   3.591  0.0480 -0.0113 -0.1601
25504W        W40973  13.757  17.952  13.314 -0.0096  0.3394  0.2123
25505W        W40974   7.812   6.657  13.740  0.0674  0.0343 -0.0669
25506W        W40975  12.276  12.537   0.490 -0.0219 -0.1984 -0.0907
25507W        W40976  15.313   9.305   0.502  0.1260  0.0672 -0.0121
25508W        W40977  18.717  12.311   1.511  0.2158 -0.2675  0.1518
25509W        W40978   6.227   7.404   1.668  0.1282  0.2451  0.4760
25510W        W40979   2.212  18.484  10.710  0.0309  0.2204 -0.3606
25511W        W40980   7.286  13.668   0.183  0.2589  0.1454 -0.3856
25512W        W40981  11.249   0.419   1.279  0.3351  0.2093 -0.1441
25513W        W40982   8.706   5.660  14.096 -0.0152  0.1616  0.0045
25514W        W40983  15.127   5.758   9.259 -0.1926  0.1542 -0.0746
25515W        W40984  16.224  11.323   0.549  0.3005  0.2111  0.0911
25516W        W40985   4.773   3.061   6.172  0.2134 -0.0732 -0.0890
25517W        W40986   1.363  10.958   2.634  0.1383  0.0617  0.0619
25518W        W40987  10.152   9.949  14.151  0.2331  0.2934  0.2723
25519W        W40988   5.161   3.461   6.225 -0.2403  0.0162 -0.0298
25520W        W40989   1.786  15.678  12.997  0.0873 -0.0543  0.0469
25521W        W40990  18.580   0.805   3.873  0.0345  0.1393 -0.1057
25522W        W40991  11.311   2.891  14.165  0.2463 -0.4324  0.0129
25523W        W40992   8.591  10.937  10.365 -0.2640 -0.0787 -0.1976
25524W        W40993   6.332  13.255  13.620  0.1910 -0.1066  0.1245
25525W        W40994  11.882   3.819  12.023 -0.1097  0.2714  0.4264
25526W        W40995   4.179  12.359  10.957  0.2201  0.3457  0.0676
25527W        W40996   9.090  11.208  10.275  0.0373 -0.0631  0.2070
25528W        W40997   4.767  17.760   0.390 -0.0407 -0.0772 -0.0557
25529W        W40998  10.513  16.609   1.161 -0.0348 -0.0925  0.2429
25530W        W40999  13.196   1.541   5.412  0.4236 -0.2074  0.1162
25531W        W41000   5.722  18.269   1.180 -0.0037 -0.0118 -0.0349
25532W        W41001   8.064   5.681   4.651  0.1193 -0.1929 -0.0544
25533W        W41002  12.116  16.627  15.333 -0.0175  0.2660 -0.3938
25534W        W41003  13.796   9.143   4.884 -0.4111  0.1945  0.0722
25535W        W41004  12.245   7.920   2.038 -0.4778 -0.0482  0.0432
25536W        W41005  14.479  15.232   0.076 -0.5212  0.3902  0.0485
25537W        W41006   9.958  11.286  12.410 -0.2577  0.0024  0.0058
25538W        W41007   7.869  12.287   2.605  0.1474 -0.0992  0.0021
25539W        W41008  14.420  11.633  11.533 -0.0217 -0.2514 -0.1246
25540W        W41009   9.133   5.567  12.997  0.0648 -0.0144  0.2559
25541W        W41010  12.249  14.052   4.831 -0.0810 -0.2926  0.2080
25542W        W41011  10.081   6.368  14.661  0.1508 -0.2305 -0.0588
25543W        W41012   3.965   7.698   1.296 -0.1005 -0.1492 -0.0234
25544W        W41013  11.753   1.520  15.175  0.0494  0.0863  0.0543
25545W        W41014  15.304   1.262  13.842 -0.5607 -0.0097  0.1735
25546W        W41015  13.971   4.111   0.210 -0.2324  0.0564  0.6093
25547W        W41016  12.658   8.075  10.730 -0.1277 -0.3375  0.0435
25548W        W41017   5.379   2.268  13.993  0.0610 -0.0669 -0.1339
25549W        W41018  14.018  13.395   2.228  0.0602 -0.0323 -0.0238
25550W        W41019   4.936  13.022  13.722  0.0503 -0.0679  0.1446
25551W        W41020   3.533   4.901  13.846  0.0204 -0.1728 -0.1533
25552W        W41021   6.898   7.062  14.023  0.2032  0.0108  0.0055
25553W        W41022   5.472   8.182   4.666  0.0683  0.0802  0.0542
25554W        W41023  17.797  17.873   2.453  0.1071 -0.1394  0.1692
25555W        W41024   6.754   5.980   5.170 -0.0386  0.1140 -0.0682
25556W        W41025  10.006   4.430  15.304 -0.0533 -0.1168 -0.0734
25557W        W41026   5.270   3.100   2.978  0.1691  0.3519 -0.3063
25558W        W41027   3.994   9.775  11.724 -0.2719  0.0402  0.2333
25559W        W41028   9.427  16.451  15.361  0.4988  0.2327 -0.2907
25560W        W41029   4.254   0.589  12.651  0.0656 -0.0524  0.0730
25561W        W41030   9.455  18.372   0.367 -0.1066  0.1934  0.0698
25562W        W41031   6.336  11.102   3.699 -0.0162  0.3210 -0.0153
25563W        W41032   8.782  18.840  15.316  0.0480  0.0362  0.0143
25564W        W41033  18.065   9.709   1.238  0.3349 -0.0813  0.0558
25565W        W41034  11.476  11.360   3.466  0.0338 -0.3128 -0.1455
25566W        W41035  10.477  16.725   4.606 -0.1153 -0.0281 -0.0412
25567W        W41036  16.738  17.449   2.588 -0.0962 -0.4257 -0.0575
25568W        W41037   4.136  16.550   4.056 -0.0694  0.2288  0.2948
25569W        W41038  18.551  17.202  14.583  0.3520 -0.0391  0.2608
25570W        W41039  16.031   0.589  13.633  0.0355  0.0669 -0.0526
25571W        W41040  12.476   0.902  13.981 -0.2606  0.1723 -0.2035
25572W        W41041   6.760  13.015  10.354 -0.2730 -0.3060  0.1960
25573W        W41042   3.315  17.285   2.729  0.2929  0.0095  0.0728
25574W        W41043   3.736  17.329  14.393 -0.1579 -0.0225  0.1623
25575W        W41044   6.858   5.762  13.225  0.3068  0.2238  0.0624
25576W        W41045  11.799  17.332   5.517 -0.1714  0.0223  0.2116
25577W        W41046   0.134   2.786  14.637 -0.1461  0.1558  0.0215
25578W        W41047  15.130   0.920   1.754 -0.1836  0.2142  0.1333
25579W        W41048  11.001   5.807   5.146 -0.0322 -0.2386  0.3598
25580W        W41049  12.756   3.113  12.855  0.2643  0.0309 -0.0469
25581W        W41050   9.507   9.228   4.657 -0.1116  0.2194  0.3463
25582W        W41051   6.282   0.922  14.717  0.0651 -0.4144  0.0097
25583W        W41052  14.688   8.260  14.930 -0.0005 -0.0386 -0.3607
25584W        W41053   8.677   4.587  13.645 -0.2343  0.3322  0.1200
25585W        W41054  13.790   2.573  12.608  0.2977 -0.2273 -0.0368
25586W        W41055  10.143  15.536   1.555 -0.0257 -0.1390 -0.2672
25587W        W41056  15.602   3.032   0.970 -0.2567 -0.1598  0.1555
25588W        W41057   8.075  12.673   5.386 -0.0685 -0.1120  0.3116
25589W        W41058  17.798   9.113  14.700  0.0244 -0.2064  0.0710
25590W        W41059   6.841  17.718   3.485 -0.1345 -0.4695 -0.1382
25591W        W41060  15.590   4.413   4.321  0.1545  0.1428 -0.0878
25592W        W41061   5.061   4.112   0.372 -0.1001  0.1887  0.0507
25593W        W41062   2.151   7.484  12.881 -0.0782 -0.0347 -0.0882
25594W        W41063  15.859  17.918  15.281  0.1752 -0.2423 -0.0811
25595W        W41064  15.269   9.131  10.312 -0.2291  0.2700 -0.0032
25596W        W41065   8.856   3.751  11.907 -0.1246  0.2123  0.1979
25597W        W41066  13.750   3.577  14.830 -0.0355  0.2962 -0.0273
25598W        W41067  17.800   2.113  10.166 -0.1236  0.1160  0.1349
25599W        W41068   6.551  15.809   0.209  0.0022 -0.0384 -0.0687
25600W        W41069  13.847   5.329  15.167 -0.1460 -0.3357  0.0216
25601W        W41070  15.949   9.567   0.689  0.1028 -0.2209  0.2042
25602W        W41071   7.839  18.356  12.706 -0.0413 -0.1115  0.0666
25603W        W41072   0.560  16.293   1.437  0.0818  0.0684  0.0381
25604W        W41073   2.406   2.181   5.231  0.0740 -0.1905  0.0270
25605W        W41074   4.518  15.460   0.340  0.1869  0.0563 -0.1696
25606W        W41075  18.506   5.546   5.099 -0.1693  0.2460  0.1779
25607W        W41076   5.836  12.511  10.493  0.0989 -0.1947  0.1403
25608W        W41077  15.296  15.642  14.014  0.0921 -0.0710  0.2850
25609W        W41078  10.165   8.317   5.814 -0.3962  0.1169  0.0715
25610W        W41079   6.532   1.447   2.566 -0.1257  0.2201 -0.1841
25611W        W41080   5.957   1.811  12.914  0.1288  0.3634  0.0369
25612W        W41081   3.799  15.450   2.667 -0.0537  0.2234 -0.2042
25613W        W41082  11.191   8.425   2.096 -0.0282 -0.0999 -0.0049
25614W        W41083  13.515   7.580  10.375 -0.2459 -0.0389  0.0870
25615W        W41084   8.368  18.567  10.362 -0.4059  0.2426  0.0591
25616W        W41085   4.400   0.481   1.998 -0.1862  0.1400  0.0405
25617W        W41086  11.451   2.337  14.317 -0.1770  0.3075 -0.2909
25618W        W41087   8.032   4.064   2.166 -0.0584 -0.0442 -0.1433
25619W        W41088  14.134   1.658   4.759  0.2296  0.1013 -0.0484
25620W        W41089   6.542  16.521   3.474 -0.0916 -0.0231 -0.1654
25621W        W41090  13.038   4.420  12.464  0.0662  0.0131  0.3063
25622W        W41091   9.852   4.619   4.154  0.0069  0.0087  0.0873
25623W        W41092  10.245   1.209  12.859  0.2365  0.2065 -0.0430
25624W        W41093  18.817  14.196  13.438  0.0128 -0.1434 -0.0080
25625W        W41094   1.146   0.727   2.582 -0.2867  0.0203 -0.1575
25626W        W41095  16.131  16.050   3.062  0.3520 -0.0226 -0.3361
25627W        W41096  15.240  14.500  12.202 -0.1759  0.1094  0.1745
25628W        W41097   4.127  11.766   3.644 -0.1559  0.0681  0.1192
25629W        W41098   9.374   1.599   1.892 -0.0466  0.1712 -0.0273
25630W        W41099   7.803  10.395  14.347 -0.0558  0.1042 -0.2830
25631W        W41100  16.726   8.569  12.076  0.1582  0.1670  0.1806
25632W        W41101  18.053   5.441  10.908 -0.0552 -0.0777  0.0975
25633W        W41102   1.046   2.479   0.416 -0.2790 -0.3842 -0.0626
25634W        W41103  14.853  16.232  13.633 -0.3143 -0.0237 -0.3761
25635W        W41104  17.190   0.200  13.629  0.1854 -0.2152 -0.2176
25636W        W41105  18.044  18.931   5.157 -0.2736 -0.0402 -0.1504
25637W        W41106   2.394  13.957   1.660 -0.4403 -0.1357  0.1384
25638W        W41107  11.840  12.417   4.588  0.2163 -0.0334 -0.0831
25639W        W41108   1.486  12.887  14.651  0.4722 -0.0874 -0.1642
25640W        W41109   3.987  17.017   1.795 -0.2798  0.0719 -0.0513
25641W        W41110  17.137  16.157  12.755  0.4101 -0.0970  0.3308
25642W        W41111  13.022   9.443   1.426  0.4032  0.0336 -0.1127
25643W        W41112  15.653  17.134  13.129 -0.0680  0.0118 -0.4383
25644W        W41113  16.105  13.005  14.573 -0.0703  0.5475  0.2058
25645W        W41114  15.403   9.166   2.591  0.2957 -0.3277  0.1136
25646W        W41115  10.528  10.643   0.178  0.1791 -0.0997 -0.3606
25647W        W41116  10.099  15.621   2.514 -0.3029  0.0172 -0.0920
25648W        W41117  14.747  16.462   2.983  0.1494  0.0276  0.1656
25649W        W41118   8.326   6.767   1.507  0.1807 -0.2622 -0.0127
25650W        W41119  14.342  17.947  13.686  0.0036 -0.1079  0.1058
25651W        W41120  14.946   2.566  13.731  0.0611 -0.3177  0.1133
25652W        W41121   4.649   6.617  11.053  0.1549 -0.5801 -0.0742
25653W        W41122  12.157   8.518  10.798  0.3358  0.0062  0.0764
25654W        W41123  12.211   8.332  14.028 -0.2170 -0.1445 -0.1802
25655W        W41124  10.420  13.167  10.714  0.0184  0.0923 -0.2913
25656W        W41125  11.976  11.370   3.539  0.1828  0.0388  0.1062
25657W        W41126   9.347   3.499   6.097  0.1975 -0.1380  0.0348
25658W        W41127  15.786   2.783  11.406  0.0045 -0.0852  0.1547
25659W        W41128  14.040  15.835  13.980 -0.0422 -0.0267 -0.1515
25660W        W41129   1.009   4.183  14.033 -0.0910  0.2511  0.0546
25661W        W41130   8.460  14.187   4.906  0.1125  0.0725  0.0527
25662W        W41131  18.376   3.105  12.214  0.0991 -0.0853 -0.0448
25663W        W41132   7.575  14.430  12.295  0.4604 -0.2032 -0.1062
25664W        W41133   7.442   3.105  10.470  0.0907  0.0501 -0.4673
25665W        W41134   1.061  15.196  12.612  0.0224 -0.1612 -0.2283
25666W        W41135   3.919   6.103  12.546 -0.1036  0.0939 -0.0877
25667W        W41136  16.327  12.749   2.731 -0.2311  0.0740  0.0529
25668W        W41137  12.524  13.426  12.386 -0.2758  0.1809 -0.0506
25669W        W41138  12.854  18.716   2.752  0.0692 -0.2816  0.1604
25670W        W41139  12.577  18.426  12.999 -0.3601  0.0838 -0.0360
25671W        W41140  14.234   7.031  15.360  0.0533 -0.0785 -0.0910
25672W        W41141   5.851  14.148  10.781 -0.0800 -0.0004  0.2424
25673W        W41142  12.128  13.267  15.081 -0.3699  0.0118 -0.0790
25674W        W41143   6.543   7.612   4.830 -0.2484  0.1305  0.2870
25675W        W41144  13.369   7.977   3.896 -0.0905 -0.0979 -0.1508
25676W        W41145  14.679  15.454  13.484  0.2065  0.1631 -0.0924
25677W        W41146   6.565  11.269  13.403 -0.2567 -0.0390 -0.0211
25678W        W41147  19.014   5.447  11.558 -0.1229 -0.0630  0.1796
25679W        W41148  17.313  17.393  10.403 -0.2853  0.1211  0.0332
25680W        W41149  18.057   2.167   4.043 -0.4974 -0.0835  0.0522
25681W        W41150  14.543   2.882   3.745 -0.0646  0.0932  0.2307
25682W        W41151   2.931  18.221  12.867  0.0985 -0.1882 -0.1857
25683W        W41152  12.609   0.135   2.762  0.1915 -0.0563 -0.0798
25684W        W41153   0.500   7.166   3.856  0.2051 -0.0339  0.1173
25685W        W41154  15.648   4.888   0.428 -0.0630  0.1262 -0.2194
25686W        W41155   9.354   5.733   5.542  0.1510 -0.3292 -0.0245
25687W        W41156  15.989   4.560   4.668 -0.0080  0.1307  0.1965
25688W        W41157   4.049   0.794  14.084  0.1695 -0.0133  0.0389
25689W        W41158  17.358  11.175   1.767 -0.1954 -0.1013 -0.0289
25690W        W41159   1.339  11.743  10.302 -0.2584  0.1790  0.1218
25691W        W41160  17.795   6.465  11.273 -0.0110 -0.1052 -0.2731
25692W        W41161   6.479  17.476   4.581  0.3658  0.0117 -0.1842
25693W        W41162   4.742   4.961   3.126 -0.0659 -0.0968 -0.0438
25694W        W41163   8.203   3.244   5.518 -0.4983 -0.0763  0.1721
25695W        W41164   8.151  17.039   4.818  0.1138  0.0445  0.1209
25696W        W41165   6.865  17.112  12.227 -0.0675 -0.2372 -0.2713
25697W        W41166   5.395   0.428  11.903 -0.2788  0.0494  0.4492
25698W        W41167   1.891   2.544  15.271  0.2651  0.1782  0.1773
25699W        W41168   1.111   5.752   3.796  0.0319 -0.0446  0.0423
25700W        W41169   8.777  17.059  12.606 -0.1566 -0.1865  0.0684
25701W        W41170   4.294  15.315   1.277  0.1705  0.0928  0.0518
25702W        W41171  13.867  18.032  13.838  0.0067  0.4120  0.2018
25703W        W41172  16.303  11.595   2.359  0.1301 -0.2204 -0.1594
25704W        W41173   2.971  15.192   2.176  0.1986 -0.3912  0.2129
25705W        W41174   0.342   7.543   3.387 -0.1255 -0.0049 -0.1193
25706W        W41175  17.759   1.932   0.231  0.0911  0.1966 -0.2576
25707W        W41176  11.148  15.625  13.949 -0.1166  0.0145  0.3392
25708W        W41177   6.444   1.990   3.578  0.2237  0.1620  0.1460
25709W        W41178   5.285  18.353   2.397  0.2746  0.1691  0.2598
25710W        W41179  10.022  13.775   2.643  0.1938  0.1944 -0.0341
25711W        W41180   7.019   1.006   3.954 -0.0804  0.0674  0.2618
25712W        W41181   4.970   4.131   2.864  0.2250 -0.1244  0.1690
25713W        W41182   1.225  16.609   1.158  0.1838 -0.4178 -0.0844
25714W        W41183  18.982   5.672  12.058 -0.0804  0.2521 -0.2695
25715W        W41184  12.623   0.028  14.897  0.1229 -0.1583 -0.0951
25716W        W41185   6.388   3.767  14.602 -0.1852  0.0815 -0.0057
25717W        W41186   2.463  18.687  11.827 -0.0936  0.1831  0.1735
25718W        W41187  13.600  13.350   2.883  0.1700 -0.1645 -0.0307
25719W        W41188  15.655  16.172  14.546 -0.2628 -0.0665  0.5441
25720W        W41189   5.533   0.021   3.293  0.4440  0.2666  0.2300
25721W        W41190  18.575   7.981   0.874  0.0849  0.0295  0.0234
25722W        W41191  15.158   4.043   2.878  0.1250 -0.1194 -0.1326
25723W        W41192   4.460   6.108   0.948 -0.3035 -0.0341  0.0109
25724W        W41193  15.415   8.407  11.737 -0.0415  0.0913  0.0596
25725W        W41194   1.991  19.017  13.380  0.0149  0.0537 -0.1892
25726W        W41195  14.808  10.274   0.272  0.2217  0.4587 -0.1019
25727W        W41196  18.414   0.903  15.146 -0.2561  0.0949 -0.0308
25728W        W41197  17.438   9.498  14.934 -0.1632  0.0984  0.0590
25729W        W41198   1.291   2.194  10.595  0.1463 -0.1627 -0.0787
25730W        W41199   7.180   9.990   1.324 -0.0331 -0.3347 -0.0828
25731W        W41200   4.269   6.181  14.505 -0.0359 -0.1815  0.0991
25732W        W41201  17.563  11.160  15.314 -0.2085 -0.0535 -0.3626
25733W        W41202   6.210   8.431   2.724  0.0051 -0.0503  0.1055
25734W        W41203   6.712  15.087   2.465 -0.0493  0.4013 -0.2684
25735W        W41204  16.802  16.384   2.485 -0.0326 -0.1216 -0.1226
25736W        W41205   4.864   4.800   1.855 -0.1931 -0.1240  0.3400
25737W        W41206  18.582  15.537  11.991  0.0717 -0.0154  0.2486
25738W        W41207  11.643   3.812   1.720  0.1794  0.1694 -0.3259
25739W        W41208  12.331  15.557  14.670 -0.1141 -0.0842 -0.1154
25740W        W41209   4.228  16.887   0.160  0.1906 -0.2719 -0.0713
25741W        W41210   9.243  15.847   3.399 -0.0128  0.0696 -0.1187
25742W        W41211   1.591   5.717  10.737  0.0390  0.0251 -0.2428
25743W        W41212  10.222  18.712   0.489 -0.0823  0.0507  0.1267
25744W        W41213   6.796  15.418  14.135  0.0114 -0.3993  0.2717
25745W        W41214   1.757  17.177   2.420  0.2985  0.4337 -0.1432
25746W        W41215  17.281  18.931   0.760  0.2165 -0.1391 -0.0472
25747W        W41216   3.102   5.180   0.659 -0.3031 -0.2216 -0.1616
25748W        W41217  16.078  18.440  12.656  0.1628 -0.1367  0.2596
25749W        W41218  15.878   9.635   5.406  0.3917  0.2006 -0.2111
25750W        W41219   8.083  16.280   1.062 -0.1156 -0.1375 -0.2013
25751W        W41220  11.118  12.332  11.243  0.2287 -0.1903 -0.1091
25752W        W41221  15.394  11.477   5.587  0.0986  0.3160 -0.0950
25753W        W41222   3.344   8.955  15.078  0.2351 -0.2713 -0.1775
25754W        W41223   1.476  11.463   1.566  0.1867  0.2295  0.1708
25755W        W41224   9.132   5.394  13.972 -0.0868  0.1969 -0.0486
25756W        W41225   1.372  16.465  13.067  0.1162 -0.2011  0.3804
25757W        W41226  18.471   8.488   4.623  0.2150  0.3686 -0.2770
25758W        W41227   4.091  18.658  12.642 -0.1460 -0.0800 -0.0918
25759W        W41228   5.678   1.571   0.270  0.2149  0.1098  0.5312
25760W        W41229  11.769  16.558  12.531  0.1884  0.6624  0.1452
25761W        W41230   7.816   4.050  10.809 -0.2173  0.0035 -0.1996
25762W        W41231   4.302  16.960  12.831 -0.0904  0.0176 -0.4757
25763W        W41232   2.122   5.613  15.050  0.0206 -0.2851 -0.2136
25764W        W41233  12.815   9.518  11.089 -0.0409 -0.0061 -0.2216
25765W        W41234   6.478   3.359   3.949 -0.1489  0.1273  0.1263
25766W        W41235   6.642  18.683  14.831  0.3541 -0.1571  0.2264
25767W        W41236   6.007  11.232   4.161  0.1748 -0.2824 -0.2236
25768W        W41237  10.375  13.852  13.298 -0.0563 -0.1180  0.1965
25769W        W41238   3.550   8.055   9.790  0.1504 -0.2803 -0.1887
25770W        W41239   9.110  12.387  13.237  0.1223 -0.0176 -0.3752
25771W        W41240   4.434   5.659   0.705  0.0503  0.1250  0.1187
25772W        W41241  18.794   4.408   0.723 -0.0056 -0.1552 -0.1179
25773W        W41242   7.265   4.019   5.888  0.3229 -0.0656  0.1058
25774W        W41243   7.383  15.145  15.002 -0.0144  0.1975  0.1346
25775W        W41244   3.451   7.573  11.599 -0.3119 -0.1036  0.0326
25776W        W41245   4.940   0.199   4.636  0.1762  0.1989  0.4379
25777W        W41246   2.341   1.579  14.049  0.2964 -0.2340 -0.2649
25778W        W41247  14.000  16.849  12.621  0.1304  0.2171 -0.0258
25779W        W41248  10.318   6.132   3.568  0.1565  0.1623  0.0229
25780W        W41249   0.651  13.927  10.390 -0.0726 -0.1160 -0.0932
25781W        W41250   7.352   2.163   4.900 -0.0438  0.0278  0.0094
25782W        W41251   3.711   2.446  12.420 -0.4297  0.1381  0.1479
25783W        W41252  11.276  14.602   3.058 -0.1000  0.0685 -0.0514
25784W        W41253  15.869   4.861   2.269 -0.2054 -0.1164  0.1552
25785W        W41254   2.924  17.273   3.753 -0.1324  0.1322  0.0503
25786W        W41255   2.901   0.834   1.952 -0.0403  0.1707  0.4113
25787W        W41256   2.336   9.825   2.610 -0.1728 -0.0725 -0.3733
25788W        W41257  15.499  16.353   3.887 -0.1813  0.1633  0.2296
25789W        W41258  15.141   7.972   0.780  0.1077  0.2020 -0.2770
25790W        W41259   6.745  14.171   4.444 -0.2314 -0.4653 -0.1542
25791W        W41260  16.530   2.791   1.139 -0.1115 -0.4126  0.0023
25792W        W41261  17.218  16.635  12.354 -0.0138  0.1112  0.0162
25793W        W41262   0.898  17.551   1.817  0.0813 -0.1244 -0.1650
25794W        W41263   4.669   9.221   3.666  0.2293  0.1647  0.1188
25795W        W41264  14.705   4.772   5.331 -0.1685  0.0732  0.1340
25796W        W41265   5.320   4.422   2.573  0.0410  0.3011 -0.0002
25797W        W41266   1.783   0.845  15.229  0.0589  0.1607 -0.2544
25798W        W41267  13.368  12.266   0.920 -0.1662  0.1962 -0.0712
25799W        W41268  12.548   9.969   3.894 -0.0011  0.0353 -0.1363
25800W        W41269  13.434   4.881  11.353 -0.1043  0.2935 -0.3500
25801W        W41270   8.135   4.307   1.759  0.1460 -0.4571  0.2471
25802W        W41271  14.630   1.919  10.826 -0.0657 -0.0121  0.1240
25803W        W41272   8.589  13.889   0.164  0.2779  0.1474 -0.0516
25804W        W41273  12.391  13.776  11.176 -0.2057 -0.0709  0.1558
25805W        W41274   4.612   4.385  11.388 -0.2816 -0.3327  0.0887
25806W        W41275  13.404  17.080  14.476 -0.2174  0.1214  0.0901
25807W        W41276   3.351  13.476   4.110 -0.4006  0.2842 -0.0754
25808W        W41277  10.370   1.390  14.305  0.0232 -0.0750 -0.4060
25809W        W41278   3.987   1.882  10.788  0.2856 -0.2179 -0.1269
25810W        W41279  12.822   8.880  10.956  0.2645 -0.0247  0.0737
25811W        W41280  16.433  16.022  15.357  0.0136 -0.2590 -0.1260
25812W        W41281   1.251   9.865   4.533  0.1248 -0.1119 -0.2895
25813W        W41282   9.687  17.289   3.413  0.0320 -0.0606  0.2797
25814W        W41283  11.954  13.775  14.317 -0.2300  0.1138  0.1141
25815W        W41284  11.932   5.743  10.680  0.0004 -0.2281  0.1862
25816W        W41285   4.131   9.007   1.892  0.2826  0.2899 -0.3162
25817W        W41286  11.098  18.097   2.608 -0.0230 -0.0832  0.0339
25818W        W41287  11.248   2.242  14.762  0.0817 -0.0087 -0.2063
25819W        W41288   1.974   9.509  14.599  0.0899 -0.0632 -0.1870
25820W        W41289   2.835   4.894   1.052 -0.0561 -0.2316  0.0742
25821W        W41290  10.817   5.836  10.656  0.1877 -0.0227  0.2656
25822W        W41291  16.405   1.110   1.304 -0.0321 -0.2645  0.2502
25823W        W41292  18.590   8.549   3.670  0.1490  0.0838  0.0560
25824W        W41293   3.311  16.446  12.386 -0.0739 -0.0334 -0.0251
25825W        W41294  15.360   9.367   1.950 -0.1600  0.0249 -0.2990
25826W        W41295   2.883   5.258   5.019  0.2311 -0.1931  0.2091
25827W        W41296   5.666  10.480   3.634  0.0127  0.0817 -0.1981
25828W        W41297  10.085   5.859  10.238  0.1859 -0.0814 -0.0217
25829W        W41298  11.361  18.210  11.432 -0.1484 -0.0412 -0.0024
25830W        W41299   2.887   3.661   2.491  0.0682 -0.0077  0.0949
25831W        W41300  15.650   9.759  12.162 -0.0740 -0.2409 -0.0165
25832W        W41301  12.597   6.341  11.300 -0.4281  0.2367 -0.1318
25833W        W41302  10.612   6.540  13.589 -0.1341  0.1464  0.0042
25834W        W41303   6.940   8.099  12.763 -0.2189 -0.0208  0.0557
25835W        W41304   7.259   5.739   4.474 -0.2720 -0.0213  0.0335
25836W        W41305   0.024   2.671  11.367 -0.1354  0.0462  0.1065
25837W        W41306  13.821  15.905  12.102  0.2845 -0.4142 -0.1472
25838W        W41307  18.170   8.261   0.688  0.0294 -0.0617 -0.1482
25839W        W41308   0.986  12.063   3.469 -0.1780 -0.0239  0.1439
25840W        W41309  15.052  18.073  14.714  0.1283  0.1484 -0.1987
25841W        W41310  18.561   7.692  10.983 -0.4612  0.1004 -0.2786
25842W        W41311   3.384  16.794  12.036  0.1152 -0.0751 -0.0737
25843W        W41312  15.609  11.169  15.167  0.1769 -0.1705 -0.0676
25844W        W41313  18.684  18.313   2.036 -0.0282 -0.2504  0.1108
25845W        W41314   8.869  14.662  14.567 -0.4961  0.0830 -0.3188
25846W        W41315   0.725   9.471  12.799 -0.4830  0.3837  0.1459
25847W        W41316  17.446  13.842   1.857  0.3420  0.0116  0.0031
25848W        W41317   2.870   7.135   0.954 -0.2463  0.3184 -0.0932
25849W        W41318   5.032   1.116   2.375 -0.1013  0.0643  0.0773
25850W        W41319  16.540   2.116   3.496 -0.1435  0.2279  0.0924
25851W        W41320   0.454  14.849   9.659 -0.0670  0.0400  0.2673
25852W        W41321   1.417  16.781   5.200  0.0209 -0.3580 -0.0746
25853W        W41322   9.283   2.783  11.776 -0.0313 -0.0002 -0.1014
25854W        W41323  16.827  17.711  11.637 -0.2622  0.2011  0.0025
25855W        W41324  15.952   8.847   0.222 -0.1706 -0.1815  0.0934
25856W        W41325  18.660   5.818  11.540 -0.1944 -0.2427 -0.0158
25857W        W41326   7.676  13.364  10.922 -0.0907 -0.3826 -0.1634
25858W        W41327  17.917   9.937  14.240  0.0654  0.0547  0.0836
25859W        W41328   8.654  14.547   4.519  0.2618  0.0857  0.0904
25860W        W41329   3.340  13.196  10.069  0.2702  0.2132 -0.0294
25861W        W41330  16.216   5.173   5.465  0.0353  0.3198  0.0800
25862W        W41331   7.664  10.834   3.966 -0.0404  0.0893 -0.1468
25863W        W41332  14.932  11.562  11.415 -0.2261  0.0361 -0.1357
25864W        W41333  14.485  16.517  13.440  0.0114 -0.3194 -0.0072
25865W        W41334  12.428   2.899  13.682  0.0783  0.5522 -0.2114
25866W        W41335   7.806   0.419  11.836  0.0249 -0.2474  0.1964
25867W        W41336   6.735   0.874   1.055 -0.2132 -0.3066  0.1873
25868W        W41337  12.923   4.698   0.713 -0.0788  0.0820 -0.0703
25869W        W41338  14.333  11.228   2.447 -0.0789  0.2171 -0.1020
25870W        W41339  17.703   7.174  10.616 -0.1966  0.0399 -0.2607
25871W        W41340  11.753   2.672   3.192 -0.1520 -0.0562  0.0348
25872W        W41341  10.128   9.713  14.617  0.1893  0.1421 -0.0918
25873W        W41342   7.813  10.941   3.481 -0.0034  0.1743 -0.1803
25874W        W41343  17.200   8.397  12.251 -0.1235  0.1678  0.0689
25875W        W41344  18.010  18.375   2.338 -0.2669  0.3391 -0.0387
25876W        W41345   7.362   3.390   3.739 -0.0077 -0.5186 -0.0952
25877W        W41346  11.940  16.435   3.119 -0.2819  0.2548 -0.1711
25878W        W41347  14.945   5.136  10.143 -0.4831  0.2409 -0.2135
25879W        W41348   0.405   1.327  12.288 -0.0533  0.0279  0.0299
25880W        W41349  16.529   4.143   2.859 -0.0857  0.0059 -0.1998
25881W        W41350   7.574   7.593   2.221 -0.0949 -0.0350  0.1082
25882W        W41351  10.567   3.520  15.045 -0.0991 -0.0194  0.2529
25883W        W41352  17.002  17.364   4.014 -0.0835 -0.1593  0.1760
25884W        W41353  13.085  15.750  12.560 -0.3760 -0.3216  0.0856
25885W        W41354   8.507   4.816   1.946  0.2944  0.0470  0.1061
25886W        W41355  12.546  14.827   3.739  0.0680 -0.0207  0.2853
25887W        W41356  10.481  15.781  13.072 -0.0367  0.0132  0.1149
25888W        W41357   7.737   8.443  10.256 -0.1072 -0.0618  0.2129
25889W        W41358   5.432   3.788   4.506 -0.3915  0.0489  0.0369
25890W        W41359   2.148  11.787  14.927  0.5926 -0.1115 -0.1000
25891W        W41360   9.607  12.184   4.806 -0.2590 -0.0178  0.1697
25892W        W41361  15.832  14.645   0.431 -0.3088  0.3888 -0.1324
25893W        W41362  11.765   7.488   2.750 -0.4174 -0.0976  0.0049
25894W        W41363   5.632  11.441   4.422 -0.0695  0.0150  0.3071
25895W        W41364   8.741  15.176   3.445  0.0481  0.2923  0.1476
25896W        W41365   7.887   1.225   0.670  0.0616 -0.3307  0.0823
25897W        W41366   3.045   3.067   3.700 -0.4057  0.0037 -0.1755
25898W        W41367   7.260   7.889   3.206 -0.0767  0.0391 -0.1955
25899W        W41368  17.699  15.376   4.874  0.0501  0.0699  0.0709
25900W        W41369  10.293   8.004  12.064  0.2027  0.0894 -0.1413
25901W        W41370   5.313   9.555   0.550 -0.0611 -0.0341 -0.1927
25902W        W41371  14.815   9.175   0.238 -0.0258 -0.0018 -0.0909
25903W        W41372   2.971   8.269   3.205 -0.2845  0.2726  0.0739
25904W        W41373   9.938  16.515  12.335 -0.5487  0.2293 -0.1420
25905W        W41374   9.704  12.667  11.166  0.1636  0.2526 -0.0519
25906W        W41375   5.042  18.129   0.652  0.1183 -0.1478  0.3712
25907W        W41376  13.340   6.514  11.981  0.3447 -0.3069 -0.2254
25908W        W41377  13.086   4.261   1.162  0.1930 -0.1119 -0.2004
25909W        W41378   0.639   0.433   2.934 -0.2143 -0.2429  0.1580
25910W        W41379   9.196   1.524  12.389  0.0170  0.0809 -0.2122
25911W        W41380   7.920  12.259  11.398 -0.0376 -0.0107  0.1172
25912W        W41381  10.918   7.648   3.712 -0.1514  0.2863 -0.3693
25913W        W41382  10.174  11.049   2.081 -0.1272 -0.0455 -0.3894
25914W        W41383  13.317   2.850  12.984  0.0574  0.0571 -0.1812
25915W        W41384   6.309   1.313  11.225 -0.0492  0.0216 -0.0983
25916W        W41385   1.124  14.693  12.855 -0.1119 -0.1880  0.1283
25917W        W41386   7.050   1.912  13.592 -0.3324  0.0322  0.0803
25918W        W41387   1.880  11.436   3.947 -0.1258  0.2051 -0.2915
25919W        W41388   4.486   2.865   4.785 -0.3647 -0.0080 -0.1048
25920W        W41389   1.925  18.550  12.895  0.3502  0.2053 -0.0696
25921W        W41390  16.018  18.895   4.193  0.1725  0.1114  0.1973
25922W        W41391  14.339   9.144   2.361 -0.2263  0.2094  0.2341
25923W        W41392  11.515   7.161  14.021  0.0157 -0.0122 -0.1477
25924W        W41393   8.008  11.204   0.385  0.3210  0.0184  0.3246
25925W        W41394   3.396  14.694   4.170  0.0659  0.1403 -0.0874
25926W        W41395   2.690   0.332   0.484 -0.0195 -0.4687 -0.1382
25927W        W41396  13.573   6.641   1.642 -0.2354 -0.3088  0.0944
25928W        W41397  13.789  15.219   2.626 -0.5343 -0.2495 -0.0387
25929W        W41398   5.938  11.284   1.373 -0.3773 -0.3147  0.1875
25930W        W41399   2.129  14.188   5.403  0.0550 -0.0784 -0.0780
25931W        W41400   0.628   5.088   2.186  0.0413 -0.2624 -0.0451
25932W        W41401   9.997  11.837  11.511 -0.1779 -0.0478 -0.1365
25933W        W41402  17.063  12.665   1.302  0.0256  0.0318 -0.0140
25934W        W41403  11.244   9.093   4.636  0.0531  0.2401 -0.0615
25935W        W41404  15.113  12.050   3.212  0.1522  0.2382  0.0700
25936W        W41405  12.221  12.241   2.509 -0.1156 -0.0131 -0.0006
25937W        W41406  12.023   3.084   1.783 -0.0810 -0.1453  0.1322
25938W        W41407  10.658  15.899  11.309  0.0693 -0.1103  0.0823
25939W        W41408  15.116  18.319  12.212  0.0631 -0.3123  0.0578
25940W        W41409   0.316  18.796   0.759 -0.0453 -0.0911  0.2003
25941W        W41410   0.821  13.080   1.419  0.1061  0.1102  0.0940
25942W        W41411   7.556  14.530   0.725 -0.3283  0.2856  0.1862
25943W        W41412  13.533  12.824   0.893  0.3446 -0.0820  0.1349
25944W        W41413   0.973   0.271   2.565 -0.0405  0.1279 -0.1445
25945W        W41414  15.830   9.130  11.331  0.2034  0.0850 -0.1363
25946W        W41415   4.015  13.550  14.205 -0.2180  0.2279 -0.2308
25947W        W41416  14.115  18.167  10.736 -0.0538  0.0619  0.1398
25948W        W41417  17.114  14.955   1.072 -0.0366 -0.1871 -0.2330
25949W        W41418  12.747   5.506  10.960 -0.2061  0.0235  0.3132
25950W        W41419   0.327  12.314  14.552 -0.0532  0.1455 -0.3715
25951W        W41420  18.351  10.729  14.043 -0.2592 -0.1063  0.1054
25952W        W41421  15.584   4.179  11.752  0.3046 -0.0018  0.1835
25953W        W41422   0.015   2.847  15.189 -0.0768  0.3115  0.1053
25954W        W41423   9.339   7.927   0.986 -0.0002 -0.1407 -0.0612
25955W        W41424   6.523  18.155   4.425 -0.0569 -0.0354  0.2337
25956W        W41425   4.170  11.097  12.420 -0.0889 -0.0123 -0.1958
25957W        W41426  16.260   4.121  15.226  0.1061  0.4156 -0.3277
25958W        W41427   6.393   8.105  12.707  0.1905  0.2430  0.1372
25959W        W41428  13.105  16.461   1.713  0.1376  0.0170  0.2209
25960W        W41429   1.374   4.108  14.870 -0.0870 -0.0450  0.1098
25961W        W41430  14.154  18.718  14.307 -0.1049  0.0510 -0.0562
25962W        W41431   4.425  14.511  12.411  0.3171  0.2091 -0.1542
25963W        W41432   7.439  12.180   5.165 -0.0344 -0.2400  0.0677
25964W        W41433   2.930   9.515  12.238  0.0209  0.1172 -0.0803
25965W        W41434  16.571   0.302   3.613  0.2683 -0.2711  0.1351
25966W        W41435  17.121   2.903  13.610 -0.1649 -0.2416 -0.0175
25967W        W41436   8.108  12.626   1.756 -0.1180  0.0256  0.3056
25968W        W41437  14.650   2.246   3.133  0.0713 -0.0731 -0.3590
25969W        W41438   2.027   2.998  15.123  0.0795 -0.0326 -0.0955
25970W        W41439  10.914  13.513  12.448  0.0856 -0.1846 -0.0211
25971W        W41440  10.595  14.791  11.224 -0.0454  0.1335  0.1916
25972W        W41441   5.656   2.599  12.673  0.0685 -0.1963 -0.1123
25973W        W41442   7.651   9.819   4.232 -0.2348 -0.0232 -0.3634
25974W        W41443  10.303   6.426   0.330 -0.0945  0.1156 -0.0447
25975W        W41444   9.792  10.039  12.268  0.2692  0.2876 -0.0299
25976W        W41445  16.853   7.157  13.178  0.0254 -0.0779  0.1951
25977W        W41446  17.595   7.731  13.486 -0.2537  0.3911  0.4270
25978W        W41447   3.362   3.830  11.731 -0.1195 -0.2939 -0.2492
25979W        W41448  13.647  15.605  14.991  0.2395 -0.0400 -0.4859
25980W        W41449   6.656   9.627   1.628 -0.2223 -0.1851 -0.0599
25981W        W41450  11.229  13.079  13.147 -0.2961 -0.1548 -0.2049
25982W        W41451   3.138  14.836   1.031  0.0415  0.0269  0.1867
25983W        W41452  17.443  17.020  13.357  0.0764  0.2777  0.1444
25984W        W41453   6.437   7.066  10.768  0.2230  0.2129  0.0683
25985W        W41454   0.675  11.376   4.362 -0.0831  0.3110 -0.1287
25986W        W41455  12.507  16.735  13.526 -0.0023  0.0104 -0.0041
25987W        W41456  12.364   6.245   4.939  0.1583 -0.1723 -0.1055
25988W        W41457   9.356  14.299  15.149 -0.0360 -0.1618  0.0128
25989W        W41458  13.912  11.530  12.203 -0.3037  0.4556  0.0160
25990W        W41459   6.980   5.304   4.058  0.2497  0.1855 -0.2685
25991W        W41460   1.188  10.905   9.720  0.1674  0.1631 -0.1031
25992W        W41461  15.350   7.076   9.890  0.2636  0.2349  0.0354
25993W        W41462  18.452  13.476   1.966  0.2837 -0.2265  0.2080
25994W        W41463   0.430   3.281   2.031 -0.1611 -0.0671 -0.1291
25995W        W41464   8.489   0.238   2.310  0.1059  0.0131  0.0998
25996W        W41465   7.392   1.632   2.090 -0.1121 -0.2400 -0.0278
25997W        W41466  16.596   2.984   3.242 -0.2949 -0.1006  0.0741
25998W        W41467   5.832   0.454   3.121  0.3593 -0.0564 -0.0028
25999W        W41468  18.294   6.686  14.936 -0.3102 -0.1769 -0.0008
26000W        W41469  14.843  12.871   0.705  0.1415 -0.2850  0.3371
26001W        W41470  10.804  12.628  14.687  0.1571  0.2551  0.0089
26002W        W41471   2.187   9.353   1.565  0.1906 -0.5426  0.0132
26003W        W41472  13.165  18.706  11.754  0.0289  0.2630 -0.0898
26004W        W41473   5.211  13.861  11.499 -0.0742 -0.2565  0.3184
26005W        W41474   3.036  17.246  11.728 -0.1634 -0.0351  0.1070
26006W        W41475   2.095  16.377  14.561  0.0954  0.0009 -0.1753
26007W        W41476   2.600   5.224   2.377  0.1908  0.3109 -0.0854
26008W        W41477  15.604  16.930  11.686  0.1020  0.3446  0.1011
26009W        W41478   8.506  10.347  12.399 -0.4966  0.0401 -0.2121
26010W        W41479   7.091   4.654  12.129 -0.2144 -0.1614 -0.1236
26011W        W41480  14.139  10.532   3.515  0.1627  0.2290 -0.1296
26012W        W41481   9.151   7.821  11.072 -0.1946  0.1935  0.3583
26013W        W41482   3.302  15.411  12.934  0.0140  0.2074 -0.1830
26014W        W41483   0.195   9.731   3.179 -0.2037 -0.0927  0.2629
26015W        W41484  15.084  18.205   4.736 -0.2209 -0.0520  0.0541
26016W        W41485  12.247  14.340  13.086  0.2151 -0.0347 -0.2096
26017W        W41486   2.400   1.982   1.795  0.1458 -0.0738  0.0474
26018W        W41487   4.964   9.260  13.798  0.0618  0.4901  0.2126
26019W        W41488   0.493  11.228   1.727  0.0247 -0.0818 -0.0871
26020W        W41489  16.858   8.989  11.769  0.1972 -0.2860  0.5091
26021W        W41490   6.017   0.611  11.398 -0.0860 -0.1026  0.1956
26022W        W41491  12.408   8.788   4.541 -0.1526  0.2469  0.3891
26023W        W41492   3.874   0.578   1.761 -0.0509 -0.0689 -0.1018
26024W        W41493  10.950  16.602   4.268 -0.1635  0.0088 -0.0176
26025W        W41494  13.117   8.814   3.501 -0.2438 -0.0668 -0.1240
26026W        W41495  17.527  13.019   1.310  0.0316  0.1413 -0.0802
26027W        W41496  10.136  18.062   4.021  0.1822  0.2732 -0.1656
26028W        W41497  17.913   9.647   1.808  0.1647  0.2636  0.1839
26029W        W41498   4.748  12.924   3.105  0.1113 -0.1317  0.3344
26030W        W41499  13.440   4.456  13.139 -0.0928  0.1749 -0.1027
26031W        W41500  18.725   1.863   1.239  0.0440 -0.0529 -0.0744
26032W        W41501  15.205   3.986   3.438 -0.2885  0.2832 -0.0486
26033W        W41502  17.460  16.914  11.158  0.1126 -0.2383  0.0099
26034W        W41503  14.235   0.141  12.710 -0.2005 -0.1951 -0.5431
26035W        W41504   4.183   3.123  12.502  0.1751 -0.4736  0.0697
26036W        W41505  15.403  13.944   5.096  0.1018 -0.4722  0.1363
26037W        W41506   1.694   6.925   0.962  0.1359  0.1703 -0.2352
26038W        W41507  18.399  11.746  13.857 -0.1715 -0.2263 -0.0820
26039W        W41508  11.098  17.351  14.158 -0.4406  0.2216  0.0599
26040W        W41509  18.719  14.604  12.911  0.0275 -0.0223 -0.0550
26041W        W41510   1.062  12.454   3.147  0.2177 -0.0166  0.3007
26042W        W41511  18.989   9.122  12.152 -0.0064 -0.2177  0.0003
26043W        W41512   2.475  18.126  14.052 -0.1476  0.0788 -0.0760
26044W        W41513   5.270  11.757   2.390 -0.1118  0.0104 -0.0762
26045W        W41514   2.352   6.428   2.072 -0.0142 -0.1000 -0.2754
26046W        W41515  16.765  10.293   0.804  0.2929 -0.0263 -0.1654
26047W        W41516   5.216   0.073   1.516  0.0783 -0.1395  0.1076
26048W        W41517   3.224   1.138   0.201 -0.1592  0.1355 -0.1848
26049W        W41518  13.046  13.175   4.296  0.0242 -0.2933  0.0842
26050W        W41519  11.201   7.680   9.247  0.2456  0.0372 -0.1057
26051W        W41520  13.183   5.145   0.457 -0.0351  0.2894  0.1155
26052W        W41521  18.173  14.546  10.424 -0.1322 -0.2078  0.5318
26053W        W41522  15.333   1.061   4.560 -0.1185 -0.3631 -0.0684
26054W        W41523   5.220   1.068   1.873 -0.3801  0.2916 -0.0788
26055W        W41524   9.124  13.233  14.226  0.1269 -0.0751 -0.2945
26056W        W41525  11.805  17.588  13.048  0.0710 -0.0977  0.3262
26057W        W41526   4.849   6.362   0.756  0.0117 -0.0548 -0.2721
26058W        W41527  13.668  15.543   3.164  0.0179  0.0839 -0.0196
26059W        W41528  10.697  14.027   4.482 -0.1170  0.0795  0.0650
26060W        W41529  15.074   6.725   3.740  0.0254 -0.1355  0.2921
26061W        W41530  13.544   1.349   2.978  0.0274 -0.3107  0.1813
26062W        W41531  15.846  16.273  10.230  0.4417 -0.1123 -0.0217
26063W        W41532  14.871  18.096   3.119  0.2335  0.1608 -0.0200
26064W        W41533   4.576  17.845   0.954 -0.1154 -0.3841 -0.2509
26065W        W41534  12.688  17.311  11.970 -0.0504 -0.1150  0.1470
26066W        W41535  16.671  18.587  13.087  0.1957  0.1900  0.0585
26067W        W41536  11.610   6.974   1.399 -0.1055 -0.3442  0.1142
26068W        W41537  13.059  15.156  15.029 -0.0864  0.0333 -0.0933
26069W        W41538   8.248   4.718  12.134  0.2901 -0.1135  0.0498
26070W        W41539  10.352   3.216   0.542 -0.2476 -0.0584  0.1418
26071W        W41540   5.976  11.301   1.864  0.0163 -0.0754 -0.0543
26072W        W41541   9.598   2.870  13.853 -0.0668  0.0205 -0.0372
26073W        W41542  12.411   7.575  14.348 -0.3317  0.3796 -0.3239
26074W        W41543  13.486  18.362  13.221 -0.1326  0.2582  0.0631
26075W        W41544  18.378   0.264   0.801 -0.0596 -0.1994  0.2306
26076W        W41545   3.133   8.101   2.312 -0.2445  0.1599 -0.1517
26077W        W41546   7.262   6.696  10.477 -0.1011  0.3193  0.0284
26078W        W41547  12.663   1.565  11.670  0.0908 -0.5240 -0.1373
26079W        W41548  17.397   2.672   2.263  0.1451 -0.1729 -0.0315
26080W        W41549   7.588  13.676   3.482 -0.2268  0.2611 -0.3326
26081W        W41550   9.765   0.885   4.365  0.1096 -0.1849  0.0154
26082W        W41551  12.522   4.733   0.404 -0.0192 -0.0919  0.0687
26083W        W41552  10.919   0.363  14.839  0.2254 -0.1441  0.2874
26084W        W41553  15.914  14.040   5.236 -0.1405 -0.3844  0.0705
26085W        W41554   4.123  13.209   3.944  0.2035  0.2349  0.0150
26086W        W41555   9.513  11.679  11.592  0.0213  0.0238  0.4192
26087W        W41556  13.546   8.642   5.791 -0.0066  0.1347  0.2164
26088W        W41557   8.290   4.447  11.607  0.3276 -0.0231  0.0545
26089W        W41558  18.094   3.007  13.557  0.3114  0.0136 -0.0873
26090W        W41559  14.091   4.822  13.875  0.0070  0.5415  0.2079
26091W        W41560   4.994   6.136   5.927  0.0629  0.1342  0.1582
26092W        W41561   4.830   0.631  13.544  0.2394  0.0914 -0.0639
26093W        W41562   0.222   0.575   2.174 -0.4200  0.0200 -0.1259
26094W        W41563   7.362  18.356  10.974 -0.3546 -0.3443 -0.1269
26095W        W41564  15.990   9.787  15.059  0.1916  0.1385 -0.2779
26096W        W41565  13.618   1.919  14.386  0.2140 -0.0116 -0.0131
26097W        W41566  17.861   9.905  11.433  0.2378  0.1427 -0.0456
26098W        W41567  16.654  11.189  10.858  0.1447 -0.0617 -0.4855
26099W        W41568   4.117   9.095   4.381 -0.1627  0.1476 -0.0552
26100W        W41569   9.890  13.948   4.130  0.0549 -0.1784 -0.3457
26101W        W41570  10.950  12.733  14.232 -0.0104  0.1702 -0.4747
26102W        W41571  10.849   1.143   4.790 -0.1013 -0.0121  0.2675
26103W        W41572   5.347  14.281  14.813 -0.1053  0.0995  0.2254
26104W        W41573  13.399  15.234   1.245  0.0985  0.0483 -0.0460
26105W        W41574   0.314   6.668  10.853  0.2559 -0.1598  0.1149
26106W        W41575   4.873   5.509   0.403  0.3031 -0.3399 -0.0718
26107W        W41576  14.025   8.277   0.557 -0.3314  0.1041  0.0687
26108W        W41577  18.136   2.726   3.381  0.2909  0.0796  0.3522
26109W        W41578  10.471  11.089  13.531  0.1842  0.5209 -0.0186
26110W        W41579  17.795   2.089   1.078 -0.1843  0.4282 -0.0504
26111W        W41580  18.196  10.050   4.587  0.0755  0.1383 -0.1214
26112W        W41581   5.278  15.141  14.032  0.0895 -0.0421  0.1605
26113W        W41582   0.398  15.088  10.881  0.0347  0.2490 -0.0859
26114W        W41583   8.883  15.821   1.950  0.2202 -0.0645  0.1286
26115W        W41584  12.883   0.171  13.554  0.0367  0.1140 -0.4298
26116W        W41585  12.367  18.856   0.442  0.1267  0.3511 -0.1027
26117W        W41586   4.619  16.548   2.000 -0.0331 -0.0963 -0.0498
26118W        W41587   4.130   8.198   2.399  0.0647 -0.1424 -0.0113
26119W        W41588  12.072  11.871   3.251 -0.0654  0.1012 -0.1270
26120W        W41589   8.651   4.403  12.040 -0.1480  0.1022 -0.1129
26121W        W41590   3.820  18.376   2.015 -0.0400  0.2969  0.0943
26122W        W41591  17.208   5.109   0.732  0.1607  0.2754  0.1767
26123W        W41592   1.603  10.168  12.015  0.4385  0.1557 -0.1322
26124W        W41593  18.134  17.775  11.522  0.0786  0.1148 -0.0202
26125W        W41594   7.785   6.769  15.151  0.0617 -0.1225 -0.1301
26126W        W41595  17.740   6.695   0.402  0.2782  0.0152  0.0895
26127W        W41596   3.759  11.489   5.111  0.1077 -0.1696  0.4268
26128W        W41597  10.661   3.741  13.772 -0.1060  0.0910  0.1792
26129W        W41598   3.398  10.669   9.524 -0.0125  0.0395  0.0493
26130W        W41599   3.175  13.608  14.150 -0.0685  0.0383  0.3097
26131W        W41600  13.640  13.547  12.462  0.0145 -0.5088 -0.3385
26132W        W41601  16.474  10.092  10.732  0.2040 -0.2176  0.1840
26133W        W41602   4.879   7.316  13.970 -0.1648 -0.2804 -0.0857
26134W        W41603  17.160  14.730   0.561 -0.3278 -0.2820  0.1429
26135W        W41604  11.319  12.410   4.532 -0.1322 -0.0992  0.0036
26136W        W41605   4.486   6.750   1.051  0.2265  0.2056  0.0495
26137W        W41606   7.267  16.620  10.124  0.0644 -0.1222 -0.1354
26138W        W41607  14.837  16.581  14.774  0.0415  0.0821 -0.1100
26139W        W41608  11.171   8.803  14.983  0.1678 -0.2359 -0.1284
26140W        W41609   8.449  12.931  14.516  0.1544 -0.1678 -0.1575
26141W        W41610  12.695   8.743   3.219  0.2167  0.0751  0.3318
26142W        W41611   3.881   2.215  12.984  0.0342  0.1151 -0.0469
26143W        W41612   7.195   5.155   3.330  0.0855  0.0265  0.0613
26144W        W41613  16.713  12.675  14.084  0.3068  0.1177 -0.1216
26145W        W41614   5.328  15.866   0.234  0.0232  0.0791  0.2628
26146W        W41615  15.161  12.439   3.562 -0.1866  0.0921 -0.1196
26147W        W41616   8.626  15.517   1.597  0.0553  0.0455  0.1843
26148W        W41617   0.644  13.103  11.514 -0.1554 -0.2780 -0.2176
26149W        W41618   3.900  14.992   5.548 -0.2148 -0.0347 -0.3235
26150W        W41619  11.734   5.009  11.943 -0.0958 -0.0086 -0.2060
26151W        W41620   6.229  17.828  11.212  0.1678 -0.1043 -0.1327
26152W        W41621   3.108   2.363  11.180  0.1671  0.2628  0.0782
26153W        W41622  18.241  11.455  11.156 -0.1845  0.1514 -0.3903
26154W        W41623  18.362  12.264  12.574  0.0507 -0.1124  0.0187
26155W        W41624   2.949  18.173   3.511 -0.0272  0.3283  0.0679
26156W        W41625  16.111  18.503   4.769 -0.0696 -0.1389 -0.0003
26157W        W41626   7.025   5.778  11.374  0.0564  0.0767 -0.0013
26158W        W41627   0.622   9.061   2.510 -0.0724  0.4089  0.0628
26159W        W41628   5.456   6.948  13.006 -0.4338  0.2724 -0.0924
26160W        W41629  15.231   1.638   0.818  0.1407 -0.2392  0.1483
26161W        W41630  12.840   2.593  13.903  0.1421 -0.1594  0.0174
26162W        W41631  10.351   2.119   2.981 -0.3376  0.3942 -0.3139
26163W        W41632   8.673   6.629   0.631  0.0294  0.0552  0.0342
26164W        W41633   8.560  15.996  12.208 -0.1687 -0.0869 -0.1632
26165W        W41634   8.340   9.568   5.319  0.2932 -0.0859 -0.0092
26166W        W41635   0.053   6.942   4.024  0.1238 -0.2422 -0.1165
26167W        W41636   6.498  19.018  11.960 -0.1600 -0.2347  0.2774
26168W        W41637  15.375   7.010  12.901 -0.1798  0.2246  0.2450
26169W        W41638  18.024   7.668   1.526 -0.0371 -0.2036 -0.2168
26170W        W41639  14.109  13.620  12.717  0.1153 -0.0226 -0.2399
26171W        W41640   3.834   0.944  13.529 -0.2370 -0.1035 -0.1240
26172W        W41641  10.713   7.345  13.204 -0.2125  0.0554  0.1339
26173W        W41642   0.804  13.490  14.329 -0.4044 -0.0912  0.1717
26174W        W41643   0.133  14.129  13.921  0.0685 -0.2164 -0.0396
26175W        W41644  12.107  14.919  14.002 -0.0052  0.0146 -0.2681
26176W        W41645  12.009  18.378  10.227  0.3961 -0.3085  0.0265
26177W        W41646  14.697  15.798  13.870  0.0337  0.1409 -0.0148
26178W        W41647   0.574  12.866   4.481  0.0110  0.0920  0.0142
26179W        W41648  12.318  10.497   1.303  0.0720 -0.0051  0.1365
26180W        W41649   0.259   1.725  14.194 -0.0249  0.1772  0.1486
26181W        W41650  13.425   2.275  12.078  0.0925  0.0855 -0.1250
26182W        W41651   6.522  17.762  13.112 -0.0276  0.1388  0.0736
26183W        W41652   8.530   6.219  11.705  0.0072  0.0617  0.1458
26184W        W41653  18.526  15.336   4.752  0.1290 -0.0797 -0.3321
26185W        W41654  10.582   1.291   1.115 -0.0074  0.2576 -0.3901
26186W        W41655   6.118   1.355   0.963 -0.0668 -0.1007 -0.0415
26187W        W41656  10.535   7.363   2.222  0.2469 -0.3158  0.0194
26188W        W41657   5.091  12.970  11.059  0.3628  0.1503 -0.0692
26189W        W41658   8.770  12.689   1.613 -0.1633 -0.0991 -0.0843
26190W        W41659   5.902  15.296   5.317 -0.3787 -0.1912  0.0123
26191W        W41660   7.231   8.398   3.026 -0.2418  0.1922  0.0945
26192W        W41661  17.497   0.045   2.226 -0.1630 -0.1305  0.0326
26193W        W41662  18.708  13.317  13.061  0.0210 -0.0427  0.1625
26194W        W41663  18.568  16.554  11.988  0.3288 -0.3412  0.0445
26195W        W41664   0.005  12.977   4.692 -0.0618  0.1195  0.2541
26196W        W41665  10.477   6.568  11.219  0.3495 -0.0771 -0.0129
26197W        W41666   7.288  12.076  13.126  0.0015 -0.0406  0.0346
26198W        W41667   5.321  14.298  14.028 -0.0440 -0.0179 -0.2029
26199W        W41668  18.691   1.271   4.059 -0.0169 -0.4962  0.1576
26200W        W41669   0.301  14.930  10.158  0.1455 -0.3068 -0.0175
26201W        W41670  13.805   3.689  13.480 -0.0943 -0.2076 -0.3262
26202W        W41671  16.453  12.009  15.335 -0.2894 -0.2154 -0.2647
26203W        W41672   7.920   3.607  11.770 -0.1109 -0.0635 -0.3312
26204W        W41673  12.233   6.145   3.438  0.0103  0.2733 -0.0464
26205W        W41674  17.279   1.174  10.817 -0.2325  0.2309  0.2775
26206W        W41675   3.898   2.091   4.887 -0.3080  0.1649  0.0520
26207W        W41676   9.646  11.811  14.966  0.1857 -0.0032 -0.1570
26208W        W41677  17.666  13.737   5.389  0.1535 -0.3629 -0.1132
26209W        W41678   1.761   4.502   1.005 -0.1762 -0.0692  0.2777
26210W        W41679   2.918   7.387  10.693 -0.0644 -0.2072  0.1604
26211W        W41680   6.492  11.515  12.897  0.0895  0.3017  0.2898
26212W        W41681   2.070  14.642   1.252 -0.0907  0.2408  0.1013
26213W        W41682  16.060  15.343   2.176 -0.0127 -0.0862 -0.1963
26214W        W41683   0.785   9.996   4.909 -0.0625 -0.1668 -0.1703
26215W        W41684  18.939  11.903   0.473  0.1900  0.1832 -0.1016
26216W        W41685  11.760  12.177   5.019 -0.2028  0.0016 -0.0201
26217W        W41686   4.322   3.009  14.844 -0.1288  0.0375  0.5752
26218W        W41687   8.940   1.732   3.866  0.1303 -0.1373 -0.0723
26219W        W41688  18.198  18.303   4.361  0.1001 -0.0431 -0.0149
26220W        W41689   1.232   9.597   5.011  0.0328 -0.1009  0.1621
26221W        W41690  18.876  12.424   0.758  0.0920 -0.1413  0.1565
26222W        W41691   7.512  11.921  13.546  0.1497 -0.0044 -0.2806
26223W        W41692   0.683  12.401  12.098  0.1711  0.0475 -0.5747
26224W        W41693  15.344  16.239   0.504 -0.0251  0.1856  0.3496
26225W        W41694  16.322  17.977   0.920 -0.0746  0.0644 -0.1408
26226W        W41695   8.566   2.580   3.915  0.2828 -0.2800 -0.0333
26227W        W41696  18.068   9.145  15.093 -0.1177  0.1324  0.1331
26228W        W41697   4.230   4.997  15.325 -0.0203  0.0613  0.1087
26229W        W41698  10.313  17.670   2.009 -0.1785 -0.2746  0.1745
26230W        W41699   4.186   2.357   1.465 -0.1841  0.0458  0.1083
26231W        W41700   0.818   8.494  10.797  0.1845 -0.0925 -0.0375
26232W        W41701   8.584   5.757   4.595  0.4156 -0.1144  0.0235
26233W        W41702   6.027  15.919  11.653  0.1995  0.1470 -0.1695
26234W        W41703   1.622  17.502  15.350  0.2059  0.1054  0.0136
26235W        W41704   7.255   7.944  11.445  0.1776 -0.1435  0.0856
26236W        W41705  17.765  18.555  14.955 -0.2185 -0.0506  0.2027
26237W        W41706   1.749  14.203   5.072 -0.0149 -0.0368  0.0405
26238W        W41707   2.742  15.728  12.418  0.2572 -0.3379  0.4420
26239W        W41708  17.318   5.122  11.142 -0.0902  0.0201 -0.3358
26240W        W41709   1.894  14.707  12.918  0.3324 -0.2937 -0.2155
26241W        W41710   0.325   5.546   4.876 -0.1264 -0.0962  0.1251
26242W        W41711   8.194   7.601   4.750 -0.1638 -0.0523  0.3298
26243W        W41712   8.662   8.031  11.027 -0.0698  0.0978  0.0189
26244W        W41713  18.742   2.554   1.775 -0.2857  0.0096  0.4715
26245W        W41714   3.261   1.598  13.824  0.1690 -0.0608 -0.1568
26246W        W41715  10.002  16.971  12.046 -0.0609  0.0415 -0.3579
26247W        W41716   1.579   7.464  10.998 -0.1992  0.1325  0.2557
26248W        W41717   7.430   6.085   0.141 -0.0363 -0.1433 -0.2688
26249W        W41718   8.231  12.154   3.403  0.1668  0.0388 -0.2593
26250W        W41719   1.373  16.291  13.555  0.2939  0.2757  0.0449
26251W        W41720   0.596   2.551   4.728  0.0046 -0.2113 -0.1111
26252W        W41721  11.415   5.318   4.397 -0.1277 -0.1096 -0.1036
26253W        W41722   7.629  10.441   2.201 -0.0084  0.1489  0.3780
26254W        W41723  11.207  14.766  14.365 -0.3562 -0.3095  0.2402
26255W        W41724   0.060   7.513   4.026  0.3265  0.2288 -0.2138
26256W        W41725  10.066  13.100  15.339  0.0915  0.0438 -0.0503
26257W        W41726  10.392   4.575  14.056  0.2101 -0.4264 -0.1366
26258W        W41727  12.449   2.263   2.742 -0.0350 -0.2172  0.0681
26259W        W41728   4.304  14.014   1.545 -0.2045 -0.0626  0.2973
26260W        W41729   2.576  16.996  10.950 -0.0986 -0.0688 -0.2172
26261W        W41730  10.749  17.124   4.234  0.2469  0.2319  0.4292
26262W        W41731  12.249   1.230  13.724  0.0116 -0.0058  0.4124
26263W        W41732  16.370   9.967   3.296  0.1157 -0.0187 -0.1184
26264W        W41733  14.589   4.578   3.546 -0.1646  0.2895 -0.2041
26265W        W41734   3.828   1.399  12.453 -0.5801 -0.1678  0.2013
26266W        W41735   9.344  15.669   6.301  0.0487 -0.2252  0.1145
26267W        W41736  10.061   3.445   5.864  0.0317  0.2841 -0.1734
26268W        W41737   4.901  11.921  10.875 -0.0430  0.2717 -0.0096
26269W        W41738  17.634  16.149  10.410 -0.3331  0.0113  0.2283
26270W        W41739  15.063   5.050   0.586  0.2852  0.1037 -0.1429
26271W        W41740  15.153  15.873  10.826 -0.0884  0.2473 -0.2664
26272W        W41741   4.981  14.756   4.866  0.3194  0.1200 -0.1182
26273W        W41742  13.819  13.171  10.441 -0.0401 -0.2839  0.0495
26274W        W41743  14.314  14.105  10.869  0.0399  0.0228 -0.2561
26275W        W41744   2.984  16.701  10.636 -0.0812 -0.1084 -0.1820
26276W        W41745  10.216   7.644   3.157 -0.0825  0.0795  0.0927
26277W        W41746   2.706  12.983   4.131  0.3393 -0.5732  0.1009
26278W        W41747  18.552  14.427  11.398  0.1332 -0.1474  0.3520
26279W        W41748   6.935  16.748   1.067 -0.1469 -0.0765  0.1779
26280W        W41749   1.523  18.914   2.719 -0.3055  0.2071  0.1037
26281W        W41750  17.490   0.572  11.753  0.1511  0.1702  0.1484
26282W        W41751  14.309  10.043   3.548  0.1029  0.3946  0.0579
26283W        W41752   6.467  17.363   0.277 -0.0690  0.3195 -0.0487
26284W        W41753  17.170  14.355   4.693  0.0437  0.0739 -0.5171
26285W        W41754  12.691   0.785   0.510  0.1013  0.2610 -0.0342
26286W        W41755   9.047  14.262  14.796 -0.0157 -0.3212  0.1413
26287W        W41756   3.087  17.718  14.866  0.1395 -0.2103 -0.1996
26288W        W41757  12.583  10.769   1.733  0.0070  0.3173 -0.1644
26289W        W41758   8.078   1.915   3.421  0.3038 -0.0737  0.5276
26290W        W41759   5.647  14.503  12.479 -0.0953  0.0928  0.1138
26291W        W41760   7.787  13.234   4.511 -0.2583 -0.1791 -0.3429
26292W        W41761  16.849  10.515  13.794 -0.0681  0.0720  0.0277
26293W        W41762  17.668   3.652   4.217  0.0036 -0.0891 -0.2983
26294W        W41763   2.993  14.179  11.417  0.2109  0.3047  0.2102
26295W        W41764   2.708  18.628   9.779 -0.0066  0.0059  0.1757
26296W        W41765  10.089   4.219   3.964 -0.1340 -0.0696  0.2377
26297W        W41766   6.792   9.255   0.254 -0.3606  0.2137 -0.1854
26298W        W41767   3.787   1.781  12.805 -0.1523 -0.3460  0.3587
26299W        W41768  15.237  13.320   1.574  0.1692  0.0654  0.0083
26300W        W41769  16.964  16.204   1.651 -0.1737  0.3051  0.0250
26301W        W41770  17.742  14.031  11.261  0.1635 -0.2863  0.1438
26302W        W41771   2.359   4.574  12.531  0.1842 -0.0244 -0.0489
26303W        W41772   9.234  11.902  13.561 -0.0079  0.2597 -0.1289
26304W        W41773   2.660   7.159  13.596  0.0980 -0.2425 -0.0287
26305W        W41774   8.194   3.209  13.365  0.0900 -0.1999 -0.2438
26306W        W41775  17.234  12.389   3.001 -0.0674 -0.1902  0.1598
26307W        W41776   7.484   3.237  14.983 -0.1911 -0.4681 -0.2727
26308W        W41777  15.081   3.369  15.282 -0.0792 -0.0981 -0.1779
26309W        W41778  18.364   1.758  14.384  0.0694  0.1776 -0.1064
26310W        W41779   1.501   1.271  14.988 -0.2935 -0.0983  0.1149
26311W        W41780   9.335   0.298   0.119  0.1385  0.0494 -0.0655
26312W        W41781  13.754  13.760   2.386 -0.1477 -0.0618 -0.0494
26313W        W41782   5.241  10.591  11.376 -0.0195 -0.2408  0.2561
26314W        W41783   8.870  15.211   5.330  0.1701 -0.1671  0.1450
26315W        W41784   1.681   5.146  14.101  0.4165 -0.0915 -0.0895
26316W        W41785  17.470   3.269   0.349 -0.1768  0.1259 -0.1781
26317W        W41786  18.554  11.246   4.076  0.2532 -0.3772  0.1631
26318W        W41787  13.073   7.077   4.335  0.1463 -0.1660 -0.0414
26319W        W41788   0.518   8.063  15.226 -0.0847 -0.0893 -0.2679
26320W        W41789  18.146   4.995   0.567 -0.0116  0.2032 -0.0458
26321W        W41790  18.222   0.007   3.833  0.0465  0.2698  0.1122
26322W        W41791   5.343  14.796  12.780 -0.1053  0.2203 -0.0189
26323W        W41792  16.095  10.722  11.476 -0.3465 -0.3859  0.0590
26324W        W41793  10.045   1.260   1.341  0.2567 -0.1850 -0.3681
26325W        W41794   4.292   6.504  14.983 -0.2182  0.0860 -0.0986
26326W        W41795  12.576   6.677   1.443 -0.1019  0.0646 -0.1610
26327W        W41796   7.100   8.475   0.985  0.0159 -0.1263  0.1099
26328W        W41797   7.120   2.145  14.302 -0.1011 -0.0462 -0.2536
26329W        W41798   1.133   5.443   0.721 -0.0602  0.1544  0.4585
26330W        W41799  16.397   2.923  12.864 -0.0102 -0.0352  0.2060
26331W        W41800  16.785   9.944  15.144 -0.2735  0.1485  0.1642
26332W        W41801   0.801  11.570   0.219 -0.0398  0.0650  0.0714
26333W        W41802  11.780  12.932  13.234  0.1104 -0.0321 -0.1179
26334W        W41803   6.441   9.785   5.189  0.1255 -0.1364 -0.2605
26335W        W41804  18.013  16.438   5.643  0.2078 -0.1813 -0.2528
26336W        W41805   3.578   3.751  14.852  0.0148 -0.0797  0.1073
26337W        W41806   0.919  11.600  13.369 -0.5542 -0.1158 -0.1150
26338W        W41807  16.337  18.444  14.600 -0.0466 -0.1004  0.0885
26339W        W41808   5.431  17.416   2.390  0.0915  0.1270  0.1267
26340W        W41809  16.367   1.465   4.468  0.0628 -0.1972  0.1714
26341W        W41810  16.341   9.996   2.692  0.2172 -0.2079 -0.2233
26342W        W41811   3.256  11.701   1.640  0.0728 -0.1263 -0.1410
26343W        W41812   4.523  17.848   2.892 -0.2133 -0.1303  0.2822
26344W        W41813   3.922  15.362  10.525 -0.1875 -0.1362 -0.4384
26345W        W41814  11.640   9.564  13.029 -0.2514  0.1164  0.0083
26346W        W41815  12.865   9.458  14.327  0.1799  0.3648  0.0245
26347W        W41816   0.544  14.247   1.326  0.3061  0.1964 -0.0589
26348W        W41817  15.335  13.393  13.368 -0.1755 -0.3162 -0.3186
26349W        W41818  16.287   3.748   4.389 -0.0338 -0.1218 -0.0070
26350W        W41819   1.971   0.727   5.173 -0.1628  0.0959  0.0095
26351W        W41820   8.013  15.387  15.092  0.0710 -0.0762  0.1911
26352W        W41821   0.298  15.183   0.684  0.0021 -0.1105 -0.0668
26353W        W41822  14.171  16.643   4.349 -0.1528  0.1927 -0.4029
26354W        W41823  15.193   7.133   0.947  0.0577  0.1034  0.1054
26355W        W41824  16.551  11.409   1.910  0.0071 -0.2610 -0.2438
26356W        W41825   8.381   7.819   1.432 -0.3924 -0.0871  0.0782
26357W        W41826  18.488   9.486   0.952 -0.1521  0.0802 -0.0305
26358W        W41827   2.072   8.367   4.696  0.0515 -0.2517 -0.2709
26359W        W41828   8.301   2.360  15.361  0.0156 -0.1780 -0.0681
26360W        W41829   8.437   6.288   0.291 -0.0066  0.0142  0.0697
26361W        W41830   7.500   9.793   4.754  0.0874 -0.1273 -0.0189
26362W        W41831   3.898  18.156   4.979 -0.0018  0.0113 -0.2773
26363W        W41832  11.787  15.292  11.349  0.1464 -0.2643  0.2003
26364W        W41833   7.979  16.742   3.568 -0.1302  0.2121  0.1041
26365W        W41834  19.008   0.537   3.710 -0.1312  0.0175  0.0557
26366W        W41835  13.609   5.733  12.248 -0.1089 -0.1968 -0.0626
26367W        W41836   1.846  15.340  10.951 -0.1085 -0.0039 -0.2974
26368W        W41837   4.455   2.085   4.699  0.0511 -0.1694 -0.1795
26369W        W41838  15.973  11.465   1.372  0.0932 -0.1198  0.1663
26370W        W41839  18.198   5.554  12.987 -0.1009 -0.0459  0.0574
26371W        W41840   1.095   0.040   3.123  0.0833  0.0129 -0.1045
26372W        W41841  16.388   8.912  13.649  0.1518  0.3399  0.1886
26373W        W41842   3.296  14.256   1.423  0.0154 -0.0805  0.0163
26374W        W41843  16.693   3.256   2.697 -0.3065  0.0853  0.1789
26375W        W41844  16.693   1.447   0.128  0.2426 -0.0927  0.0941
26376W        W41845  10.533   3.922  12.635  0.2395 -0.1815  0.0818
26377W        W41846   8.226   0.044   4.449  0.1133 -0.0300 -0.0245
26378W        W41847   1.002  14.342   9.312 -0.1107  0.0022 -0.3213
26379W        W41848  15.616   8.496  13.225 -0.2487  0.1939  0.1055
26380W        W41849   5.355  16.573   2.564  0.0724  0.1501  0.0700
26381W        W41850   1.018   1.289  11.025 -0.1732 -0.0594 -0.4778
26382W        W41851  18.875  10.343   0.314  0.1260 -0.2007 -0.0989
26383W        W41852   1.822  15.433  12.034  0.3399 -0.1056  0.3056
26384W        W41853   2.556   7.517   0.301 -0.0942  0.0200 -0.1300
26385W        W41854  11.952  17.706  14.285 -0.0646  0.0876  0.1019
26386W        W41855   8.232   8.603  12.176 -0.3672  0.1781  0.1185
26387W        W41856   7.326  11.131  14.537 -0.2522  0.0791  0.3019
26388W        W41857   6.417   5.230  10.691  0.3745  0.2545 -0.0934
26389W        W41858   8.796  10.915   4.737  0.0729 -0.1189 -0.2485
26390W        W41859  15.054  15.521   5.961  0.0747  0.0088 -0.3512
26391W        W41860   2.574   8.262   3.665  0.2459 -0.0065  0.1463
26392W        W41861   4.942   3.516   3.775  0.2127  0.2027  0.2651
26393W        W41862  13.355  14.324   1.128  0.1188  0.0485 -0.2443
26394W        W41863   1.726   7.527   2.756 -0.1109 -0.0929  0.1875
26395W        W41864   2.590  13.687   2.423  0.2234 -0.2289 -0.0376
26396W        W41865  16.276   8.733   4.124 -0.1794 -0.1079 -0.0992
26397W        W41866  12.942   0.518  13.218  0.0138 -0.1145 -0.1681
26398W        W41867  10.575   0.958   3.713 -0.0950  0.0758 -0.3736
26399W        W41868   6.936   1.479  13.293  0.0860 -0.1592 -0.3599
26400W        W41869  18.223  12.528   4.886 -0.0637  0.0209 -0.3003
26401W        W41870   3.139  15.779   3.405  0.1436  0.0257 -0.0485
26402W        W41871  18.445  12.285  14.512 -0.1545 -0.2979 -0.1371
26403W        W41872   3.425   7.927   4.667  0.0009  0.0283  0.0637
26404W        W41873  14.875   5.555   0.099 -0.1264 -0.0658 -0.0587
26405W        W41874   1.933   5.166  15.338  0.0602 -0.0370 -0.1964
26406W        W41875   6.620  13.600  10.945 -0.1720 -0.3273 -0.3101
26407W        W41876  11.051   0.338   4.664  0.0546  0.0271  0.0599
26408W        W41877   3.889   7.952   0.567  0.0486  0.2191 -0.0969
26409W        W41878   2.655  18.483   3.146  0.2107  0.2173  0.0599
26410W        W41879   2.726  15.678  12.992  0.2156 -0.0029  0.0571
26411W        W41880   7.797  15.177  11.139 -0.1666 -0.0176  0.0485
26412W        W41881  10.384   1.267  14.938 -0.2476 -0.1494  0.1471
26413W        W41882  14.802   3.400  14.403  0.0029 -0.1800 -0.3695
26414W        W41883   4.309   8.943   1.263 -0.1512  0.2581  0.0632
26415W        W41884  18.424   2.341  14.222 -0.0156 -0.0177  0.2133
26416W        W41885   5.526   9.816  14.415 -0.1466 -0.2045 -0.0899
26417W        W41886   5.411  14.567  11.561 -0.0026 -0.0817 -0.2732
26418W        W41887   6.882  13.196   1.019 -0.2137  0.0858 -0.1226
26419W        W41888  10.981   3.085  12.276  0.0816 -0.0611  0.2790
26420W        W41889  14.761  16.665   4.389  0.3771  0.0882 -0.0317
26421W        W41890   5.030   0.741  14.599 -0.3276 -0.1130  0.3330
26422W        W41891   8.996   6.531   9.353  0.0307 -0.0017  0.1833
26423W        W41892  17.659   2.358   0.541 -0.0160  0.1372  0.4527
26424W        W41893  10.946   1.090  10.922  0.1644  0.2581 -0.2098
26425W        W41894   0.300   6.601  10.316  0.1915  0.1160  0.0234
26426W        W41895   3.677  15.073   0.322  0.0169 -0.3229  0.5088
26427W        W41896  13.421   4.319  14.211 -0.1627  0.1237 -0.0179
26428W        W41897   8.883   3.601   5.266 -0.1253 -0.1342  0.1048
26429W        W41898  17.315  10.416   0.516  0.0886  0.1544 -0.0828
26430W        W41899   2.684  18.236  10.976 -0.2482 -0.0377 -0.3791
26431W        W41900  15.820  14.140  11.946  0.1193  0.5825  0.0556
26432W        W41901  15.520  17.972   2.490  0.4430  0.2256  0.2611
26433W        W41902  11.221  11.069   3.799 -0.2705 -0.1316  0.3440
26434W        W41903   7.000  15.565  12.090  0.2034  0.0657 -0.2034
26435W        W41904   5.114   7.151   2.527 -0.2283  0.0908 -0.1780
26436W        W41905  14.360  14.358  12.128  0.2039  0.1363 -0.3929
26437W        W41906   9.195  15.083  13.978 -0.4722 -0.2324 -0.1379
26438W        W41907   8.549   3.175  10.671  0.1040  0.0946 -0.2478
26439W        W41908  13.563  15.129   3.458 -0.0172  0.2245 -0.0810
26440W        W41909   9.332  14.784   2.582 -0.0842 -0.1497  0.1900
26441W        W41910  11.498  18.693  15.066  0.2002  0.2827  0.1378
26442W        W41911   5.246  15.461  11.731 -0.1186  0.0494  0.1194
26443W        W41912  17.869   6.092   1.932 -0.1589 -0.0517 -0.0173
26444W        W41913   5.828  14.677   3.702 -0.2778  0.2268 -0.1523
26445W        W41914   9.188   5.810  14.285 -0.2922  0.0752 -0.1185
26446W        W41915  11.420  16.104  13.225  0.3092 -0.0354  0.2901
26447W        W41916   9.164   7.416  10.421  0.0213 -0.0110  0.3795
26448W        W41917   3.877   1.297  11.554 -0.0379  0.0396 -0.0682
26449W        W41918   6.124   7.355  11.589 -0.2824  0.1271 -0.4397
26450W        W41919   2.069   9.026  13.179  0.0283 -0.2188 -0.2325
26451W        W41920  13.486  12.668   2.540 -0.0751  0.0264 -0.3098
26452W        W41921  12.231   0.312  12.734  0.0311  0.1337 -0.0444
26453W        W41922  16.612  15.472   0.679 -0.1936  0.0651  0.2642
26454W        W41923  15.008  11.997   3.732 -0.2150  0.2052 -0.0813
26455W        W41924   2.872   1.903   0.777  0.1153  0.0573 -0.2526
26456W        W41925  12.859  14.313  13.313 -0.0696  0.3395  0.0262
26457W        W41926  18.366   9.305  12.859  0.0672  0.0164  0.0697
26458W        W41927   0.092  17.285   1.307 -0.0576  0.2009 -0.0279
26459W        W41928   7.502   7.974   5.093 -0.0396 -0.2143  0.0921
26460W        W41929  10.432  14.723  12.730 -0.4100  0.1971 -0.1652
26461W        W41930   0.535  11.345  10.755 -0.1698 -0.0165 -0.1584
26462W        W41931   1.889   4.758   5.040  0.0258 -0.0305 -0.1467
26463W        W41932   6.868  10.199   1.797  0.3661 -0.2476 -0.1839
26464W        W41933  18.805   7.149  11.012  0.1924  0.0366 -0.0749
26465W        W41934   1.889   3.218  11.495 -0.1064 -0.3577 -0.0181
26466W        W41935   0.325   3.851   2.235 -0.2122 -0.1457  0.1218
26467W        W41936   8.559   5.694   2.544 -0.1494 -0.1047 -0.1729
26468W        W41937   5.560  12.571  15.342 -0.3418  0.2256 -0.0904
26469W        W41938  12.978   6.302  11.614 -0.0903 -0.1191  0.1736
26470W        W41939  18.414  14.732  13.246 -0.0894  0.1201  0.0732
26471W        W41940  14.806  16.974   3.707 -0.1189  0.0275 -0.2017
26472W        W41941  16.348   9.926   0.939  0.1655  0.1554 -0.0826
26473W        W41942   8.523  16.479   3.397  0.1366 -0.0432 -0.1679
26474W        W41943  11.633  10.296   3.332 -0.2176 -0.0057 -0.0988
26475W        W41944  14.223   6.207   1.567 -0.3318 -0.0504  0.1073
26476W        W41945  14.356   0.151  14.278 -0.1588  0.2727 -0.0502
26477W        W41946  12.915   2.545   0.308 -0.1704 -0.0897  0.4046
26478W        W41947   0.968   9.414   4.425  0.0772  0.1114  0.0427
26479W        W41948  17.085  13.310   5.059  0.4248  0.0867  0.1745
26480W        W41949  10.636  18.370   3.143 -0.2241  0.0860  0.1324
26481W        W41950   9.720   5.906   3.763 -0.1224 -0.4730 -0.0373
26482W        W41951   5.428   0.741  14.936  0.0543  0.2031  0.2924
26483W        W41952   6.343  10.183   4.241  0.1799  0.2366 -0.1573
26484W        W41953   6.692  15.091   4.793  0.0717  0.2209 -0.0084
26485W        W41954  11.578  15.691  11.666  0.1911  0.0768  0.3046
26486W        W41955   9.042   5.379   5.215  0.1133  0.0871  0.3004
26487W        W41956   1.703   0.556  12.122 -0.0114 -0.0394 -0.1482
26488W        W41957  18.057   4.525   1.479 -0.0167  0.1572 -0.2017
26489W        W41958   5.583   0.593   4.047  0.2162 -0.1353 -0.1996
26490W        W41959  15.886  17.595  14.836 -0.2190 -0.2867  0.0628
26491W        W41960   7.648  10.107  15.018 -0.3014 -0.0790  0.1041
26492W        W41961  10.516   2.993  12.482 -0.2740  0.0135 -0.3386
26493W        W41962   0.412   3.967  14.501 -0.0171 -0.2381 -0.0223
26494W        W41963   2.474  11.127  11.024 -0.2390 -0.1858  0.0577
26495W        W41964   1.027   2.802   2.661  0.0775 -0.1700  0.1841
26496W        W41965   2.926  17.624   2.857  0.0440 -0.3472  0.2914
26497W        W41966  17.554  13.433   0.039 -0.0756 -0.0234  0.0993
26498W        W41967   2.171   8.097  14.088 -0.0687 -0.0165 -0.0043
26499W        W41968  12.668   9.268  10.642 -0.2028  0.0272  0.2593
26500W        W41969   0.123  14.806  12.783 -0.0815 -0.2927 -0.3169
26501W        W41970  12.691  18.409  11.177  0.1759  0.1055 -0.1714
26502W        W41971   1.490  11.637   2.909  0.2709  0.2105 -0.0339
26503W        W41972  17.893  14.346   0.921 -0.3294  0.1214  0.0480
26504W        W41973  12.420  12.867   0.119 -0.0336 -0.1554 -0.0098
26505W        W41974   4.622  14.037  10.444 -0.3318  0.1838 -0.3322
26506W        W41975  18.053  11.759  11.687 -0.0785  0.2019  0.3406
26507W        W41976  18.502   5.255  13.272  0.1109  0.0306  0.0975
26508W        W41977  13.484  18.979   3.538  0.0913  0.0673 -0.0223
26509W        W41978  18.750   8.214  13.314  0.0061  0.2453  0.1792
26510W        W41979   9.561  10.938  13.396 -0.0397  0.2464 -0.1859
26511W        W41980  17.594   5.793   2.620  0.0424 -0.0156  0.1334
26512W        W41981   6.455  16.086   2.370  0.0195 -0.1112 -0.2915
26513W        W41982  16.775   9.669   4.134 -0.1602  0.0976 -0.3603
26514W        W41983   6.571   6.798  10.026  0.0222  0.1668  0.3051
26515W        W41984  15.215  16.645  13.946  0.1091 -0.1192  0.0900
26516W        W41985  16.818   6.599  12.570  0.0032  0.0693  0.0890
26517W        W41986   5.373   3.438   5.160  0.1565 -0.0074  0.0378
26518W        W41987   7.468   0.256  14.886  0.1939  0.0233  0.1954
26519W        W41988  17.071  11.758  13.238 -0.1387  0.1058 -0.1455
26520W        W41989  15.754   2.898   4.373  0.1838  0.3069  0.3015
26521W        W41990  18.228  15.535   1.649 -0.0774  0.0363 -0.0290
26522W        W41991   4.506   5.132  12.903 -0.0270  0.0870  0.1660
26523W        W41992   1.344   9.512  12.810 -0.1599  0.0584 -0.3284
26524W        W41993   3.698  13.187  10.510  0.0244  0.3210 -0.1134
26525W        W41994   6.509  11.393  13.910  0.0958 -0.2262  0.0566
26526W        W41995   6.353   6.323  14.308  0.1466  0.3351 -0.2875
26527W        W41996   1.614   7.763   9.527  0.2586  0.1206  0.2144
26528W        W41997   4.565   7.855  10.679  0.0392 -0.1576 -0.2222
26529W        W41998   3.086  12.011   3.444  0.2070 -0.1166 -0.3022
26530W        W41999   2.343  14.531  15.010  0.0911 -0.0935 -0.0841
26531W        W42000   4.584   8.829   6.070  0.1355  0.2820  0.0892
26532W        W42001   2.099   7.137   2.914 -0.0345  0.1750  0.3235
26533W        W42002   1.112   6.226  12.788  0.0209  0.4596 -0.3028
26534W        W42003   8.595  14.437   2.660 -0.0703 -0.2148 -0.4859
26535W        W42004  12.863  13.667  11.436  0.0686  0.0726  0.1935
26536W        W42005  16.569   2.451  15.083  0.1952 -0.0860  0.3240
26537W        W42006   5.298  18.761  13.845  0.0795 -0.1892  0.1600
26538W        W42007  10.179   3.932  15.268  0.0394  0.2011  0.0733
26539W        W42008  13.572   2.729  11.006 -0.1807 -0.3414 -0.1142
26540W        W42009  18.162   6.149  14.763 -0.0164  0.0094 -0.0992
26541W        W42010  12.024   9.680   4.951  0.1031  0.1452 -0.0641
26542W        W42011  14.321   8.566  12.319  0.0201  0.3362  0.3513
26543W        W42012  12.254  10.756  14.561 -0.0986  0.1918  0.2732
26544W        W42013   2.925   2.142  12.861 -0.3681 -0.0041 -0.0857
26545W        W42014   9.742  16.508   1.710 -0.0620 -0.2691 -0.1547
26546W        W42015  12.405  11.701   4.226  0.0236  0.2630 -0.0697
26547W        W42016  10.025   4.989   0.337 -0.1847 -0.4078 -0.1690
26548W        W42017  16.756  18.781  10.824 -0.0050  0.0237 -0.2872
26549W        W42018  17.529   7.031   1.646  0.0468  0.0360  0.1578
26550W        W42019   5.013  16.353   3.264 -0.2073 -0.3408  0.0038
26551W        W42020  14.803  17.687  10.662  0.0932 -0.2904  0.3486
26552W        W42021  13.369  15.041   4.441  0.1485  0.0310  0.1938
26553W        W42022  13.623  10.641   4.772 -0.0098 -0.1393 -0.1127
26554W        W42023  17.318  17.618  11.169  0.2499  0.1387  0.4280
26555W        W42024   5.822  17.794  10.623  0.1633  0.4366 -0.0810
26556W        W42025  10.636  17.595  13.244 -0.0279 -0.1976 -0.1711
26557W        W42026   1.163   3.030   3.107  0.0906 -0.3167  0.1265
26558W        W42027  13.819   0.788  10.960 -0.0661  0.6442 -0.2662
26559W        W42028  16.279  11.852   0.645 -0.1372 -0.1153  0.4117
26560W        W42029   5.300   0.054   4.307  0.1425  0.1314  0.0575
26561W        W42030   4.609   6.041   4.365 -0.2600  0.0121  0.1598
26562W        W42031  10.308  12.011  13.271  0.0830 -0.2329  0.4059
26563W        W42032   1.117  17.027  11.417  0.3603 -0.0545 -0.1148
26564W        W42033   4.047  15.770  13.536  0.1635  0.2418 -0.2911
26565W        W42034  12.989  18.206  13.163  0.1907  0.0136  0.0203
26566W        W42035  13.894  11.997   3.722  0.0035  0.1101  0.1966
26567W        W42036   6.135  12.970  14.401 -0.3677  0.0048  0.2883
26568W        W42037  15.351  10.042   2.357  0.1011  0.4344 -0.2038
26569W        W42038   0.205  18.103   3.323  0.0761  0.0879 -0.1553
26570W        W42039   0.251  16.810   9.773 -0.0371  0.1393 -0.2137
26571W        W42040   8.818   3.342  15.216  0.1231 -0.0412  0.1823
26572W        W42041   1.264   2.241   2.566  0.0455 -0.0885 -0.0667
26573W        W42042  12.329   5.861   4.479  0.0688 -0.0934 -0.0849
26574W        W42043   0.441  10.372   4.886  0.1706 -0.0947 -0.1555
26575W        W42044  15.677   7.732  13.487  0.0163  0.0679 -0.0326
26576W        W42045  14.969  13.735  14.814  0.0372 -0.0708 -0.2539
26577W        W42046  12.397   9.730  10.790 -0.0988  0.0733  0.0843
26578W        W42047  16.100   8.429   4.661  0.1619  0.1388  0.0022
26579W        W42048  15.599   5.811  11.761  0.4727  0.0736  0.0963
26580W        W42049   2.422   2.871  13.128  0.0980  0.3437 -0.0389
26581W        W42050  13.868   5.152   3.933 -0.1104  0.2079 -0.1056
26582W        W42051   3.128  11.452   2.125 -0.0973 -0.3322 -0.1475
26583W        W42052  10.638  10.254   0.734  0.1820  0.3734  0.1981
26584W        W42053   9.214   8.468  10.631 -0.0816  0.2497 -0.1753
26585W        W42054  10.242   4.894   2.976 -0.1258  0.3021  0.1517
26586W        W42055   1.848  13.272  14.674 -0.0699  0.2010  0.0819
26587W        W42056   3.281   2.410  15.096  0.0314 -0.1932  0.1840
26588W        W42057  15.288   5.510  10.162 -0.1877 -0.3264  0.1906
26589W        W42058   2.207  15.376   3.717  0.0667  0.0919  0.1042
26590W        W42059   1.248   3.823  12.092  0.1838  0.0499 -0.3041
26591W        W42060   1.239  12.216  10.483  0.0361 -0.2213  0.2674
26592W        W42061  18.398   0.434  14.993  0.0951 -0.2274  0.0227
26593W        W42062  14.676   2.120  12.718  0.2311  0.2739  0.0134
26594W        W42063   4.267   9.133   5.294  0.1389 -0.3708  0.0288
26595W        W42064   9.755   6.917   2.735 -0.0312  0.2756  0.3186
26596W        W42065  18.932   6.731   6.014 -0.2174 -0.0825  0.1734
26597W        W42066   5.854  14.661  13.614 -0.0486  0.0213  0.0973
26598W        W42067  15.011  15.569   0.799 -0.0622 -0.0102 -0.1871
26599W        W42068   8.332   1.393   4.572 -0.0911 -0.4430 -0.2275
26600W        W42069  13.038  14.500  15.078  0.0149  0.1069  0.0887
26601W        W42070  12.086  13.151   9.197  0.0860 -0.0125  0.0190
26602W        W42071  11.780  10.959  13.634 -0.0809 -0.2049 -0.1103
26603W        W42072  12.573  16.298  14.322 -0.0775  0.2861 -0.0388
26604W        W42073   6.966   0.208   4.653 -0.1134  0.0846 -0.3382
26605W        W42074  10.990   8.346  11.355  0.0913  0.0439 -0.0206
26606W        W42075   5.265  16.357   9.952  0.2399 -0.0880  0.2002
26607W        W42076  10.277   6.646   1.997  0.1065 -0.3163  0.0071
26608W        W42077   9.433  19.016   0.567 -0.2823 -0.3597  0.2516
26609W        W42078  16.713  14.752   3.666  0.0476  0.1062 -0.3671
26610W        W42079  16.631   1.317  14.728 -0.2731  0.0450 -0.0491
26611W        W42080  14.082   5.650   1.526  0.2862  0.0270  0.0729
26612W        W42081   9.877   7.385   2.312  0.0527  0.0593 -0.0208
26613W        W42082   9.461   6.071   2.892 -0.0647 -0.1174  0.3269
26614W        W42083  16.184   4.983   1.192 -0.1648  0.0492  0.0452
26615W        W42084   4.045  11.017   5.061 -0.2083 -0.1818 -0.1301
26616W        W42085  13.879  14.928  12.535 -0.1419 -0.0923  0.0610
26617W        W42086  18.486   5.985  15.088  0.2912 -0.1565 -0.0298
26618W        W42087   0.123  10.345   0.759 -0.0053  0.1995 -0.2150
26619W        W42088   6.390  13.660   0.437 -0.0563 -0.1765 -0.1407
26620W        W42089  10.168   7.162   1.934  0.2092  0.0915  0.1326
26621W        W42090   9.168  12.022  12.524  0.2051 -0.2235  0.0974
26622W        W42091  10.161   7.887   1.395 -0.2018 -0.0260 -0.1054
26623W        W42092   1.984  19.009   3.617 -0.1324  0.1804 -0.2234
26624W        W42093   6.941   5.342   1.710  0.0576  0.1575 -0.1537
26625W        W42094  17.210  17.633   0.086 -0.2219  0.3254  0.1051
26626W        W42095  16.215   6.598  12.731 -0.1388 -0.0002  0.3700
26627W        W42096   8.302  13.630   4.918 -0.1226  0.0788  0.0943
26628W        W42097  10.349  15.293   4.890  0.0744 -0.0608  0.1994
26629W        W42098   7.176  11.850  11.422 -0.3219  0.0208  0.2640
26630W        W42099   4.274  13.272   0.364  0.2394  0.0093  0.0250
26631W        W42100   9.504   8.197  14.807  0.0745 -0.1264  0.0002
26632W        W42101   9.559  14.805  15.145  0.0546  0.0794 -0.0158
26633W        W42102  11.663   9.558   9.601 -0.0647 -0.0750 -0.3202
26634W        W42103   4.456   5.138   5.211 -0.2420  0.1636 -0.0757
26635W        W42104   1.437   2.459   1.864 -0.1675  0.0256 -0.0203
26636W        W42105  15.474   9.757   3.245 -0.0970  0.1293  0.3502
26637W        W42106   3.700   9.462   3.736  0.0123 -0.2871 -0.3769
26638W        W42107   5.023   2.264  14.330 -0.2681 -0.1783 -0.0072
26639W        W42108   7.588   0.650   3.191  0.5658 -0.4229 -0.2864
26640W        W42109  10.724   5.116  15.173 -0.0747 -0.1310 -0.4231
26641W        W42110  10.855  18.657  10.712  0.3427  0.3497 -0.0905
26642W        W42111  17.795   7.803  15.028 -0.3527 -0.0431 -0.0939
26643W        W42112  14.880  10.848   2.961  0.1872  0.0211  0.1188
26644W        W42113   9.691   3.559   3.384  0.0325 -0.3417  0.1202
26645W        W42114   0.247  10.643  15.174 -0.2722 -0.4220 -0.0334
26646W        W42115   6.448  18.727  12.792 -0.2051 -0.0590 -0.1554
26647W        W42116  12.185   1.979  11.611  0.0647  0.0769 -0.1299
26648W        W42117   8.021   1.511   3.681 -0.1408  0.0213  0.3191
26649W        W42118  10.663  15.487  12.242  0.3973  0.1573  0.1584
26650W        W42119   3.660  18.965   0.799 -0.2542 -0.2543  0.0364
26651W        W42120  11.838  17.223  14.745  0.2488  0.1478 -0.1647
26652W        W42121   7.216   1.416   5.452  0.0764 -0.0470 -0.1057
26653W        W42122   1.041   2.792   0.932  0.1407  0.2428 -0.3452
26654W        W42123  17.242   7.140   3.388  0.0459 -0.0325 -0.0361
26655W        W42124   4.673  14.223   4.001  0.2249  0.4852  0.3472
26656W        W42125  14.305   9.183  10.116  0.2170 -0.0202 -0.3768
26657W        W42126   9.774  12.659  12.703 -0.1069 -0.0641  0.2009
26658W        W42127  10.902  15.936  12.278  0.1386  0.0434 -0.2021
26659W        W42128  12.747  17.696   1.548  0.3286 -0.0774  0.1473
26660W        W42129   9.428  15.210  11.489 -0.1731 -0.1469 -0.0147
26661W        W42130   8.581   4.154  11.091  0.0942 -0.2542 -0.0325
26662W        W42131   7.633   5.711  10.662 -0.0300  0.1403 -0.0789
26663W        W42132   5.200  18.455  14.817 -0.1343 -0.0344 -0.2071
26664W        W42133  13.886  10.675   0.320 -0.1230  0.0381  0.2726
26665W        W42134   2.135   0.268   1.673  0.2067  0.1107  0.0413
26666W        W42135   3.728  11.033   4.174  0.1865  0.2851 -0.0753
26667W        W42136  13.672  14.807  13.229  0.1318 -0.2025 -0.0160
26668W        W42137   6.409  15.849   5.895 -0.2596  0.0440 -0.3402
26669W        W42138   0.064  17.498  13.837  0.1149 -0.0987  0.1299
26670W        W42139  15.456   1.036   3.725 -0.1287  0.2755  0.1773
26671W        W42140  11.222   9.993   3.456 -0.1960  0.0208 -0.0599
26672W        W42141  13.586  18.480  11.905  0.3167 -0.1010 -0.0148
26673W        W42142   2.307  13.389   4.896  0.2387 -0.0137  0.1128
26674W        W42143   1.971  14.978   4.562 -0.2220 -0.5459  0.3151
26675W        W42144  17.691  14.909   5.070 -0.1196  0.0119  0.3263
26676W        W42145   5.599   9.260   0.831  0.2102 -0.0145  0.0491
26677W        W42146  15.898   1.477  15.219  0.1505  0.1129 -0.1233
26678W        W42147   6.100   4.633   2.421 -0.0546  0.1419 -0.1905
26679W        W42148  14.709  13.295   3.837 -0.0592  0.3055 -0.0737
26680W        W42149  11.103   0.518   2.929  0.4295 -0.1317 -0.1156
26681W        W42150   7.298  16.623   0.116  0.2102 -0.1885  0.0990
26682W        W42151   6.437  12.457  14.718 -0.2656  0.1936 -0.3287
26683W        W42152   3.638  11.598   9.608 -0.1303  0.0745 -0.1103
26684W        W42153  12.286   7.826  15.339 -0.0479  0.1579 -0.1653
26685W        W42154  11.973   7.859   2.517 -0.0526  0.2109 -0.0443
26686W        W42155   9.278   3.245  10.923 -0.2169  0.3794  0.0587
26687W        W42156  17.146  11.419   4.627  0.0406 -0.0991  0.0245
26688W        W42157  15.366   2.967   9.730  0.0012  0.1635 -0.2492
26689W        W42158  15.570   0.818  13.720  0.0197 -0.3134  0.1561
26690W        W42159  14.654   3.554  11.214 -0.2667 -0.0855 -0.2242
26691W        W42160   2.962   6.149  10.718  0.5409 -0.0418 -0.2084
26692W        W42161  11.438   5.632  11.147  0.2097  0.0471  0.1408
26693W        W42162   7.792   0.337   4.548  0.1184  0.0835 -0.0703
26694W        W42163   7.829  17.318   4.670  0.1213 -0.2730  0.3154
26695W        W42164  17.346  16.810   4.486 -0.3523 -0.2000  0.4389
26696W        W42165   6.425  15.302   5.197 -0.1336 -0.2489  0.0523
26697W        W42166  10.716  15.974   1.868  0.0421 -0.1456 -0.0458
26698W        W42167  12.995   9.100   5.071 -0.1588  0.0166  0.1191
26699W        W42168   5.756  13.391  12.531 -0.0671  0.2327  0.2155
26700W        W42169   1.952   3.282   3.662  0.2100 -0.1654 -0.2911
26701W        W42170  15.761   4.838  10.621  0.3146 -0.5122  0.1501
26702W        W42171   1.271   5.607   4.842  0.0337 -0.1449  0.1450
26703W        W42172   4.085  17.108  11.262 -0.0014 -0.2500 -0.1087
26704W        W42173   9.087  13.149  11.373 -0.1680 -0.3760 -0.4842
26705W        W42174   1.177   9.230  13.569  0.0442  0.1318 -0.1576
26706W        W42175   3.891   9.568   1.726  0.2325  0.0567  0.0053
26707W        W42176   7.965  18.416   5.190 -0.0442  0.0330 -0.1900
26708W        W42177   9.166  18.210   4.574 -0.0692 -0.0995  0.0675
26709W        W42178  16.177  11.114   2.104  0.0595 -0.2741 -0.0652
26710W        W42179   1.524   7.036  12.080 -0.0350  0.2103 -0.1550
26711W        W42180   0.877  18.017   3.825  0.1272  0.0425 -0.0099
26712W        W42181   8.074  16.432  14.509 -0.1240 -0.0981 -0.2914
26713W        W42182   9.794  18.701  15.007 -0.1450  0.1496  0.1749
26714W        W42183  13.843  12.089  11.255  0.2128 -0.2149  0.0591
26715W        W42184  18.707   7.813   3.901  0.0396 -0.1447 -0.0298
26716W        W42185   6.249  16.222  14.285 -0.0334 -0.0517 -0.0333
26717W        W42186   9.623   1.091  12.494  0.3271  0.0087 -0.1819
26718W        W42187  15.907  17.218   1.836  0.0756  0.0070  0.0974
26719W        W42188   6.633   3.016   9.829 -0.0674  0.1214 -0.2416
26720W        W42189  17.674  10.755  13.735  0.1011  0.0778  0.0019
26721W        W42190   6.510  10.920   4.287  0.1212  0.2243 -0.1987
26722W        W42191  15.623   5.647  13.013 -0.2859  0.1472  0.0408
26723W        W42192  16.683   6.339  13.417 -0.1295  0.1465 -0.1123
26724W        W42193  10.992  17.737  12.805  0.2412 -0.0872 -0.1007
26725W        W42194  15.772  15.867  12.898  0.2123 -0.0594 -0.4014
26726W        W42195   7.734  15.864   1.205 -0.0495 -0.1272 -0.1034
26727W        W42196   9.004  10.220   0.838  0.2065  0.3023  0.0677
26728W        W42197   4.774   7.386  14.472 -0.2589 -0.0191 -0.1108
26729W        W42198   0.063  14.729  10.662  0.0523  0.1438 -0.0754
26730W        W42199  15.505  11.084   1.431  0.0312  0.2700  0.5643
26731W        W42200  13.104   0.128  14.942  0.2409  0.1693 -0.0564
26732W        W42201   1.123  10.075   1.019  0.0364  0.3011  0.3484
26733W        W42202  10.024  10.111   4.228  0.2138  0.2634 -0.3016
26734W        W42203  10.490   0.037   4.396 -0.0021  0.0561  0.2501
26735W        W42204   2.783  16.540   3.783  0.0535 -0.1152 -0.0773
26736W        W42205  18.749  18.126  11.636  0.0685  0.1309  0.0890
26737W        W42206   1.311   0.666   4.721  0.1318  0.0889 -0.2724
26738W        W42207   4.317   0.047  11.277 -0.0359 -0.0825 -0.4678
26739W        W42208  17.938  10.813  15.331  0.1461  0.2270  0.2233
26740W        W42209  13.771  17.271   4.486 -0.1811 -0.2266  0.1883
26741W        W42210   3.350  12.867  14.618  0.0214 -0.1001 -0.2062
26742W        W42211   2.574  14.023   0.615 -0.1460 -0.0348 -0.0168
26743W        W42212   2.267   6.900   4.765  0.0172  0.2882 -0.1232
26744W        W42213   5.594  12.803   1.853 -0.0307  0.1061  0.0809
26745W        W42214  18.501  13.099  11.496  0.3843  0.0645  0.1804
26746W        W42215   9.598  17.298   4.750  0.0993 -0.3142  0.0279
26747W        W42216   9.025   8.080   3.065  0.1416 -0.0085 -0.2938
26748W        W42217   5.236   3.955   6.212 -0.0290  0.0884  0.0469
26749W        W42218   2.539   4.711  11.084 -0.0890  0.3322  0.0948
26750W        W42219  14.538  17.052   4.651 -0.2198 -0.1366 -0.0255
26751W        W42220  18.604  16.004  13.995 -0.1346  0.0852 -0.2851
26752W        W42221   3.415  11.288   2.495 -0.2621 -0.4988  0.3733
26753W        W42222  17.080   0.948  14.317  0.1803 -0.1259  0.2292
26754W        W42223   2.522   2.717  13.882 -0.2741 -0.0576 -0.0519
26755W        W42224   2.463   1.455   2.504  0.0614 -0.1857 -0.1503
26756W        W42225   2.157   4.562   2.168  0.0770  0.1216  0.1857
26757W        W42226   8.333  13.020   0.008  0.0791  0.0827  0.0354
26758W        W42227  16.888   2.863   5.068 -0.1691 -0.2744  0.0427
26759W        W42228   4.836  11.980  13.950 -0.3950 -0.1571  0.0974
26760W        W42229  17.195   9.576   4.382  0.0227  0.2794  0.1095
26761W        W42230   0.077   0.739   3.215  0.0334  0.0100 -0.1575
26762W        W42231  13.860   0.492  10.453  0.1747 -0.2493  0.4877
26763W        W42232   8.441  11.503  12.443  0.1424 -0.3577  0.1079
26764W        W42233  16.280   9.699  12.741 -0.1438  0.3655  0.3370
26765W        W42234  12.636   6.651   0.147 -0.3794  0.0102  0.3082
26766W        W42235   3.510  12.868   4.669  0.1982 -0.2954  0.0744
26767W        W42236  14.927   6.973  11.775  0.0931 -0.0309  0.2258
26768W        W42237   7.424  10.083  14.480  0.1596  0.2101 -0.1644
26769W        W42238   7.624  13.306   1.152 -0.2220  0.1156  0.1213
26770W        W42239   8.453   9.880   0.325  0.0076 -0.1622 -0.1435
26771W        W42240   4.525  16.224   5.714  0.1097 -0.4776 -0.0304
26772W        W42241   4.868  13.497  12.707  0.1086  0.1753 -0.5099
26773W        W42242   1.735  18.251  13.304  0.0919  0.0121  0.2866
26774W        W42243   5.260  15.711   4.617 -0.2253  0.0870 -0.2151
26775W        W42244  11.125   9.500   4.344  0.2755 -0.0228  0.2396
26776W        W42245   7.366  17.635   4.268 -0.0778  0.1485 -0.0640
26777W        W42246  16.825   7.727  13.174  0.0261  0.2233 -0.6527
26778W        W42247   0.133   7.930  12.320  0.1062 -0.2026 -0.0211
26779W        W42248   3.855  17.874   3.486  0.1451 -0.0967  0.4060
26780W        W42249   9.122  12.767   0.031  0.0857 -0.2416 -0.0973
26781W        W42250   2.822   1.184  13.731 -0.1211 -0.0922 -0.0001
26782W        W42251  15.839  16.673  14.679 -0.0621  0.0228  0.0520
26783W        W42252  14.470   4.777   1.359 -0.1786 -0.3658  0.0145
26784W        W42253  17.871   5.380  14.235  0.2468 -0.3418 -0.3366
26785W        W42254  18.735  12.963   1.443  0.3784 -0.5001  0.1036
26786W        W42255  14.609   0.411  10.584 -0.2917 -0.2388 -0.1654
26787W        W42256  18.273   7.503   0.076 -0.0300 -0.1125 -0.0071
26788W        W42257  16.777   8.189   2.813 -0.1671  0.1700 -0.3497
26789W        W42258   3.991   9.942   1.214 -0.0133  0.2944 -0.0670
26790W        W42259  15.981  18.415   4.307 -0.0176 -0.0236  0.0283
26791W        W42260  14.596   7.177   4.203 -0.2877 -0.1806  0.0256
26792W        W42261  18.349  18.354   0.302 -0.1239 -0.0245 -0.0653
26793W        W42262   3.942  12.237   1.880 -0.1215  0.0081 -0.0638
26794W        W42263  10.987   4.680   4.955  0.0676  0.2816 -0.2973
26795W        W42264   7.940  18.805  14.181  0.3751 -0.2211 -0.3918
26796W        W42265   6.439  13.209   1.337  0.0854 -0.0303  0.0564
26797W        W42266   8.957   0.294   5.198  0.3084  0.3038  0.0451
26798W        W42267   6.277  13.312  12.897 -0.0433  0.0541  0.1267
26799W        W42268  10.996  13.896   2.136  0.0649  0.3208  0.0883
26800W        W42269   5.271  16.111  15.192 -0.1529  0.4397 -0.1527
26801W        W42270   9.985  16.647  11.178 -0.0667  0.0718 -0.1025
26802W        W42271   5.862   3.962   1.467 -0.0830  0.1780 -0.0232
26803W        W42272  17.473   9.048   1.559 -0.2438  0.0611 -0.0127
26804W        W42273  10.412   9.350  12.438 -0.1001  0.0362  0.0351
26805W        W42274   5.201   8.627  10.917 -0.0565 -0.0127  0.2488
26806W        W42275  12.687  15.093  11.389 -0.0902 -0.1259 -0.0787
26807W        W42276   0.985   6.678   5.532  0.0680 -0.1354  0.4059
26808W        W42277  14.091  12.580   2.651  0.1942  0.0069  0.0254
26809W        W42278  14.942  12.302  12.731  0.3150  0.3716  0.1242
26810W        W42279  14.954   0.942   4.870  0.4027 -0.0633 -0.1074
26811W        W42280   6.207   4.373   0.008  0.0508  0.0641 -0.3393
26812W        W42281  10.528   6.164  13.223 -0.1856  0.0092  0.1515
26813W        W42282  14.126  18.871   4.995 -0.2922  0.1048 -0.2011
26814W        W42283   5.669   6.740   2.038  0.0571  0.1118 -0.2505
26815W        W42284   9.793   2.075   1.254  0.1421  0.4024 -0.0096
26816W        W42285   2.412  13.105  11.657 -0.0896  0.0613  0.1312
26817W        W42286   5.043   7.761  11.705  0.1687 -0.1485 -0.0008
26818W        W42287   2.877   7.261   1.994 -0.1522 -0.0801  0.1420
26819W        W42288  12.473  18.762  15.292  0.1886 -0.0915  0.2184
26820W        W42289  14.400   0.632   3.027 -0.0271  0.1950 -0.1922
26821W        W42290   2.767   3.489   9.841 -0.2472 -0.0145  0.1818
26822W        W42291   0.589  13.401   1.738 -0.2120  0.1180  0.0878
26823W        W42292  17.910  14.818  10.737 -0.2020  0.0047 -0.0989
26824W        W42293  15.925  15.241   3.433  0.2828  0.2687  0.1210
26825W        W42294   3.463   7.012   0.927  0.1104  0.2113  0.0021
26826W        W42295   1.533  14.856   3.262 -0.0883  0.0888  0.2918
26827W        W42296   9.392   6.862  11.737 -0.2436  0.0303  0.1675
26828W        W42297  16.577   1.016   0.293  0.2556 -0.1157 -0.2255
26829W        W42298  15.499  13.733  11.058  0.0434 -0.1831 -0.0358
26830W        W42299  14.146   3.937  13.850 -0.0335  0.2319  0.2069
26831W        W42300  13.149   7.521   3.012 -0.0320  0.1147 -0.3142
26832W        W42301  16.464   5.621  12.495  0.1055 -0.1661 -0.0654
26833W        W42302   0.760  11.249  14.778  0.0095  0.2244 -0.1526
26834W        W42303  15.851  17.835  12.710  0.1191 -0.1765  0.1408
26835W        W42304  11.169  15.979   3.100  0.0606  0.1244  0.0329
26836W        W42305   4.307  18.454  13.064  0.3721 -0.0050 -0.0760
26837W        W42306  17.676   2.534   0.978 -0.0042  0.0538 -0.1865
26838W        W42307   2.761   6.102  11.675 -0.2922 -0.1654  0.0260
26839W        W42308  18.478   1.448  12.085  0.0952  0.0067  0.1441
26840W        W42309   6.008  12.352  11.549  0.0318 -0.1328 -0.0140
26841W        W42310  17.367  18.302   4.152 -0.0303  0.0476  0.2587
26842W        W42311  15.954   4.382   3.991 -0.2052  0.0192 -0.0369
26843W        W42312   0.113   0.626  13.074 -0.0764 -0.0153 -0.1320
26844W        W42313  18.201   2.170   5.784 -0.0088 -0.0138 -0.0592
26845W        W42314   6.886   6.135   2.434  0.0177  0.2093  0.1358
26846W        W42315   9.285  17.323   1.118  0.0804 -0.0461  0.0519
26847W        W42316  14.553   4.334   1.057 -0.1050 -0.0549 -0.1194
26848W        W42317   1.803  13.083   0.456 -0.1424  0.2526 -0.0270
26849W        W42318   8.309   4.722   5.597  0.1444  0.1349 -0.0283
26850W        W42319   8.071  14.993   5.201  0.2372 -0.1936 -0.0665
26851W        W42320   3.208   2.507   2.517  0.1717 -0.1738  0.1118
26852W        W42321  18.607  12.478   2.000  0.0925 -0.0539  0.0169
26853W        W42322   7.193   0.661  12.398 -0.1970  0.3355  0.2632
26854W        W42323  11.977   1.890  12.475 -0.0684 -0.2219  0.0364
26855W        W42324   7.764   5.474   0.003  0.3316  0.1430 -0.1090
26856W        W42325   7.629   6.671  11.921 -0.0470  0.2957 -0.0239
26857W        W42326   3.185  17.217  13.692 -0.1925  0.3074 -0.1216
26858W        W42327  16.298   6.135   5.190 -0.3175 -0.0293 -0.2055
26859W        W42328   2.569  14.915  14.447 -0.4757 -0.0576  0.2063
26860W        W42329  14.898  13.297  12.452 -0.0710  0.0100  0.0875
26861W        W42330   1.723  14.156   3.969  0.2369  0.0523  0.2941
26862W        W42331   2.149   6.944  12.017 -0.0723 -0.2972 -0.0679
26863W        W42332   9.815   4.311  10.088 -0.0121  0.0809  0.0171
26864W        W42333   7.343  16.619  12.614  0.1783  0.1030  0.1004
26865W        W42334  16.991  18.852  13.337  0.1781 -0.3567 -0.2740
26866W        W42335   7.795   7.190   4.223 -0.1402 -0.1300  0.1353
26867W        W42336   1.006  18.820  11.201 -0.1971  0.1017 -0.4465
26868W        W42337  11.172  13.624  11.893 -0.1079 -0.2952  0.0199
26869W        W42338  15.945   6.124  10.397 -0.0125  0.1404  0.1255
26870W        W42339  10.662   7.518   2.997 -0.3552 -0.1443  0.3035
26871W        W42340   6.582   7.842   0.009 -0.0040 -0.2323  0.0228
26872W        W42341   9.980  17.918  11.871 -0.2410 -0.0787  0.1252
26873W        W42342   3.801  12.043  10.995  0.0242 -0.1123  0.3531
26874W        W42343  16.256  12.700  14.932  0.0419  0.3458  0.4546
26875W        W42344  12.147   4.524   3.616  0.0978  0.3798 -0.0813
26876W        W42345   5.918   4.030  15.155  0.0779  0.3116  0.0339
26877W        W42346   1.645  11.233  13.251 -0.0435  0.0917  0.0026
26878W        W42347   4.201   6.875  10.474  0.0407 -0.2290  0.0720
26879W        W42348   9.017  16.120   3.694  0.3264  0.3000 -0.2233
26880W        W42349   0.841   5.245  14.835 -0.1242 -0.1283 -0.0732
26881W        W42350   9.113   1.487  14.216  0.1894 -0.0253  0.1667
26882W        W42351  10.006   3.973   0.805  0.1289 -0.0316 -0.0286
26883W        W42352   7.175   7.799   4.731 -0.2340  0.0059  0.0399
26884W        W42353   4.196  13.967  15.145  0.0148 -0.0088  0.1209
26885W        W42354   3.324  16.158   1.556  0.2128 -0.0889 -0.1266
26886W        W42355   8.620   4.873   3.768 -0.0688  0.1309  0.2120
26887W        W42356   1.280  12.461  14.416 -0.0783  0.0211 -0.2494
26888W        W42357   1.373   9.898   0.069 -0.0399  0.1405 -0.2086
26889W        W42358  14.159  15.771  13.492  0.2608  0.4462  0.0996
26890W        W42359  18.700  14.436   2.004  0.1272  0.1903 -0.1945
26891W        W42360  15.776  11.644  11.528  0.1710  0.0909 -0.0138
26892W        W42361   8.679  18.463   5.622 -0.1973  0.2371  0.0827
26893W        W42362   6.656  14.680  14.039  0.1134  0.0305 -0.0919
26894W        W42363   0.358  14.657   1.622  0.0658 -0.0324  0.2758
26895W        W42364   0.859   1.881   1.624 -0.0791 -0.0960  0.1422
26896W        W42365  11.025  18.105   4.488 -0.2791  0.3574  0.1084
26897W        W42366   6.522   4.782   4.049 -0.1163 -0.0201 -0.1287
26898W        W42367  12.682   4.502  15.160 -0.2113 -0.0208  0.0792
26899W        W42368   2.285   8.018   1.169  0.0941  0.0541  0.0581
26900W        W42369   2.982   5.074   1.918 -0.0073  0.0920  0.0362
26901W        W42370  11.845  11.093  11.775  0.2453  0.1409  0.0778
26902W        W42371  12.852   2.028   1.001  0.0785  0.0986  0.1023
26903W        W42372  12.911   8.880   0.211 -0.3042 -0.3570  0.0779
26904W        W42373  13.418   3.967  10.510  0.0052  0.1378 -0.2227
26905W        W42374  17.201  10.271  13.085 -0.0536  0.1870  0.3830
26906W        W42375  10.211  14.001   4.611  0.0818 -0.1201 -0.0180
26907W        W42376  15.323   0.435   1.658 -0.2944  0.2702 -0.0679
26908W        W42377   8.864  12.953   3.636  0.3376  0.0879 -0.1091
26909W        W42378   4.081  11.350   2.155  0.2354  0.1722  0.0661
26910W        W42379  10.862  15.902   4.349 -0.0813 -0.2991  0.0131
26911W        W42380  15.338  10.178   4.888 -0.2067  0.1388  0.1594
26912W        W42381  18.419  10.218  14.865 -0.2631 -0.0298  0.2706
26913W        W42382   4.724   5.718  12.954  0.2460  0.4930  0.1383
26914W        W42383  14.431  16.811  14.976  0.0156  0.0285  0.0950
26915W        W42384   5.073   2.151  11.316 -0.0484  0.1787  0.2463
26916W        W42385  12.627  14.667   2.266  0.0380  0.1442  0.1345
26917W        W42386   4.517  10.281  12.801  0.3005  0.1726  0.0780
26918W        W42387  18.569   7.484   0.630 -0.1082 -0.0333  0.0206
26919W        W42388  12.123   7.881   4.585 -0.1981 -0.1382  0.1887
26920W        W42389   7.225   9.491  12.896 -0.1057  0.1116 -0.0184
26921W        W42390  12.034  13.383  12.476 -0.1833 -0.2019 -0.0308
26922W        W42391   5.211  17.267   4.220  0.1613  0.0939  0.0428
26923W        W42392   1.705  12.062  10.435 -0.1091 -0.1289 -0.1314
26924W        W42393   2.154  17.252   0.448 -0.0901  0.1801 -0.1452
26925W        W42394  16.562  14.302   2.808  0.0694  0.2160  0.0386
26926W        W42395  11.588  10.097   3.807  0.2244  0.1443 -0.0539
26927W        W42396  11.484   1.730   1.158  0.2865 -0.0012 -0.0696
26928W        W42397   4.488   5.181  14.785  0.0877 -0.0286 -0.2923
26929W        W42398  13.418  17.292  10.786  0.4390  0.2373  0.0429
26930W        W42399   0.168   5.388  11.092 -0.1212  0.2056 -0.1694
26931W        W42400   2.182   2.059  13.001  0.2526 -0.1052  0.1099
26932W        W42401  13.669   8.647   5.015  0.0050 -0.1047 -0.0500
26933W        W42402   7.380   1.672  12.419 -0.1028  0.0374 -0.0259
26934W        W42403  12.732   7.578   0.931  0.3150  0.0921 -0.0559
26935W        W42404   4.184  16.847  14.357 -0.0345  0.0678  0.2276
26936W        W42405  13.559   2.414   3.761  0.0876 -0.2693  0.2785
26937W        W42406  10.361   0.017   1.238  0.0041 -0.0625 -0.1044
26938W        W42407   1.138  11.988  12.361  0.0052 -0.1273 -0.0074
26939W        W42408   9.166   2.653   4.113  0.2157  0.0211 -0.0967
26940W        W42409   3.514  10.580   4.690  0.0158 -0.1091 -0.2123
26941W        W42410  12.261  17.115   3.983 -0.1681 -0.7544  0.2423
26942W        W42411  13.020   5.736  14.545 -0.1271  0.1169  0.0452
26943W        W42412   3.274   3.433  11.399  0.0771 -0.0271 -0.2133
26944W        W42413  14.221   4.293  14.143  0.1398 -0.1149  0.0228
26945W        W42414   5.231   9.927  13.984 -0.0711 -0.1289  0.1989
26946W        W42415  15.772  17.898   1.798 -0.1595  0.0156  0.1099
26947W        W42416  10.326  17.256   2.906  0.1015  0.0468  0.4419
26948W        W42417  17.683   1.525  12.286 -0.2764 -0.4463  0.1296
26949W        W42418  15.237   1.063  14.974 -0.0879  0.0588  0.2795
26950W        W42419   5.086  12.724   1.924 -0.3111  0.0507 -0.3513
26951W        W42420   1.945  16.132   2.581  0.2773 -0.2383  0.2840
26952W        W42421   8.086  11.873   2.240 -0.0211  0.0252  0.2879
26953W        W42422   8.389  13.484  13.729  0.0119  0.0182  0.1360
26954W        W42423   9.599   5.900  10.444 -0.0082  0.0795  0.2084
26955W        W42424   0.002  18.964   3.450  0.1570  0.3667  0.0218
26956W        W42425  16.223   5.852   2.457 -0.2338 -0.1205  0.3171
26957W        W42426  16.102   3.408   0.393 -0.2203 -0.1299 -0.0461
26958W        W42427  13.369   8.911  12.378  0.2105  0.2279  0.3426
26959W        W42428  11.483  14.159   2.383 -0.1097 -0.0870  0.2350
26960W        W42429   5.180   8.610   4.702 -0.0843 -0.1897  0.2446
26961W        W42430  10.153  13.564   3.305  0.2700 -0.2754 -0.1736
26962W        W42431  14.148   5.294   3.511  0.1531  0.1003 -0.0343
26963W        W42432   7.049   0.933   0.678  0.0063  0.2304  0.0754
26964W        W42433   4.834  13.350   9.719 -0.3892 -0.0581 -0.0475
26965W        W42434  13.985  14.183  10.472  0.2654  0.0487 -0.1510
26966W        W42435   3.618  11.696  13.700  0.0282  0.2340 -0.1239
26967W        W42436   1.275   8.661  15.061  0.1600 -0.1525 -0.0174
26968W        W42437  17.488   6.040   5.024  0.2826 -0.0657  0.0591
26969W        W42438  14.806  18.917   2.530 -0.0011  0.0492 -0.4102
26970W        W42439  14.076  14.883  15.243 -0.2315  0.0150  0.0170
26971W        W42440  11.376  13.732   4.711 -0.1237  0.3577 -0.3568
26972W        W42441   1.958   0.255  11.647  0.1893 -0.3111 -0.0348
26973W        W42442  13.542   1.618   2.461 -0.0713  0.1372 -0.0281
26974W        W42443   1.715   4.825   1.363  0.1748 -0.2187 -0.3706
26975W        W42444   3.467  13.545   2.558  0.2451  0.1513 -0.4869
26976W        W42445  15.697  10.726  11.168 -0.1476  0.0061  0.0117
26977W        W42446   1.563   3.979   0.007 -0.3809  0.1248 -0.0649
26978W        W42447   4.031   9.700   5.802  0.0540 -0.1704 -0.1210
26979W        W42448  11.002   4.220  13.522  0.3390 -0.0355  0.0931
26980W        W42449  16.333  13.388  13.632  0.1510 -0.0640  0.0745
26981W        W42450  14.810   2.379   4.874  0.0873  0.0160  0.1765
26982W        W42451   7.514  15.860   4.149 -0.0539 -0.0106 -0.1641
26983W        W42452   6.640  18.357  13.531 -0.1415 -0.0029 -0.1119
26984W        W42453  12.926   4.742   3.429  0.1691  0.1068  0.0068
26985W        W42454   2.023  15.004  10.108 -0.2991 -0.2217  0.0567
26986W        W42455   1.227   6.506  14.755 -0.2483 -0.1230  0.1175
26987W        W42456   2.108  18.972  12.059 -0.0035  0.3387  0.0841
26988W        W42457  14.322   1.409   3.568  0.1040  0.2618  0.0892
26989W        W42458  12.818   0.618  14.938  0.1803  0.1873 -0.3844
26990W        W42459  18.494  17.046   2.159  0.2072 -0.0482 -0.0417
26991W        W42460  12.663  13.595  12.935  0.2286  0.4140 -0.0909
26992W        W42461   6.243  12.417  15.190 -0.0332 -0.0649 -0.0613
26993W        W42462  17.983  16.499  15.095 -0.0336  0.4093 -0.1984
26994W        W42463   5.310  14.154   2.103  0.1525 -0.0314 -0.3470
26995W        W42464   2.943   4.378   2.979 -0.0652 -0.1182 -0.1438
26996W        W42465   0.921   8.582  12.265  0.0541  0.2460  0.1264
26997W        W42466   0.446  16.855   2.301 -0.0941 -0.0013 -0.0798
26998W        W42467   4.029  15.200  11.841  0.1211 -0.1128 -0.2388
26999W        W42468   4.587  14.235   2.051 -0.4199  0.1308 -0.4233
27000W        W42469   1.464  11.567  12.097  0.0104 -0.1791  0.3194
27001W        W42470  12.024   2.170   4.119  0.0206 -0.1666 -0.2377
27002W        W42471  17.052   0.035  14.539 -0.1124  0.1151 -0.0591
27003W        W42472  18.922  16.771  11.713  0.0370  0.0627  0.1651
27004W        W42473   0.964   7.742   1.944 -0.0358 -0.4696 -0.0155
27005W        W42474  16.063  11.674   2.875 -0.0822 -0.1909 -0.1000
27006W        W42475   4.309  12.831   2.928  0.1816 -0.0347 -0.4631
27007W        W42476  16.804  16.601   1.974  0.0840 -0.0674  0.0519
27008W        W42477   4.711   6.447   2.498  0.0972  0.2318 -0.2312
27009W        W42478  18.584   2.340   2.732  0.1128 -0.0718 -0.0957
27010W        W42479   3.672   1.508  14.831 -0.1174  0.2142  0.1132
27011W        W42480   3.812  18.067  11.849  0.1039 -0.0015  0.1147
27012W        W42481   0.595   0.893  10.226 -0.0498 -0.2820  0.0293
27013W        W42482   7.180   5.623   2.602 -0.1214 -0.0670 -0.0426
27014W        W42483   8.903   2.482  14.819 -0.1103  0.0616  0.2188
27015W        W42484  14.137  14.255   3.604 -0.1523 -0.2974 -0.0450
27016W        W42485  14.030   8.896  13.066  0.0804 -0.1378 -0.0486
27017W        W42486  11.086   0.226   1.937  0.2599 -0.1587 -0.3897
27018W        W42487   4.390   1.249  12.872  0.2827  0.2478  0.4426
27019W        W42488   1.640  12.558   2.584 -0.0903  0.1281 -0.1335
27020W        W42489   2.407   7.785   3.590 -0.0273 -0.2043 -0.3889
27021W        W42490   6.902   2.952   5.022 -0.0231 -0.0729  0.0309
27022W        W42491  18.807  18.043  14.272  0.1665  0.0256  0.1641
27023W        W42492   7.438   0.089   0.576  0.3143  0.2188 -0.3023
27024W        W42493   6.821   8.816  11.476  0.1271  0.0064  0.3134
27025W        W42494  11.393  16.082  14.152 -0.0907  0.0955  0.0694
27026W        W42495   2.159  18.595   2.855  0.1355 -0.1238 -0.1358
27027W        W42496  10.345  10.418  11.397  0.2009 -0.1699  0.1864
27028W        W42497  15.999  18.671  11.479 -0.0257 -0.1935  0.3816
27029W        W42498  10.953  17.507   0.299 -0.4174  0.0238  0.0678
27030W        W42499   1.429  11.971   4.500 -0.4397 -0.0347  0.4136
27031W        W42500  17.733  11.477   1.852 -0.0145 -0.1453 -0.2010
27032W        W42501  10.725   9.247   2.684  0.1175 -0.1562 -0.0082
27033W        W42502   5.103  18.209   5.620 -0.0972  0.2649 -0.0685
27034W        W42503  18.582  18.472  15.211 -0.0006  0.3431  0.0597
27035W        W42504   9.080  18.717   1.248  0.2441 -0.1717  0.2982
27036W        W42505  11.422  15.387  13.016 -0.2926 -0.3579  0.1317
27037W        W42506  13.404   9.242   5.266  0.0120 -0.1375 -0.4143
27038W        W42507   4.289  12.608  15.302 -0.0416  0.0521 -0.0231
27039W        W42508  15.315  14.121  11.921 -0.2995  0.0560 -0.0073
27040W        W42509   0.271   5.090  13.652 -0.1605  0.1107  0.1108
27041W        W42510   0.307  12.896  13.236  0.1240 -0.1597  0.1876
27042W        W42511   5.281   7.619   4.641  0.3822 -0.0409 -0.0187
27043W        W42512  10.371  15.106  13.018 -0.3710 -0.1158  0.0155
27044W        W42513  13.496   4.437  11.517  0.0478  0.1654  0.1899
27045W        W42514  13.043  13.451  12.492 -0.0958 -0.2606 -0.1524
27046W        W42515  18.100   5.724   5.458  0.1398  0.0458 -0.2312
27047W        W42516   6.183  15.112   0.921  0.0941  0.0320 -0.0197
27048W        W42517   9.334  12.931  12.926 -0.1292  0.1100 -0.0982
27049W        W42518   2.526  15.608  15.097 -0.1276  0.2192 -0.0641
27050W        W42519   5.811   2.478   2.119  0.0465 -0.0370 -0.0223
27051W        W42520   6.316  16.902  10.047 -0.2222 -0.1387  0.0956
27052W        W42521   2.264  16.687   3.268 -0.1848  0.0244 -0.2136
27053W        W42522  14.886   0.194   3.512  0.0496  0.4212 -0.1422
27054W        W42523  14.912   7.288   3.641 -0.0272  0.3848  0.1260
27055W        W42524  13.812  10.180  13.754 -0.2709  0.3717 -0.1758
27056W        W42525   8.409   5.013  14.658  0.1707  0.0248  0.1141
27057W        W42526   9.531   2.927  12.499 -0.1415 -0.2018 -0.1620
27058W        W42527   2.874  14.664   1.441  0.1023  0.0435 -0.3313
27059W        W42528  16.300   7.533   3.042  0.2720 -0.1378  0.2331
27060W        W42529   3.539  17.395   3.597  0.1758 -0.1377 -0.2123
27061W        W42530   0.033   9.631   2.678 -0.0422 -0.3133 -0.2380
27062W        W42531   1.221  14.766   0.673 -0.1008 -0.0576  0.1456
27063W        W42532  10.366   9.096  13.456  0.0863 -0.0365  0.2073
27064W        W42533  18.792   2.878  10.888 -0.0361  0.2086 -0.1839
27065W        W42534  10.701   3.898  13.115 -0.1003  0.2284  0.0073
27066W        W42535  12.467   1.224   4.871  0.1877 -0.0087  0.0953
27067W        W42536  12.196   9.969   0.554  0.2301  0.2747  0.1457
27068W        W42537   8.475  11.373  10.614 -0.1210 -0.0832 -0.0314
27069W        W42538   5.714   3.755   4.917 -0.1354 -0.1527 -0.3185
27070W        W42539   0.363   4.835   1.628 -0.0214  0.0509  0.2098
27071W        W42540  10.208   9.062   3.030 -0.1715  0.0650  0.2486
27072W        W42541   4.169   6.901  12.385  0.1953 -0.2961 -0.1847
27073W        W42542   6.865  13.420  14.668  0.1419  0.0179 -0.0283
27074W        W42543  16.919   5.126  15.234  0.0178 -0.0269 -0.0270
27075W        W42544  18.239  17.069   3.912  0.0451  0.0605  0.0195
27076W        W42545  13.464  15.141   2.253  0.0144 -0.1257 -0.4404
27077W        W42546  16.838  13.602  13.149 -0.0424 -0.3071 -0.1414
27078W        W42547   7.773   1.796   2.924 -0.1795  0.3539  0.1749
27079W        W42548   4.129   4.769   0.853  0.0840 -0.0739  0.1515
27080W        W42549   3.362   2.085   3.256  0.1750  0.3060  0.3934
27081W        W42550   6.858   0.155  12.746  0.1863 -0.1074  0.0641
27082W        W42551   3.134   6.878  14.053 -0.3446  0.2368 -0.1167
27083W        W42552  10.663  16.041  12.702  0.1316  0.2838 -0.0805
27084W        W42553  12.100  17.597   3.966  0.0520  0.0438 -0.1508
27085W        W42554   1.920  17.779  14.430  0.1214 -0.1225  0.0545
27086W        W42555   1.322   3.415  12.430  0.0222  0.0952 -0.0509
27087W        W42556  15.818  18.964  14.170 -0.3167 -0.0204  0.4820
27088W        W42557   5.609   0.746   1.797  0.0433  0.1343 -0.0475
27089W        W42558   8.943   4.824   5.485  0.2176 -0.0457 -0.0574
27090W        W42559   7.976   8.845  10.574  0.2953 -0.0113  0.2867
27091W        W42560   5.098  15.870  13.329 -0.1235  0.1001 -0.0292
27092W        W42561   8.727   8.590  12.129  0.0706  0.0637 -0.2216
27093W        W42562   3.520  17.848  12.241 -0.0673  0.1288  0.0918
27094W        W42563   0.692  11.135  15.320 -0.1311 -0.1244  0.1901
27095W        W42564   2.477  15.830   0.273 -0.1861  0.1056 -0.0599
27096W        W42565   4.835   1.440  12.103 -0.2575  0.1775 -0.1235
27097W        W42566  10.593   0.323  12.503 -0.0131  0.1434 -0.0927
27098W        W42567   9.335   1.520   0.545  0.1477 -0.0299 -0.0145
27099W        W42568  14.739  16.679  10.578 -0.2314 -0.1842  0.4801
27100W        W42569   0.745   6.116   3.663 -0.4158 -0.2734  0.0677
27101W        W42570   5.587  16.717  11.262  0.5181  0.2660 -0.0305
27102W        W42571  15.055   2.135   1.868  0.1455 -0.0073 -0.1276
27103W        W42572  11.264  12.070   1.239  0.1763 -0.1353  0.0218
27104W        W42573  10.048   4.499  13.355  0.1815 -0.0662 -0.3308
27105W        W42574   9.248   5.302  14.487  0.1614 -0.1811  0.2134
27106W        W42575   8.465  18.283   3.780  0.3308  0.1467  0.3865
27107W        W42576   0.841   9.922  14.552  0.0194 -0.2062 -0.2781
27108W        W42577   9.936   6.865   3.880  0.0978 -0.1033 -0.0731
27109W        W42578   4.733  15.764   3.099 -0.3218  0.1696 -0.0402
27110W        W42579   0.131   4.554  15.332  0.1520 -0.1433 -0.0515
27111W        W42580  16.894   5.200   3.659  0.0731  0.1563 -0.0231
27112W        W42581   1.172  17.535  11.505  0.0598 -0.3879 -0.3084
27113W        W42582  10.201   5.120   2.427 -0.2057  0.1093 -0.1583
27114W        W42583  12.993   0.848  10.877 -0.3375 -0.2276 -0.2430
27115W        W42584   8.827  14.948  13.130 -0.2396 -0.2970 -0.4926
27116W        W42585   4.159  11.755  13.117  0.1384  0.0643  0.0891
27117W        W42586   6.785  12.095  12.188  0.3133 -0.0605  0.0715
27118W        W42587  17.701  16.614  12.481 -0.5707  0.1869 -0.1208
27119W        W42588   8.322  15.037  14.958 -0.5323 -0.0195  0.6708
27120W        W42589   6.866   2.743   0.499 -0.0470 -0.1023 -0.0515
27121W        W42590  15.728  17.636   5.265 -0.2349  0.1030  0.2551
27122W        W42591  16.817   7.319  11.223 -0.0391  0.3992 -0.0911
27123W        W42592  10.657   2.989  14.911  0.1130  0.1844 -0.0511
27124W        W42593  14.550  14.504  13.708  0.1493 -0.0240  0.0286
27125W        W42594   6.298   6.188   1.724 -0.0079 -0.1472  0.4003
27126W        W42595   0.339  14.198   0.769 -0.2891  0.1147 -0.3237
27127W        W42596  15.255   4.596   0.285 -0.3466  0.0725 -0.1066
27128W        W42597   1.576   5.805   2.572 -0.3407  0.0092  0.2362
27129W        W42598  15.465  14.877  13.506 -0.1658 -0.2400  0.0446
27130W        W42599   5.753   8.937   0.447 -0.1353 -0.2272 -0.0446
27131W        W42600   6.298  10.317   2.614 -0.1145 -0.1962  0.1774
27132W        W42601   5.743  15.825   2.852 -0.3575  0.0205  0.0594
27133W        W42602  17.881   3.266   0.757  0.0244 -0.1035  0.1561
27134W        W42603   4.040  15.208  12.645  0.2712  0.0310  0.0924
27135W        W42604  18.254   9.977   1.990 -0.2273 -0.0262  0.1947
27136W        W42605  14.593   4.107  11.360  0.1526 -0.0397 -0.0727
27137W        W42606   9.075   5.353  13.467 -0.4094  0.0019  0.1017
27138W        W42607  15.106  18.248  14.105  0.1186  0.0750  0.0788
27139W        W42608   0.748   8.960   3.417  0.1544 -0.0759  0.3818
27140W        W42609  11.993   3.656   9.758 -0.1177 -0.0758 -0.0161
27141W        W42610   5.517  10.011  13.092  0.2073  0.0313  0.0025
27142W        W42611   5.339   6.767   4.604  0.0530  0.0523  0.0556
27143W        W42612  16.145  10.749   2.419 -0.0738  0.3247 -0.0457
27144W        W42613   5.600   1.117   1.025 -0.0578 -0.2806  0.1941
27145W        W42614   3.909   7.339  12.571  0.0911 -0.1735  0.1192
27146W        W42615   7.351   5.701   3.347 -0.2383  0.2413  0.3980
27147W        W42616   4.031  12.674   3.965 -0.1935 -0.2992  0.1228
27148W        W42617   4.039  18.650   4.747 -0.0152  0.0514 -0.1251
27149W        W42618   1.875   0.030   4.623  0.4066  0.3539  0.1484
27150W        W42619  16.477   3.517   1.407  0.0814 -0.3350  0.0742
27151W        W42620  13.937  18.476  12.257 -0.0393  0.0404  0.2586
27152W        W42621   3.769   2.213   3.464  0.0860  0.0373  0.3230
27153W        W42622  12.438  18.408   4.163 -0.2790  0.3027 -0.0384
27154W        W42623   2.880   4.296   3.960 -0.0232 -0.2971 -0.3085
27155W        W42624   5.388  16.695   1.958  0.1849  0.0930  0.2054
27156W        W42625   8.199  13.105  12.633  0.0261  0.3123 -0.1408
27157W        W42626   1.979  18.077   3.677  0.3482  0.3299  0.3827
27158W        W42627   6.941  17.099  14.676  0.2203 -0.0743  0.0211
27159W        W42628   9.134  15.068   0.953 -0.2999  0.0912 -0.2219
27160W        W42629   1.471   1.267  10.755  0.0093  0.2447 -0.0703
27161W        W42630   9.760  14.463   1.415 -0.1672 -0.0191  0.2916
27162W        W42631  13.586  13.999  10.135  0.0542 -0.1703 -0.1030
27163W        W42632  14.321  11.418   3.795 -0.0809  0.2686  0.5235
27164W        W42633   7.077   9.024  12.976  0.0686  0.0371 -0.0951
27165W        W42634   3.767   3.173  13.831 -0.2844  0.1267 -0.1901
27166W        W42635  10.746   0.733  11.814 -0.2026  0.0313 -0.1148
27167W        W42636  13.245   0.099  13.152  0.0857  0.1511  0.2279
27168W        W42637   9.083  11.593  12.341 -0.2762 -0.1629  0.2003
27169W        W42638  18.912  14.288  14.867  0.3645 -0.2480  0.0977
27170W        W42639  10.699   5.073  11.372  0.0618  0.0810 -0.2580
27171W        W42640   1.745  16.425   1.032 -0.2148 -0.1733  0.0629
27172W        W42641  10.259   1.434   0.182 -0.1602 -0.0005  0.0173
27173W        W42642  17.602  18.877  12.626  0.2208 -0.0602  0.0787
27174W        W42643   0.286   1.703   0.012 -0.1091  0.1432 -0.0272
27175W        W42644   3.925   8.854   0.980  0.1385 -0.0644 -0.0063
27176W        W42645   4.266   5.821  12.785  0.2575  0.2081  0.0698
27177W        W42646  12.446  11.252   3.427  0.0330 -0.0533  0.0849
27178W        W42647   5.225  17.383   0.087  0.2833 -0.2107  0.0445
27179W        W42648   7.874   5.734   3.339 -0.5600  0.0649  0.0468
27180W        W42649   0.138   6.443  11.412 -0.3175  0.2994 -0.3107
27181W        W42650  14.454  14.959  14.811 -0.2197  0.0461  0.2680
27182W        W42651   4.783   7.664   5.616  0.2407 -0.0761 -0.0631
27183W        W42652   1.343  10.731  14.201 -0.1105 -0.1109 -0.0531
27184W        W42653  17.987   3.347  14.282  0.1613 -0.1681  0.4256
27185W        W42654  18.591  10.750  14.721  0.2700  0.2505 -0.0656
27186W        W42655  17.636   0.126   0.396 -0.0467  0.2697 -0.2474
27187W        W42656   5.252   2.058   1.543 -0.1789 -0.0910 -0.2458
27188W        W42657  15.920   3.681  11.566 -0.0865 -0.2113  0.3198
27189W        W42658   1.614   2.961  11.798 -0.5354  0.2762 -0.2490
27190W        W42659  13.214  12.303  10.929 -0.0192  0.0181 -0.2535
27191W        W42660   9.919  16.060   2.331 -0.0943 -0.0296  0.2320
27192W        W42661   5.250   4.937  13.235 -0.0868 -0.0819 -0.1826
27193W        W42662  11.505   6.726   0.976  0.1287 -0.0440  0.1603
27194W        W42663  13.028   1.656  13.829  0.0910 -0.1339  0.0763
27195W        W42664   6.129  18.951   1.448  0.2745 -0.0336 -0.0845
27196W        W42665   5.110   6.055  15.019  0.3912 -0.2089  0.1120
27197W        W42666   5.530  11.257   2.489  0.3051 -0.2470  0.1728
27198W        W42667  11.148  16.787  10.642  0.1247  0.1971  0.0284
27199W        W42668   7.167  15.666  11.656 -0.2417 -0.0006 -0.1312
27200W        W42669  18.626  16.901   4.273  0.0041  0.1460 -0.0070
27201W        W42670  11.052  10.253   4.000 -0.1582  0.0956  0.3849
27202W        W42671   0.584   5.685  11.020  0.1594 -0.1247 -0.1521
27203W        W42672   1.776  18.837  14.073  0.1843 -0.0326 -0.0615
27204W        W42673   0.114  15.215  11.407  0.0946  0.2945  0.2064
27205W        W42674   0.989   1.065  13.386 -0.0386  0.0334  0.3214
27206W        W42675   8.073   3.880  11.239  0.3166 -0.2608  0.0683
27207W        W42676  15.822   5.163   3.803 -0.3207 -0.0603 -0.1249
27208W        W42677  16.952  13.073   4.571 -0.4634 -0.2613  0.3774
27209W        W42678   5.896  14.992  13.995  0.0668  0.0551 -0.3073
27210W        W42679  14.064   2.784  10.889  0.1387 -0.0481 -0.2665
27211W        W42680   0.280  11.114  14.985 -0.1486  0.1651  0.1164
27212W        W42681   6.486  15.723   4.219  0.0202 -0.0511  0.2080
27213W        W42682  11.838  10.193   2.921  0.1320  0.4420  0.4328
27214W        W42683   7.676   6.733   4.067  0.1338  0.0123 -0.0969
27215W        W42684  14.739  13.917   1.609  0.1343 -0.2701  0.1053
27216W        W42685   4.466  13.282  15.240  0.1693 -0.4982 -0.2024
27217W        W42686  16.070   3.384   3.836 -0.0383  0.2816  0.3444
27218W        W42687   4.890   9.278   0.765 -0.0270  0.2325  0.1123
27219W        W42688   7.585   6.724  13.252  0.0250 -0.1173  0.1529
27220W        W42689  14.456   7.776   1.430 -0.3679  0.2866 -0.0876
27221W        W42690  18.336   0.550   3.145  0.0108  0.0491 -0.1217
27222W        W42691   1.068  18.852   2.694 -0.0984  0.0335 -0.0019
27223W        W42692   0.942  12.511  10.200  0.0149 -0.0295  0.2138
27224W        W42693   3.569  15.116  11.631  0.2278 -0.1497  0.0136
27225W        W42694   6.912  14.313  14.859  0.0837 -0.1077  0.3289
27226W        W42695  14.610  10.516   3.370  0.0948 -0.2651 -0.1929
27227W        W42696   4.305   3.511  14.724  0.0235  0.0599  0.2198
27228W        W42697  16.113   8.622  11.311  0.0270 -0.0330  0.0064
27229W        W42698   4.661   8.967  12.217 -0.0995  0.2876  0.0174
27230W        W42699   1.263   6.745   2.251 -0.0090  0.2429 -0.2281
27231W        W42700   2.685   9.862   4.515 -0.0746 -0.2195  0.1391
27232W        W42701  12.134   0.485  10.497 -0.1304 -0.0043 -0.1558
27233W        W42702   8.416   0.173  15.190  0.3149  0.2194  0.2042
27234W        W42703  16.283  14.309   5.524  0.2930  0.0810  0.0925
27235W        W42704  10.006   5.217  12.077 -0.2591  0.1275  0.0643
27236W        W42705  18.448  17.035  11.799 -0.1357  0.3607  0.0294
27237W        W42706  12.369   9.030  12.183 -0.0108  0.0714 -0.0519
27238W        W42707  12.653   9.256   1.057  0.2370 -0.0157 -0.2096
27239W        W42708  14.600  17.419  15.257 -0.2314  0.3481  0.3342
27240W        W42709   3.858   9.241   0.417  0.1173 -0.2640  0.0518
27241W        W42710  11.657   7.443  13.656 -0.0867 -0.0276  0.5031
27242W        W42711   1.825  13.898  11.924  0.0146 -0.1550 -0.1279
27243W        W42712  17.662   8.933   3.640 -0.1414 -0.1076 -0.0926
27244W        W42713   6.883   4.357   0.621 -0.2433  0.0021  0.1866
27245W        W42714   1.902  15.451  11.543 -0.0872 -0.0646  0.2505
27246W        W42715  12.460  15.277  11.794 -0.1912  0.1608 -0.0968
27247W        W42716   5.276  10.822   0.263 -0.0428 -0.3715 -0.2599
27248W        W42717  11.410  18.540  13.238  0.3222  0.1835  0.1080
27249W        W42718  18.163   8.585   2.190  0.0171 -0.5762 -0.1231
27250W        W42719  13.819   1.277   1.996  0.1971 -0.2768 -0.0589
27251W        W42720   6.602  14.817  12.193 -0.2751  0.1809  0.2244
27252W        W42721   9.966  13.991  15.132 -0.0933 -0.0558 -0.1131
27253W        W42722  12.973   9.650   2.631 -0.0009  0.1343  0.1895
27254W        W42723  11.817  13.595   2.740  0.2125  0.0069 -0.1025
27255W        W42724   6.519  12.599   0.290  0.1275 -0.1675 -0.2548
27256W        W42725   3.268   4.617   9.975  0.2080 -0.0347 -0.0385
27257W        W42726   7.209   1.019  13.316 -0.4148  0.0370  0.3978
27258W        W42727   7.064  17.650   0.180 -0.5936 -0.2008  0.4584
27259W        W42728  15.916   2.944   3.067  0.0566  0.0125  0.0874
27260W        W42729  14.700  18.885  14.731 -0.1096  0.3729  0.2207
27261W        W42730   5.728   8.234   1.987 -0.3751 -0.2146  0.1801
27262W        W42731  16.097   7.059  13.044 -0.0427  0.1970 -0.0247
27263W        W42732   9.880   6.751  11.493 -0.2851 -0.0207  0.0820
27264W        W42733  13.801  12.765   1.738  0.2648 -0.2821  0.0538
27265W        W42734  11.165  17.950  14.827  0.1835 -0.0507 -0.1485
27266W        W42735  18.203  18.493   4.814 -0.2190 -0.0184 -0.0865
27267W        W42736   6.859  15.936  11.370 -0.1843 -0.3218  0.0500
27268W        W42737  11.669  11.735  13.531 -0.1099 -0.1438  0.2019
27269W        W42738   6.684   9.372  10.264  0.0517 -0.1931  0.2817
27270W        W42739  17.387   5.305   1.399  0.0846  0.0023  0.1237
27271W        W42740  11.282   5.203   3.847  0.2218  0.3185 -0.1659
27272W        W42741  15.408  14.978  12.396 -0.1783 -0.0949  0.3799
27273W        W42742   7.547   7.738   3.942  0.1505 -0.1515  0.0775
27274W        W42743   7.269  16.900  13.424  0.0715  0.0082  0.0660
27275W        W42744   8.403  13.438  11.507  0.2803 -0.1807 -0.2321
27276W        W42745  12.337  18.257  11.571  0.1193 -0.1400 -0.0659
27277W        W42746   3.973   9.098   3.434 -0.2734 -0.0593  0.0210
27278W        W42747  17.814   6.798  12.278  0.2200 -0.0145  0.1314
27279W        W42748   3.615   3.163   0.047 -0.0048  0.0500 -0.0486
27280W        W42749  10.110   9.288   1.592 -0.1553  0.3053 -0.1020
27281W        W42750   9.251   6.954   2.568  0.0737  0.0189  0.0412
27282W        W42751   2.211  14.231  11.801 -0.4464 -0.0847  0.2122
27283W        W42752  17.333   2.359   3.469  0.2343 -0.2476 -0.0432
27284W        W42753   0.639  13.242   9.862 -0.0858  0.0250  0.4230
27285W        W42754   1.461   2.318  12.508  0.2100  0.0488  0.0183
27286W        W42755   0.345  17.082  13.630 -0.0532 -0.0856 -0.1406
27287W        W42756  16.932   5.438   4.179  0.1426  0.3823 -0.0904
27288W        W42757   6.874  15.466  12.611  0.0867  0.1870 -0.0179
27289W        W42758   4.361  17.143  13.389 -0.2234  0.0045  0.1610
27290W        W42759  10.138   7.080   3.024 -0.1160 -0.0334  0.2494
27291W        W42760  18.076   1.493  13.342 -0.0410  0.0609  0.2369
27292W        W42761  13.622   6.776  15.115  0.2006  0.1780 -0.1787
27293W        W42762  16.980  13.680   0.277  0.0720  0.0572  0.3706
27294W        W42763  13.066   2.384   0.741 -0.0790 -0.0996 -0.1973
27295W        W42764   1.887  10.941   3.876 -0.0530  0.2897  0.2153
27296W        W42765   4.546   0.049   4.316 -0.1374  0.0032  0.0734
27297W        W42766   3.124   8.783   3.958 -0.1626  0.2329 -0.0857
27298W        W42767  13.214  11.771  14.889  0.1680  0.2493 -0.1122
27299W        W42768   4.066   6.724   9.997 -0.1176  0.0344  0.0685
27300W        W42769   2.092  16.893  11.233 -0.0641  0.2508 -0.1483
27301W        W42770   6.875  13.898  12.053 -0.1597  0.0987  0.1781
27302W        W42771   6.165  12.591   4.038  0.3098 -0.0568  0.0258
27303W        W42772   4.721   8.993   0.325 -0.2212  0.1368 -0.0474
27304W        W42773  18.996   8.886  12.609  0.0491  0.2847 -0.2177
27305W        W42774  18.402   9.815  11.411  0.2502 -0.1030  0.1653
27306W        W42775  10.188   3.647   4.846 -0.4565  0.0398  0.1003
27307W        W42776   2.572  10.543  13.863  0.1404 -0.0165 -0.0239
27308W        W42777   1.009  17.585  10.626 -0.4466 -0.3770 -0.1213
27309W        W42778  15.550   9.114   1.546 -0.0191 -0.2400 -0.0117
27310W        W42779  10.859  12.222   4.411  0.1696  0.0398  0.2318
27311W        W42780   7.924  10.752   9.834  0.0065 -0.0779 -0.1249
27312W        W42781   6.854  12.167  13.499  0.0729 -0.1341  0.1216
27313W        W42782   9.449   0.376   5.152 -0.0849 -0.0164  0.0571
27314W        W42783   7.264   7.562  13.955 -0.1276 -0.0476  0.0375
27315W        W42784  17.537   0.063   3.292 -0.1803 -0.0769 -0.4129
27316W        W42785  18.727   5.244   0.390 -0.1499  0.3262  0.2440
27317W        W42786  15.330   6.739  12.465 -0.4025 -0.0202  0.2059
27318W        W42787   7.710   0.324   0.963 -0.1032 -0.2188 -0.1256
27319W        W42788  16.287  16.889   5.183 -0.1768 -0.2002 -0.1285
27320W        W42789  12.376   7.817   4.121  0.2637 -0.1496  0.1526
27321W        W42790   7.953   8.674  15.222 -0.4255 -0.3040 -0.1512
27322W        W42791   2.970  11.353  11.980  0.2062 -0.1834  0.1319
27323W        W42792   0.898   4.796   4.078  0.3124 -0.0287  0.3218
27324W        W42793  14.408   5.352   4.291 -0.1242  0.0872 -0.1746
27325W        W42794   4.686  13.644   3.824  0.1258 -0.0092 -0.3242
27326W        W42795  11.818  16.195   2.530  0.0228  0.4478  0.0099
27327W        W42796  13.981  15.199   2.027 -0.2258 -0.3182  0.4197
27328W        W42797  15.436  15.974   4.235  0.2963 -0.2438 -0.0339
27329W        W42798   5.583  12.883   4.890 -0.0203 -0.1510  0.0477
27330W        W42799  14.162   1.252  13.546  0.2628 -0.1954  0.0012
27331W        W42800  15.489   1.767  13.719 -0.1067  0.3933 -0.1375
27332W        W42801   8.149   3.686   1.289 -0.3311  0.0481  0.0857
27333W        W42802   3.296  14.637   2.773 -0.0453 -0.0821 -0.0867
27334W        W42803   3.576  15.525   3.353 -0.0318  0.2194 -0.2723
27335W        W42804   7.428  12.223   2.835 -0.3729  0.2277 -0.0965
27336W        W42805  13.270   1.482   1.320  0.0367  0.0297  0.1777
27337W        W42806  14.134   4.509  10.339  0.1602 -0.1802  0.0443
27338W        W42807  17.681  10.274  13.355  0.3412  0.1759  0.2577
27339W        W42808  16.638   6.755  13.021 -0.0706  0.0433 -0.1666
27340W        W42809   0.595   4.647  12.180 -0.4428  0.1555 -0.1288
27341W        W42810   6.920  15.726   2.260  0.1290 -0.1765  0.3962
27342W        W42811   5.154   7.165   1.419 -0.0218 -0.0987  0.1313
27343W        W42812   7.228  14.466   2.516 -0.1403  0.1436  0.0358
27344W        W42813   5.807   6.471   2.941  0.2165  0.2451 -0.0606
27345W        W42814   4.364   7.455  14.739 -0.3504  0.3667 -0.2261
27346W        W42815   7.617  17.684   2.988 -0.1597  0.2569 -0.0999
27347W        W42816  18.325   2.153  14.817 -0.0179 -0.0323 -0.0424
27348W        W42817   2.849  10.895   1.713  0.2528 -0.0527  0.1290
27349W        W42818   0.332  16.071   1.833 -0.4841  0.3220  0.5048
27350W        W42819   9.730   5.924   1.670  0.0211 -0.0503 -0.1913
27351W        W42820   3.488   9.546  14.319  0.0144 -0.0674  0.1870
27352W        W42821   2.375  14.970  10.943 -0.2418  0.0642 -0.0301
27353W        W42822  18.775  13.621   3.881 -0.0750  0.1045 -0.0419
27354W        W42823   6.429   8.974  13.085 -0.1060  0.3448  0.0461
27355W        W42824  12.864   4.511   2.583 -0.2825 -0.0907 -0.0252
27356W        W42825   1.814  17.662   1.584  0.1698  0.3197 -0.2695
27357W        W42826  12.043   0.626   4.309  0.1273  0.0660  0.0430
27358W        W42827  11.336  16.270   2.754  0.1722  0.2467  0.2184
27359W        W42828  12.177   8.868   3.098  0.0657 -0.0271  0.0960
27360W        W42829   8.304  14.070  12.551  0.1836  0.1741  0.3150
27361W        W42830  11.468   8.026   3.520  0.0274  0.0793 -0.0256
27362W        W42831   1.916  18.158  10.908  0.0539  0.1233  0.2393
27363W        W42832   9.136   1.942   2.308 -0.0196  0.0177 -0.0169
27364W        W42833   6.307   5.135   1.053 -0.1117  0.1147  0.0274
27365W        W42834  14.640  18.755   2.979  0.1640  0.2551  0.1422
27366W        W42835  14.403   4.913  12.889 -0.0985 -0.0217 -0.1390
27367W        W42836  10.298   8.559   2.158  0.1154  0.0264 -0.1598
27368W        W42837  13.598   9.762   5.248  0.1719  0.0011  0.0865
27369W        W42838   2.294   7.201   1.601  0.1781 -0.3793  0.0682
27370W        W42839   3.339   3.930   0.853 -0.1416 -0.1540 -0.2388
27371W        W42840  13.321   7.508  12.231  0.1686  0.0817  0.1098
27372W        W42841   6.597   2.105  11.273 -0.1190  0.1141  0.1836
27373W        W42842  11.368  12.272   9.190 -0.0476  0.0167  0.1186
27374W        W42843  17.618  14.702   4.569 -0.2362  0.1554 -0.2261
27375W        W42844   1.204   3.665   3.848 -0.1169  0.1177 -0.0262
27376W        W42845  10.610  13.709  12.873  0.2999  0.1143 -0.2022
27377W        W42846  12.409   6.800  14.775 -0.0361 -0.2941 -0.0519
27378W        W42847   0.211   0.133   1.556 -0.0140  0.1791  0.0133
27379W        W42848   4.264   9.979  10.262 -0.1507  0.0514  0.2351
27380W        W42849   2.765   0.063  12.702 -0.1188  0.1806  0.0623
27381W        W42850   1.954   5.583  13.625  0.0854  0.2586 -0.4598
27382W        W42851  12.813   3.311   1.780 -0.0044  0.0928  0.0595
27383W        W42852   9.229  14.213  12.338  0.2981 -0.0699  0.1174
27384W        W42853  17.764   6.002  10.965  0.0327 -0.1061 -0.2333
27385W        W42854   6.640   6.066  11.729 -0.2528 -0.0556 -0.1648
27386W        W42855   2.045   8.977   1.956 -0.0175  0.0881 -0.1098
27387W        W42856  14.872   0.508  13.547 -0.1900 -0.1795  0.2037
27388W        W42857   2.837  13.272   1.007 -0.1063 -0.2065 -0.0483
27389W        W42858   8.119  15.003   3.044  0.0475  0.0061  0.2129
27390W        W42859  16.435  18.133   4.208 -0.2322  0.1192 -0.0562
27391W        W42860  11.090  15.076  10.992  0.1204 -0.1559  0.1734
27392W        W42861   6.997   3.647   3.302  0.0093 -0.0358 -0.0206
27393W        W42862   3.313  13.762  13.667 -0.0090 -0.4979 -0.1066
27394W        W42863   5.786  18.548  11.708 -0.0229 -0.1313 -0.1786
27395W        W42864  12.037   7.142   2.405 -0.1218 -0.1368  0.0701
27396W        W42865   6.617  12.919  11.786 -0.3514  0.3062 -0.2113
27397W        W42866  11.693  11.838  10.321 -0.0436 -0.1066  0.4742
27398W        W42867  14.677   3.724  10.650 -0.1747  0.2797 -0.1808
27399W        W42868  18.632  15.960   2.428  0.0396  0.0688  0.0774
27400W        W42869  18.427   4.985  10.613 -0.3500  0.2183  0.0263
27401W        W42870  10.030   4.607   5.348 -0.1958  0.3118 -0.0791
27402W        W42871  12.435  12.217   1.517  0.2846 -0.3414 -0.0546
27403W        W42872  14.156  10.679  10.305  0.0155  0.1462  0.3296
27404W        W42873  12.448   0.399   0.907 -0.1789  0.2938  0.2279
27405W        W42874   4.758   3.149   5.096  0.1753  0.1269  0.0564
27406W        W42875  18.778  18.025   0.585 -0.3553 -0.0806  0.1400
27407W        W42876  18.265  13.420  13.320  0.0359 -0.1620 -0.1360
27408W        W42877  15.180   4.461   2.620  0.0682  0.0591  0.1425
27409W        W42878   0.209  12.655  10.620  0.3236  0.0938 -0.0581
27410W        W42879  19.019  10.338  12.758  0.0630 -0.1356  0.0143
27411W        W42880   7.530  17.922   1.099  0.1763  0.1346 -0.0351
27412W        W42881  13.936   5.602  13.613 -0.0472  0.2220  0.1154
27413W        W42882   5.945   8.779  11.661  0.1628 -0.0722 -0.1111
27414W        W42883   1.616  16.198  14.359 -0.0369  0.3025  0.0918
27415W        W42884   5.102  11.280  15.117  0.1121  0.0862  0.2501
27416W        W42885   8.597  15.381  13.122 -0.2267  0.2527 -0.0795
27417W        W42886   1.127   4.140   4.457  0.1186  0.0578  0.4223
27418W        W42887   1.279  13.199  11.886 -0.3217 -0.0327  0.3463
27419W        W42888  16.047   9.436   3.869 -0.4257  0.1953  0.3510
27420W        W42889   8.709   9.861   3.970  0.1923 -0.2325 -0.1754
27421W        W42890   7.959  11.347  15.240  0.0583 -0.0591  0.1775
27422W        W42891   2.005   4.041   0.861  0.0518  0.0418 -0.2326
27423W        W42892  15.653   4.087  13.835 -0.2604  0.0092 -0.0289
27424W        W42893  14.907   5.179  12.712  0.1746  0.3083 -0.1347
27425W        W42894   5.596   4.832   3.367 -0.5261  0.0691  0.2078
27426W        W42895  14.451  14.105  12.662 -0.0383 -0.2367 -0.0799
27427W        W42896  14.787   9.107   2.857 -0.1053  0.3379 -0.1184
27428W        W42897   5.027   3.168   0.329 -0.0923  0.0905 -0.0076
27429W        W42898   2.947   9.364  12.981 -0.2497 -0.2633  0.1624
27430W        W42899  16.107   8.104  11.103  0.2709  0.3644  0.1265
27431W        W42900   1.709   9.988  11.437 -0.0479 -0.1036 -0.1570
27432W        W42901  18.458  17.183   0.409 -0.6912  0.0197  0.0954
27433W        W42902   9.617   8.421   0.305  0.1189 -0.0985  0.0183
27434W        W42903   5.807   5.196   5.031  0.0239 -0.1513  0.0115
27435W        W42904  16.873   9.567  13.389 -0.2249 -0.2757  0.0796
27436W        W42905   4.502   2.583   3.901  0.0548  0.1347  0.1110
27437W        W42906   3.290  19.015   3.147  0.1139  0.0342 -0.3285
27438W        W42907   3.825  14.852  13.550 -0.0281  0.1623 -0.3506
27439W        W42908   1.322  10.066   2.128 -0.1695 -0.0592 -0.0995
27440W        W42909  11.545   3.288  10.640  0.2823  0.0881  0.2221
27441W        W42910   4.751  18.454   2.097 -0.2534 -0.0767 -0.1306
27442W        W42911  18.558   0.009  12.656  0.1623  0.0530 -0.1099
27443W        W42912  18.626   6.309  11.506  0.0976  0.1069 -0.2882
27444W        W42913  12.440   1.333  11.319  0.5774  0.1392 -0.0501
27445W        W42914   2.199   7.510  14.909 -0.1407  0.0699 -0.1629
27446W        W42915   9.041  16.999  13.043 -0.1180  0.1332 -0.0761
27447W        W42916   2.627  17.000  11.491  0.0868  0.0063 -0.2727
27448W        W42917  17.653   4.203   1.840  0.1162 -0.2781 -0.1089
27449W        W42918   2.550  14.380   5.230 -0.0539  0.0403 -0.2458
27450W        W42919  18.962  15.025   4.918 -0.1097 -0.2219 -0.0697
27451W        W42920   3.673  11.209  15.134  0.0595  0.0809  0.2547
27452W        W42921   1.062  12.058   0.393  0.2820  0.1855  0.0357
27453W        W42922   7.027   1.518  12.702  0.0425  0.2059 -0.1806
27454W        W42923   8.688   0.823   0.912  0.1065 -0.1482  0.2132
27455W        W42924  13.815  15.853  13.114 -0.0715  0.0491 -0.1705
27456W        W42925   6.412   1.526   3.519  0.1570  0.1559 -0.3392
27457W        W42926   1.303  18.808  13.875  0.0123 -0.5410  0.0609
27458W        W42927   8.989  14.861   0.372  0.1709  0.1696 -0.2722
27459W        W42928  11.285  10.885   1.942 -0.0403  0.1516 -0.2283
27460W        W42929  17.233   5.600   0.942 -0.0896  0.0853  0.4238
27461W        W42930   0.799   9.711   1.094 -0.3368  0.0058 -0.1049
27462W        W42931   0.801   8.669   4.803 -0.1741  0.2270 -0.0117
27463W        W42932  12.276   7.883  13.712  0.1364  0.2459 -0.1548
27464W        W42933  17.704  12.030  12.676 -0.1264  0.0710 -0.0765
27465W        W42934  11.041   0.423   3.453 -0.2106  0.0364 -0.0591
27466W        W42935  15.560  14.442  14.393  0.1985 -0.1411 -0.1844
27467W        W42936   1.128  16.800   0.067 -0.1213 -0.0752 -0.0650
27468W        W42937   1.778  18.768   0.942  0.0979 -0.1279 -0.0030
27469W        W42938  10.461  10.107   4.012 -0.1769 -0.1507  0.3806
27470W        W42939  18.981   4.425  13.110  0.1063  0.0163  0.2046
27471W        W42940  18.879  13.564  10.821  0.1578 -0.3179 -0.0304
27472W        W42941  10.226   7.102   5.399  0.2062 -0.1428  0.1075
27473W        W42942   3.871   1.044   3.145 -0.4473 -0.0825 -0.1371
27474W        W42943  11.064   8.463  10.098  0.1592  0.0219  0.1016
27475W        W42944   2.957  14.477   2.452 -0.1816  0.1909 -0.0705
27476W        W42945   8.234   9.303   2.636 -0.2151 -0.0359 -0.0733
27477W        W42946  16.429   4.627   3.060 -0.0337 -0.0728  0.0166
27478W        W42947  11.786  15.693  13.219  0.3676 -0.0300 -0.0987
27479W        W42948  15.464   0.064  13.078 -0.1482 -0.1851 -0.0773
27480W        W42949  18.761  13.060   1.986  0.0158 -0.1439 -0.1589
27481W        W42950   1.928   0.839  14.334  0.1396  0.0265  0.2081
27482W        W42951   1.153  12.628  11.993  0.0022  0.0137  0.2500
27483W        W42952   6.133  10.216   3.784 -0.0717  0.0270 -0.0138
27484W        W42953  10.599   9.475  14.394  0.0876  0.3599  0.1060
27485W        W42954   1.664   0.780   0.371  0.0955  0.1336 -0.0740
27486W        W42955  14.584  10.949  14.929 -0.0514 -0.2737  0.0249
27487W        W42956   6.838  11.714   2.727 -0.2809 -0.0194 -0.0475
27488W        W42957   2.027  11.242   1.137 -0.1762 -0.0616 -0.2620
27489W        W42958   9.558   2.537  12.212  0.5274  0.1808 -0.0924
27490W        W42959  15.266   8.067  12.703  0.1172 -0.1980 -0.0787
27491W        W42960   0.414   1.268  15.209 -0.0686  0.2948 -0.3535
27492W        W42961   0.730  16.410  14.728 -0.0052 -0.3630  0.5195
27493W        W42962   4.491   6.097  11.016 -0.0396  0.0031  0.2584
27494W        W42963   7.005  13.484   0.625 -0.0984  0.3180 -0.0569
27495W        W42964  12.935   8.755   4.611 -0.1857  0.1332  0.0996
27496W        W42965   1.450   2.702   3.346  0.1957  0.1587 -0.1593
27497W        W42966  15.276   9.116   3.723  0.0057 -0.4348  0.1884
27498W        W42967  18.890   3.032   2.059 -0.0044  0.2298 -0.0514
27499W        W42968  11.101  18.146  14.277  0.1003 -0.0020 -0.2922
27500W        W42969   6.299  13.832  11.242  0.0278 -0.2355  0.0417
27501W        W42970   3.987   7.955   4.118 -0.1456 -0.2555 -0.3940
27502W        W42971   0.127   4.746   3.253  0.0293 -0.0770  0.0095
27503W        W42972  18.755  18.808  13.569 -0.0104 -0.0016 -0.4053
27504W        W42973  10.766   4.095   0.173  0.0652  0.2406 -0.0554
27505W        W42974   5.634   9.287   3.169  0.0281  0.1267  0.0543
27506W        W42975   8.528  15.022   1.704  0.0023  0.2971  0.0857
27507W        W42976  18.705   5.889  10.608 -0.2584  0.2039  0.1056
27508W        W42977   1.153  10.690  13.748 -0.0447  0.0545  0.2645
27509W        W42978   5.065   5.437  10.978 -0.1721 -0.1301 -0.0302
27510W        W42979   3.111   8.538  11.159  0.4686  0.1311 -0.2598
27511W        W42980   5.930  14.449   2.634 -0.2157 -0.2300 -0.2654
27512W        W42981  18.996   4.863  12.755 -0.3769 -0.1862  0.1754
27513W        W42982   3.780  16.701  11.206  0.0850  0.1585 -0.0924
27514W        W42983   5.399   8.011   4.103 -0.0851  0.1477 -0.2187
27515W        W42984  18.650  18.324   4.043  0.3526  0.1079  0.4447
27516W        W42985  15.622  15.790   2.228  0.1275  0.3009  0.2476
27517W        W42986  10.928   6.881  13.373 -0.1856 -0.0640  0.0345
27518W        W42987  17.146   1.319   3.278  0.3226 -0.3143  0.2675
27519W        W42988  17.008  18.803   5.000 -0.1425  0.0668  0.1196
27520W        W42989   3.663   7.421   3.820 -0.0788  0.0613 -0.0206
27521W        W42990   1.358  12.241  12.921  0.0162  0.1189  0.3771
27522W        W42991   8.652  15.077  12.636  0.0246 -0.2069  0.2005
27523W        W42992   7.734   1.131  13.375 -0.0005  0.2439 -0.0206
27524W        W42993  10.715   4.273  12.037  0.0312 -0.4128 -0.1601
27525W        W42994   4.143   0.116   3.485 -0.0763  0.0274 -0.1847
27526W        W42995  13.639  11.135  12.001 -0.3676  0.0876 -0.2654
27527W        W42996  14.879   5.539   0.815 -0.0778  0.0278 -0.2320
27528W        W42997  18.640  10.778  12.888 -0.1086  0.1797  0.0065
27529W        W42998   0.070   8.611  11.904  0.1785  0.1995 -0.2261
27530W        W42999   4.784   6.302  11.486  0.0498  0.2646 -0.0966
27531W        W43000  16.829   2.331   1.524  0.0947  0.3391 -0.0356
27532W        W43001  11.585   4.785  12.415 -0.1591 -0.0557 -0.0631
27533W        W43002   4.635  17.383  12.709 -0.0761 -0.1521 -0.0846
27534W        W43003  10.707   2.077  11.118 -0.3198 -0.0406 -0.1401
27535W        W43004   8.523  16.366   1.253  0.3134  0.1994 -0.0733
27536W        W43005  15.047   8.091  11.869  0.3651 -0.2477  0.1913
27537W        W43006   7.783  15.986  14.686  0.0262  0.1827 -0.5113
27538W        W43007   8.982   6.279  10.959  0.2880 -0.0377 -0.1279
27539W        W43008   3.097   7.594   4.844 -0.0291 -0.3320 -0.1397
27540W        W43009  11.892  18.575   0.548 -0.0891 -0.0766 -0.0470
27541W        W43010   8.074   5.853  15.077  0.2340  0.1776  0.1878
27542W        W43011   3.297   7.234   1.698 -0.1052 -0.1364  0.2426
27543W        W43012   3.330  17.549   1.815 -0.1825 -0.4567 -0.3729
27544W        W43013  14.820  10.025   3.602  0.0578  0.1424 -0.0290
27545W        W43014  10.717  13.091  12.404  0.2711  0.1696  0.3608
27546W        W43015   9.207  10.107   4.896  0.1562 -0.0329 -0.0654
27547W        W43016   3.423  13.205   2.903  0.2080  0.1201 -0.1639
27548W        W43017   9.351  11.082   1.658  0.0093 -0.1827 -0.0477
27549W        W43018  14.074  10.146  12.097  0.3921  0.1710  0.0298
27550W        W43019  15.049   2.577   3.299 -0.1408 -0.4525 -0.2583
27551W        W43020   3.548   0.248  12.157 -0.1312  0.3005  0.0845
27552W        W43021  18.067   3.433  11.880  0.1590  0.0058 -0.1511
27553W        W43022  12.405  10.520  12.933  0.0191 -0.0835 -0.1106
27554W        W43023   8.167   6.167   3.269  0.2189  0.0760 -0.1249
27555W        W43024  18.440   5.260   3.665 -0.1617 -0.2372 -0.0125
27556W        W43025  14.200  17.477   1.532 -0.1196 -0.2941 -0.0333
27557W        W43026   4.746   3.260   1.107  0.2646  0.3584  0.3032
27558W        W43027  13.293   3.803  13.351  0.2242  0.2986 -0.0495
27559W        W43028   2.952  12.291   0.494  0.1560  0.0636  0.2576
27560W        W43029  11.527  10.112   2.484 -0.3764 -0.0586  0.2714
27561W        W43030  16.181  18.464   0.915 -0.1013  0.0759  0.0450
27562W        W43031   4.140  13.799  10.584 -0.1282 -0.2310 -0.5336
27563W        W43032  18.992   6.829   4.656  0.1685  0.2650  0.1053
27564W        W43033   7.410  14.076   3.188  0.1079  0.3028 -0.0780
27565W        W43034  14.255   3.529   1.503  0.2306  0.0422  0.0433
27566W        W43035  12.382  12.405  13.437 -0.3115  0.1486  0.2430
27567W        W43036   2.384   0.921   4.061 -0.0650  0.1168  0.0747
27568W        W43037   8.818   0.674  14.442 -0.1002 -0.0908 -0.0761
27569W        W43038  15.357  11.124   3.732 -0.0043  0.0136 -0.2258
27570W        W43039   4.962   6.886  13.700 -0.1981  0.2144 -0.0353
27571W        W43040  16.101   2.416  14.158  0.0348 -0.0401 -0.1563
27572W        W43041   0.301  14.801  11.849  0.0679  0.2827 -0.0466
27573W        W43042   0.965   3.882   2.928  0.0203  0.1199  0.0237
27574W        W43043  12.305   7.327   0.853 -0.2493 -0.1399 -0.1474
27575W        W43044  10.259  11.683   3.832 -0.0227 -0.1041 -0.0446
27576W        W43045  17.169  13.425   1.042  0.1349 -0.1951  0.0082
27577W        W43046   7.056   9.711  14.715  0.1423 -0.4671  0.1340
27578W        W43047   8.332   2.442  11.217  0.0197 -0.0310 -0.1248
27579W        W43048   1.070   6.983  11.478 -0.0751  0.1237 -0.0963
27580W        W43049   0.129  18.983  10.458  0.0023  0.2539  0.1632
27581W        W43050  18.039  15.476   3.482 -0.0388  0.2419 -0.1012
27582W        W43051  11.752   7.917  11.813  0.1776 -0.1975  0.0045
27583W        W43052   3.996   5.312   4.306  0.0863  0.3028  0.3001
27584W        W43053   6.286  18.175  13.871  0.2341  0.0190 -0.1396
27585W        W43054   4.616  16.703  13.573 -0.0044 -0.1823 -0.2501
27586W        W43055  15.547  18.290  14.805  0.0110 -0.2161 -0.1663
27587W        W43056  10.022   9.409   0.080  0.0615  0.3241  0.1535
27588W        W43057  14.174   2.643   1.292  0.1702  0.1501 -0.1531
27589W        W43058  13.264  12.320  13.799  0.0301  0.0295  0.2399
27590W        W43059   1.912  11.848  12.847 -0.1345  0.2181 -0.1569
27591W        W43060   1.711   9.462  11.641 -0.1407 -0.3606  0.0415
27592W        W43061   3.573   8.520  15.118  0.0490 -0.1647 -0.0816
27593W        W43062  15.599  11.681  14.235 -0.1795 -0.2509 -0.0252
27594W        W43063   3.941  17.658  15.208 -0.1660  0.1929  0.0291
27595W        W43064  12.029   2.755  14.165 -0.0587  0.0582 -0.1555
27596W        W43065   7.098   7.152  11.433 -0.1504  0.1677  0.4010
27597W        W43066  16.294   3.068  10.870 -0.1610 -0.2734  0.0405
27598W        W43067  13.260   6.775   2.069 -0.4382  0.0655  0.0214
27599W        W43068   1.373   3.490   2.924  0.3183  0.1124  0.1003
27600W        W43069  11.516  12.618  12.982  0.0114 -0.2583  0.2289
27601W        W43070   7.939   0.304   2.501 -0.1662  0.2199 -0.3303
27602W        W43071  10.373  16.341  13.094 -0.0108  0.0239  0.1047
27603W        W43072   4.497   9.332  15.270 -0.2010 -0.0442 -0.0557
27604W        W43073  17.759  18.660  13.093  0.0718  0.1120  0.0431
27605W        W43074   2.076  16.955   1.314 -0.0313 -0.2622  0.1570
27606W        W43075   6.866  12.195   1.034  0.1922 -0.1388 -0.0106
27607W        W43076   8.221   2.095   2.212  0.1063  0.2508 -0.0059
27608W        W43077  18.484  17.819  13.908 -0.0851 -0.0992  0.0226
27609W        W43078   5.597   0.700   2.740  0.0658  0.2658  0.1093
27610W        W43079  10.896   2.628  12.491  0.0420  0.1073 -0.0896
27611W        W43080  12.976  14.361   0.580  0.0496 -0.0540 -0.5378
27612W        W43081  18.213  10.243  10.522  0.1391  0.1660 -0.0196
27613W        W43082  15.472   2.329   3.592  0.3278 -0.2769 -0.1442
27614W        W43083  10.511   3.285   2.948  0.1415  0.0881 -0.0141
27615W        W43084   4.895   3.602   0.354 -0.0733 -0.3391 -0.1095
27616W        W43085   0.328  18.759   2.597 -0.1189 -0.2253 -0.1205
27617W        W43086   0.051  16.206  12.547 -0.1206 -0.2001  0.2642
27618W        W43087   7.670   6.088  12.089  0.1940  0.3349  0.2869
27619W        W43088  13.063  15.990   2.545 -0.0088  0.2385 -0.0785
27620W        W43089   6.459  17.918  11.754 -0.0678  0.1306 -0.0587
27621W        W43090  15.928  12.383  10.186  0.3461 -0.0601 -0.0052
27622W        W43091   3.093   8.860   0.151  0.1361 -0.2388  0.0472
27623W        W43092  17.833   2.349   2.127  0.2682  0.0924 -0.0159
27624W        W43093   9.977   4.307  12.383 -0.2301 -0.2100  0.0287
27625W        W43094   8.654  16.007   1.547 -0.0411  0.2739  0.1013
27626W        W43095   6.424   7.832   1.485 -0.1018 -0.2531  0.0233
27627W        W43096  18.561   0.146  10.601  0.3672 -0.2625 -0.0806
27628W        W43097  13.650   0.133   0.196 -0.0651  0.1409  0.1267
27629W        W43098  10.058  10.754  11.234  0.0592  0.0146  0.0502
27630W        W43099  13.799  13.510  14.990  0.0322  0.0744  0.1286
27631W        W43100  15.216   5.892   3.301 -0.0310  0.1279  0.0322
27632W        W43101   9.052   7.362  14.429 -0.1340  0.0599  0.2990
27633W        W43102  12.288   6.415   1.739 -0.4380 -0.0961  0.2504
27634W        W43103  11.631   3.886   3.394 -0.0363 -0.1841 -0.2457
27635W        W43104   4.847  15.777  12.019 -0.3040 -0.1871  0.4405
27636W        W43105   9.749   7.038  13.013 -0.0106  0.0677 -0.2861
27637W        W43106  12.250  12.126  11.187  0.2018  0.2090 -0.1004
27638W        W43107   9.779  17.368  14.290  0.2735 -0.3549  0.0127
27639W        W43108  12.380   5.899  12.732  0.2935  0.0403 -0.0763
27640W        W43109  11.754   7.875   0.131 -0.0888  0.0094 -0.0725
27641W        W43110  15.635  13.242  11.465 -0.1213  0.0029  0.3032
27642W        W43111   9.441  16.024  13.984  0.0577 -0.0754  0.2820
27643W        W43112   2.123   1.321   3.721  0.2591  0.0815  0.0719
27644W        W43113  18.730   9.695  14.772 -0.1466  0.3412 -0.0735
27645W        W43114   9.496   1.137   2.095  0.1588 -0.0930 -0.2212
27646W        W43115   5.363  14.372   4.139  0.1598 -0.3011  0.0305
27647W        W43116  17.274   2.640   1.216 -0.0130 -0.1213 -0.1432
27648W        W43117  18.315   1.798   0.296 -0.1455 -0.2558 -0.0903
27649W        W43118   4.895   8.639  11.819 -0.2527 -0.1125 -0.0362
27650W        W43119   4.620  10.322   1.418  0.0427 -0.0735  0.0871
27651W        W43120   8.407   2.200  12.253  0.1262 -0.0430  0.0344
27652W        W43121   0.530  14.003  10.858 -0.4796  0.1153 -0.0711
27653W        W43122  10.920   9.649   5.283 -0.0327  0.0204 -0.2355
27654W        W43123  16.756   1.052  13.577  0.3357  0.3053 -0.0108
27655W        W43124   3.349  17.050  14.885 -0.0040  0.0904  0.5808
27656W        W43125  11.340   9.673   2.188 -0.2229  0.1257 -0.0229
27657W        W43126   3.081  12.352   1.003  0.2650 -0.3096 -0.1581
27658W        W43127  13.407   5.551  11.856 -0.0209  0.2468 -0.1509
27659W        W43128   8.468   7.189   0.422 -0.0671  0.4486 -0.0403
27660W        W43129  10.644  10.485  11.802  0.2198 -0.1349  0.1946
27661W        W43130  10.472  10.053  13.423 -0.2349  0.0179  0.2512
27662W        W43131  17.964  11.978   4.781  0.0656  0.0273  0.0408
27663W        W43132   0.904  18.749   4.355 -0.0512 -0.4081  0.2065
27664W        W43133   6.584   1.315  11.686 -0.0607  0.1758  0.1974
27665W        W43134   7.443  17.975  14.309 -0.0798 -0.0440  0.0693
27666W        W43135   1.713  16.188  12.855 -0.3843 -0.0418  0.0625
27667W        W43136  17.320   9.085  10.293  0.1431 -0.2163 -0.0290
27668W        W43137   7.785   5.487  13.591 -0.0371  0.3826 -0.0022
27669W        W43138  14.464   4.404   1.699  0.1149  0.0863  0.2580
27670W        W43139  17.468  14.025   4.456  0.1050  0.0244  0.0427
27671W        W43140   8.377  18.722   3.571  0.0100  0.4683 -0.0211
27672W        W43141  17.740  11.394  11.879  0.0141  0.2297 -0.0415
27673W        W43142   3.480   9.844   4.022  0.1465 -0.3149  0.0599
27674W        W43143  16.473   4.826   4.427 -0.2027  0.4646  0.0713
27675W        W43144  17.653   6.391   0.012  0.1468  0.2940 -0.0480
27676W        W43145   7.087  13.467  12.310  0.0068 -0.0429 -0.1252
27677W        W43146  12.538  16.992  10.565  0.1990 -0.1588 -0.1709
27678W        W43147   9.550   7.053   2.128  0.2856  0.0992  0.1998
27679W        W43148  13.594   7.212   0.649  0.0340  0.2397 -0.1248
27680W        W43149  11.043   8.942   1.434  0.4085 -0.2496  0.1823
27681W        W43150  13.323   0.962  11.268 -0.2133  0.1090  0.0268
27682W        W43151  11.131   3.859  13.845 -0.0282 -0.1160  0.3816
27683W        W43152  10.948   1.248  14.818  0.0708  0.1970  0.3776
27684W        W43153   8.365   9.694  14.917  0.0800  0.1082 -0.0008
27685W        W43154   2.239  10.139   4.617 -0.0538 -0.5673 -0.1192
27686W        W43155  14.017   5.656  11.914  0.2100  0.2253 -0.2087
27687W        W43156   5.613  13.014  14.274  0.2659 -0.0311 -0.4040
27688W        W43157   5.113   2.741  13.611 -0.3043 -0.2936 -0.2987
27689W        W43158  13.755   7.713   4.139 -0.2256  0.0688  0.1417
27690W        W43159  18.484  14.893   4.976  0.1300  0.3050  0.1132
27691W        W43160   9.053   9.885   2.262  0.5312 -0.0492 -0.0199
27692W        W43161   9.122   3.728  15.299 -0.0612 -0.0471  0.2253
27693W        W43162  18.471  15.973   3.001  0.0977  0.1145  0.4551
27694W        W43163   9.210  11.150   3.397 -0.2368 -0.1261  0.1133
27695W        W43164  10.675   0.553   4.064  0.1081 -0.1550 -0.1509
27696W        W43165   3.027   7.312  14.850 -0.0074  0.1466  0.1101
27697W        W43166  12.020   2.600   1.883 -0.3950  0.1602 -0.1163
27698W        W43167   8.618   5.732  12.023  0.0612  0.1214  0.0671
27699W        W43168  11.397  16.551   4.560  0.1953  0.1743  0.3677
27700W        W43169  13.120  14.552   2.515 -0.2462 -0.0993  0.0113
27701W        W43170   6.540   4.585   3.417 -0.0695 -0.0830  0.1511
27702W        W43171  13.953  10.907   4.414 -0.0378  0.1273 -0.2477
27703W        W43172  17.148   6.056  13.290  0.0490  0.1765  0.0754
27704W        W43173   4.185  10.723  14.058  0.1481  0.1381  0.1514
27705W        W43174  18.407   7.162  13.629  0.0594  0.0042  0.1258
27706W        W43175  15.259   4.367   4.763  0.2721  0.1621  0.1342
27707W        W43176   6.684   1.178   3.292 -0.1215 -0.0304  0.0566
27708W        W43177   4.795   2.195   3.939 -0.2103  0.0193 -0.1444
27709W        W43178   7.610   8.718   3.683  0.1229  0.1507  0.0129
27710W        W43179  11.774   5.836   5.737  0.2968  0.2127 -0.1646
27711W        W43180   9.619  17.352  12.774  0.2563 -0.2584  0.3207
27712W        W43181  13.111  10.161  13.610 -0.0084  0.0873 -0.0189
27713W        W43182  16.748   3.285   1.086 -0.4151 -0.2493  0.0472
27714W        W43183   4.634  12.183  10.572 -0.4532  0.3329  0.0319
27715W        W43184  10.058  11.634   2.740  0.1245  0.1074  0.1732
27716W        W43185  19.019   9.275   3.073 -0.1610  0.2788 -0.1386
27717W        W43186  16.053   7.367   1.212  0.0065  0.2642  0.0823
27718W        W43187  14.138   4.847  10.715  0.0588 -0.1075  0.2619
27719W        W43188   7.422  11.274   2.738  0.0205 -0.1871  0.0090
27720W        W43189   5.054  16.194   4.706  0.0122 -0.1556 -0.2104
27721W        W43190   1.683   7.007  13.308  0.1837  0.0607  0.0175
27722W        W43191   0.398  11.961  10.842  0.0780 -0.0571  0.0009
27723W        W43192   5.771   3.315  14.594  0.1904 -0.0978  0.1197
27724W        W43193   7.191  17.493   2.972 -0.1528  0.2267 -0.1989
27725W        W43194   6.938  13.402   2.097  0.3089 -0.3473 -0.0323
27726W        W43195  16.635  13.533  14.624 -0.0920 -0.1664 -0.3731
27727W        W43196   0.575  14.503  14.362 -0.4830  0.4274 -0.2904
27728W        W43197   7.634   5.090   1.310  0.0488 -0.3071  0.0207
27729W        W43198  18.832   8.665  14.746 -0.1542  0.0833 -0.2946
27730W        W43199  17.306   2.784  11.825 -0.0005  0.0887  0.2169
27731W        W43200  14.751  14.279   0.695  0.1274 -0.3132 -0.0797
27732W        W43201  17.972   2.144  13.246 -0.3397 -0.0675  0.1431
27733W        W43202   5.059   2.812   1.557 -0.0127 -0.3053  0.0984
27734W        W43203   2.858  18.310   2.050  0.1839 -0.0683  0.1516
27735W        W43204   4.957  18.104  15.151  0.2070 -0.0071  0.1578
27736W        W43205  15.966   7.564   0.768 -0.2580  0.2708  0.0660
27737W        W43206  11.239   6.785   2.046  0.0150  0.2352  0.1299
27738W        W43207   1.586  15.488  12.532  0.0153 -0.2539 -0.0182
27739W        W43208  11.669  10.158  10.400  0.0246 -0.1553 -0.2912
27740W        W43209  16.721   5.699   3.604 -0.0171 -0.1078  0.3132
27741W        W43210  10.748   9.571  10.647  0.0889 -0.2561 -0.0092
27742W        W43211  17.958  17.603  12.359 -0.1717 -0.0766  0.1839
27743W        W43212   2.552  14.708   1.039 -0.0706  0.0725 -0.3441
27744W        W43213   8.393  13.520   3.989 -0.2279  0.0605 -0.2006
27745W        W43214   6.977   2.911  15.001 -0.0746  0.3867  0.0134
27746W        W43215  16.679  10.666   3.771  0.2234 -0.1492 -0.0998
27747W        W43216  15.798   5.625   2.739  0.0535 -0.0386  0.0067
27748W        W43217  10.939   5.445   3.368 -0.1422 -0.2103  0.0433
27749W        W43218  12.890  18.638   0.106 -0.1800  0.2370 -0.2412
27750W        W43219  14.785   5.903  13.473  0.0374 -0.0577  0.0797
27751W        W43220   8.799   6.558   3.819  0.0192 -0.1159 -0.1869
27752W        W43221   7.532   7.675  14.808  0.0458  0.0630  0.1059
27753W        W43222   6.600  11.899  11.680 -0.3716  0.1140 -0.2596
27754W        W43223  15.476  12.548  10.347 -0.3119 -0.2361 -0.2315
27755W        W43224  17.241   1.363   9.352  0.1258  0.1772 -0.0457
27756W        W43225  13.452   2.573  15.060  0.1531 -0.2924  0.1423
27757W        W43226  16.950  12.783  11.017 -0.1009  0.3909  0.0473
27758W        W43227   1.386   5.048  11.603  0.1353 -0.0029 -0.1138
27759W        W43228   1.849  10.792  11.626 -0.0087 -0.3319  0.1052
27760W        W43229  16.186  16.822   0.029  0.0562 -0.1037  0.0459
27761W        W43230   9.893   6.521  11.943  0.0440  0.0065 -0.2387
27762W        W43231  14.176   5.848   3.660 -0.0812  0.1073 -0.3447
27763W        W43232  17.042  16.490   9.464 -0.1426  0.0496 -0.0167
27764W        W43233  13.543   8.712  12.949 -0.0915  0.2025 -0.4162
27765W        W43234   2.456  12.215   1.395  0.7062  0.1665  0.2457
27766W        W43235   6.362  14.106   2.930  0.1473  0.1027  0.0226
27767W        W43236  14.608   3.402  13.154  0.0666  0.1522  0.1027
27768W        W43237  14.847  14.117   3.488  0.1361  0.0628  0.0902
27769W        W43238  15.802  10.137   2.028 -0.2436 -0.3708 -0.0619
27770W        W43239   6.366  18.693  13.912  0.1779 -0.3149  0.0004
27771W        W43240  10.843  14.606   3.217 -0.0681 -0.3170 -0.1142
27772W        W43241  18.632   7.832  13.697 -0.0512  0.0657  0.0803
27773W        W43242  12.823  12.063  13.927  0.3715  0.0076  0.3324
27774W        W43243   2.874   0.998  11.254 -0.0679  0.0063  0.1285
27775W        W43244  11.207   8.719  13.335 -0.2007  0.0555 -0.2270
27776W        W43245   9.735  16.866  14.506 -0.2593 -0.0214  0.0235
27777W        W43246  16.224   1.477   2.349 -0.0491 -0.2116 -0.0938
27778W        W43247  15.066  15.643  14.789  0.2506 -0.0344  0.0500
27779W        W43248   6.070   3.705  11.742 -0.1666  0.0650  0.0493
27780W        W43249   2.091  12.994  11.249 -0.2492  0.5459  0.2791
27781W        W43250   7.996   4.259  13.085 -0.0531  0.2206 -0.1065
27782W        W43251  14.595  15.411   3.337  0.4675  0.2561  0.2516
27783W        W43252   6.689   1.186  14.617  0.0730 -0.0530  0.0289
27784W        W43253  11.667   1.626   3.432  0.0646 -0.1004  0.1614
27785W        W43254   9.283  16.050   2.883  0.2048  0.1498 -0.0687
27786W        W43255  18.264   7.664   1.061 -0.0659 -0.0746 -0.0504
27787W        W43256   0.767   2.113   2.677 -0.1533 -0.0374 -0.2108
27788W        W43257  13.415  15.519   2.712  0.3226 -0.2633 -0.0610
27789W        W43258   6.078  17.440  13.085  0.1240 -0.4155  0.1299
27790W        W43259   2.893   3.075   4.658 -0.2671 -0.4458  0.1344
27791W        W43260   7.995   0.902  12.892 -0.1576 -0.2079  0.0216
27792W        W43261   9.719  11.636  10.879  0.0948 -0.0576 -0.1923
27793W        W43262   2.194  11.663  11.602  0.1261  0.0218 -0.2369
27794W        W43263  13.471   9.745   4.414 -0.1706 -0.1649  0.0010
27795W        W43264  14.915   1.970  13.833  0.3177 -0.2365  0.0504
27796W        W43265  14.741  10.986  10.424 -0.0840 -0.0390 -0.2426
27797W        W43266   8.306  14.503  14.073  0.3504  0.4299  0.1015
27798W        W43267   4.896  11.821  15.131  0.0234  0.1318 -0.0180
27799W        W43268   7.095   2.892  12.899 -0.0391 -0.8156 -0.0359
27800W        W43269  13.521  10.780  10.997 -0.1294  0.2560 -0.0232
27801W        W43270  14.006   9.512   3.892  0.2627 -0.0214 -0.0555
27802W        W43271   5.629  17.682   1.897  0.2997  0.1405  0.1011
27803W        W43272   4.599  18.007  14.490 -0.0410 -0.0601  0.2195
27804W        W43273  17.339  10.047  11.602 -0.0718 -0.0856  0.2943
27805W        W43274  12.074   2.860   0.019  0.0807  0.1961  0.1351
27806W        W43275  12.084   5.803   1.386  0.0345  0.0464  0.0114
27807W        W43276  10.445  17.197  13.493  0.1100  0.2078  0.1056
27808W        W43277  13.954   3.136   0.607  0.0358  0.1918 -0.0751
27809W        W43278   3.486   9.018   0.685 -0.0511  0.0643 -0.0732
27810W        W43279   0.710  16.102  10.377 -0.3862  0.1113  0.0900
27811W        W43280  11.039   6.233   4.223 -0.0218 -0.2436 -0.0985
27812W        W43281   5.370   1.555   1.198  0.0530  0.0439  0.1432
27813W        W43282   5.807   4.532  15.206  0.0041 -0.2129  0.0253
27814W        W43283   5.274   0.472   3.057  0.1839 -0.3165 -0.0888
27815W        W43284   2.110   2.434  11.802 -0.0256 -0.0799 -0.2332
27816W        W43285  17.449  17.239   4.276 -0.2025  0.2386  0.0978
27817W        W43286   4.056   2.053  14.984 -0.0036  0.3160  0.1049
27818W        W43287  12.782  12.447   2.050 -0.1033 -0.1331  0.1748
27819W        W43288   1.054   3.847  13.510 -0.0647  0.0094  0.0577
27820W        W43289   5.615   2.831   9.496  0.0854  0.0916 -0.0623
27821W        W43290  14.550   5.972  15.162 -0.1100 -0.2225 -0.4118
27822W        W43291  10.145  11.815   0.997 -0.1770  0.0022 -0.0738
27823W        W43292   0.484  12.151  12.691 -0.0877 -0.0889  0.0007
27824W        W43293   6.365  18.367  14.502 -0.0271  0.0012  0.0774
27825W        W43294  10.601   3.613   0.316 -0.2689 -0.3285  0.2148
27826W        W43295  10.740   0.326  13.024  0.0638 -0.2312 -0.1752
27827W        W43296  16.999   2.694   3.384  0.1176 -0.1244  0.1727
27828W        W43297   1.186  11.576   4.746 -0.1912  0.0697  0.1480
27829W        W43298  16.749  12.218  14.345 -0.2619 -0.1800  0.2337
27830W        W43299   2.629   9.008   2.887  0.1993 -0.1929  0.1702
27831W        W43300   5.492   3.027  12.907 -0.2354 -0.3241  0.1564
27832W        W43301   4.689  14.403  12.799 -0.1022  0.2607 -0.2606
27833W        W43302  18.442   6.015   0.685 -0.0550 -0.0227  0.3626
27834W        W43303  15.732  12.517  10.800 -0.0873 -0.0279 -0.0360
27835W        W43304  11.519  13.411  10.489 -0.0497  0.1410 -0.1617
27836W        W43305   8.295  14.645  15.359 -0.1145 -0.1403 -0.2086
27837W        W43306   0.973   6.067  10.804 -0.1978  0.1799  0.1266
27838W        W43307  18.287  16.411  12.436  0.1540 -0.0596 -0.1317
27839W        W43308   5.424   3.254  11.350  0.3590  0.0320  0.3564
27840W        W43309  15.812   8.251   2.814 -0.0539 -0.0436  0.1418
27841W        W43310  10.407   9.763   3.476  0.0269 -0.1120  0.0294
27842W        W43311   0.860   9.585   5.822  0.0332 -0.0123 -0.0995
27843W        W43312  15.302  12.716   5.480 -0.2687 -0.0217 -0.3396
27844W        W43313   7.601  15.492   4.980 -0.0271  0.0765 -0.2573
27845W        W43314   8.237   8.889  14.092  0.2245 -0.2779  0.0700
27846W        W43315   2.467  13.713  10.889  0.1059  0.3898  0.1409
27847W        W43316  15.540   9.054   4.551 -0.1606  0.0227 -0.2627
27848W        W43317   2.385  12.246   2.667 -0.1684 -0.1412  0.0239
27849W        W43318   4.427  11.467  12.042  0.2699 -0.1456  0.0622
27850W        W43319   4.280  10.148  11.499 -0.3407 -0.0832  0.1782
27851W        W43320   2.388   7.394  12.019  0.1356  0.3896 -0.1452
27852W        W43321   3.190   9.456  10.606  0.1317  0.1428 -0.0545
27853W        W43322  16.754   7.775  10.514  0.0931 -0.1676 -0.2206
27854W        W43323  10.298  17.756   5.090  0.2323 -0.1043 -0.1067
27855W        W43324   8.605  11.282   1.242  0.1086 -0.2052 -0.3310
27856W        W43325   2.448  17.806   4.906 -0.2861  0.1732  0.3001
27857W        W43326  11.954   8.796  14.204 -0.3801 -0.2176  0.2284
27858W        W43327   3.943   4.609  13.943  0.1056 -0.1478  0.0106
27859W        W43328   5.150  10.448   0.510 -0.1223  0.1965 -0.0719
27860W        W43329  18.688  17.662   4.836 -0.2335 -0.1797  0.1092
27861W        W43330  11.727   0.069  12.885  0.1904  0.1861 -0.0053
27862W        W43331  16.738   6.200   1.398  0.0139 -0.0450 -0.2263
27863W        W43332   7.877   5.275   4.206 -0.2081  0.0030  0.0565
27864W        W43333  14.116   2.380  11.912 -0.0907  0.0741  0.2392
27865W        W43334   5.055  10.126   0.912 -0.1800 -0.3622  0.1099
27866W        W43335  12.059   7.830  12.271 -0.3756 -0.3553  0.1151
27867W        W43336   1.108  16.225  12.110 -0.1425 -0.1855 -0.6150
27868W        W43337  16.694   7.120   4.706  0.1055 -0.2067  0.2700
27869W        W43338   4.653   7.262  12.502  0.0000 -0.1829 -0.1247
27870W        W43339   1.377  17.266  13.175 -0.3496 -0.0782  0.1726
27871W        W43340  10.094   0.456   2.088  0.2580 -0.0409  0.0068
27872W        W43341   7.587   4.717   2.481  0.1461  0.2625  0.3287
27873W        W43342  15.314  15.102   0.226  0.2089  0.1160 -0.1027
27874W        W43343   2.202   5.519  14.547  0.1920 -0.0387 -0.0246
27875W        W43344   4.528  17.626  10.056 -0.0886  0.2881 -0.2119
27876W        W43345   0.537   8.612  11.753  0.2725  0.0646 -0.0124
27877W        W43346  14.661   7.349   3.052  0.1124  0.0268 -0.1225
27878W        W43347   8.975   3.329   9.730  0.1960  0.0041 -0.1985
27879W        W43348  10.965  13.926   0.121 -0.2292 -0.0762 -0.0866
27880W        W43349   3.863   9.665  13.423  0.0460  0.2941 -0.0604
27881W        W43350  12.202  11.494   1.076 -0.0125 -0.0786 -0.2126
27882W        W43351   6.619  18.077   5.326  0.2137 -0.2251  0.0599
27883W        W43352  14.239   2.496   3.365 -0.2657 -0.2126 -0.1425
27884W        W43353   5.264  15.265   1.176  0.1289  0.6310 -0.0128
27885W        W43354   8.425   4.924  10.689  0.1001 -0.0780 -0.4167
27886W        W43355  15.046   6.446  10.165  0.0005  0.1589  0.1529
27887W        W43356  17.001   7.881   3.608  0.0879  0.0971 -0.0496
27888W        W43357   7.881  12.788   3.653  0.0185 -0.4709  0.2919
27889W        W43358  18.682  16.661  13.662 -0.2332 -0.0572 -0.0635
27890W        W43359   5.886  10.804   1.049  0.1736  0.0083  0.3177
27891W        W43360  15.188   4.768  13.891 -0.0906 -0.2713 -0.1076
27892W        W43361  15.926  11.997   1.609  0.0275  0.0924 -0.0806
27893W        W43362   4.638   9.989  12.429  0.1878  0.0920  0.2994
27894W        W43363  16.290  18.919   1.350 -0.4334 -0.1031  0.2572
27895W        W43364   2.817  16.604   1.547  0.0982 -0.0886 -0.2200
27896W        W43365  17.905  18.711   3.042  0.1113 -0.1250 -0.1257
27897W        W43366   5.545  12.179  14.816  0.0656  0.1100 -0.0835
27898W        W43367  12.194   0.804   4.754 -0.0372 -0.0614  0.1591
27899W        W43368  10.917   6.095  15.004  0.0578 -0.0523  0.0670
27900W        W43369   8.571  18.812   3.093 -0.2528  0.1206 -0.0736
27901W        W43370  11.258  11.592  12.020 -0.1657 -0.0353  0.1864
27902W        W43371   8.039  10.161  15.362 -0.0404  0.1810  0.0861
27903W        W43372   3.243   2.564  13.362  0.3046 -0.1827  0.2078
27904W        W43373   1.985  10.215  13.053  0.1154 -0.2541 -0.0718
27905W        W43374   4.033   3.622  10.571  0.2413 -0.2893  0.0882
27906W        W43375  17.780   4.016  14.878  0.0154 -0.1205  0.2163
27907W        W43376  18.358  18.378  11.996  0.2602  0.1448  0.1226
27908W        W43377   0.685   8.005  10.719 -0.0338  0.0268 -0.0763
27909W        W43378  18.303  10.818   3.968  0.0569  0.0391  0.1678
27910W        W43379   4.698   3.865   3.499 -0.1146 -0.1391  0.0162
27911W        W43380  14.988   0.498  11.491  0.1524  0.2826  0.3079
27912W        W43381   0.416  18.603  14.841  0.0017 -0.1871 -0.0123
27913W        W43382  18.170  12.758  14.168 -0.0582  0.3277 -0.3058
27914W        W43383   4.299   4.193   4.398  0.0723 -0.2194 -0.1169
27915W        W43384   3.360  14.452  11.725  0.0803  0.1523 -0.1846
27916W        W43385   8.228  12.296  15.284  0.0682 -0.0998  0.1239
27917W        W43386   3.004   3.813   1.514  0.2293  0.4610 -0.1754
27918W        W43387  14.517  15.097  12.727 -0.3555 -0.3372 -0.3154
27919W        W43388  15.463  16.539  11.899  0.0209  0.1958 -0.2459
27920W        W43389  13.825  10.479  11.238 -0.1628 -0.3554  0.1381
27921W        W43390   1.283  14.337  11.485 -0.0044  0.1112 -0.1472
27922W        W43391   1.444  16.958   4.716  0.0610 -0.1628 -0.0357
27923W        W43392  17.163   9.953   2.093  0.1969  0.1711  0.1999
27924W        W43393   6.041   3.548  14.987  0.3683  0.0681  0.0342
27925W        W43394  11.587   3.501   5.121 -0.0319 -0.0939 -0.0330
27926W        W43395   7.313  17.896   0.665  0.2130 -0.1963 -0.0099
27927W        W43396   0.974  12.797  12.405 -0.0870  0.1590  0.2458
27928W        W43397   5.221  17.889   0.204  0.0039  0.1286 -0.4304
27929W        W43398  14.246  17.472  12.649  0.0476 -0.1765  0.0565
27930W        W43399   7.275   6.936   4.982 -0.0929 -0.0130 -0.1128
27931W        W43400   5.316   0.282   1.042 -0.1497  0.0037 -0.2515
27932W        W43401  13.937  19.005   1.250  0.1768  0.1450 -0.0827
27933W        W43402   9.061   4.066  11.168  0.0123  0.1805 -0.0733
27934W        W43403   9.355  18.404  13.086  0.2488 -0.2607  0.3836
27935W        W43404  14.708   5.197   1.070 -0.0826 -0.1038 -0.0642
27936W        W43405   5.222  10.546   5.097  0.0788 -0.0839  0.0888
27937W        W43406   7.545   5.263   0.407  0.0222  0.0063 -0.0820
27938W        W43407   0.899   5.852   4.565  0.1578 -0.1778 -0.0174
27939W        W43408  10.131   5.665   1.732 -0.4609  0.2248  0.2633
27940W        W43409  14.280  18.936  13.820  0.2477  0.1634  0.1393
27941W        W43410   3.983   0.281  13.967  0.5161  0.1283  0.1405
27942W        W43411  12.907   5.753  11.428  0.1548 -0.0694  0.2115
27943W        W43412  11.610   9.845   5.822 -0.2837  0.1644  0.1883
27944W        W43413  13.821   9.228  11.936  0.0592 -0.2513 -0.0886
27945W        W43414  17.232  16.018  12.264  0.0051  0.0589 -0.3170
27946W        W43415   3.596  12.677  13.935 -0.1396 -0.0176 -0.2801
27947W        W43416  12.116   8.080   0.568 -0.2945 -0.3035  0.1453
27948W        W43417  18.838   3.714   9.760  0.1820  0.1574 -0.1372
27949W        W43418  15.176   2.332  14.593  0.4008 -0.1359 -0.0976
27950W        W43419   6.071  17.371  15.211 -0.0100  0.3057  0.1834
27951W        W43420  18.713  15.391   2.283 -0.0296 -0.3278 -0.1267
27952W        W43421   3.453   3.017  11.658  0.0087 -0.4423  0.2991
27953W        W43422  10.261  10.996   1.144 -0.2579  0.1460  0.1568
27954W        W43423   2.784   9.827  12.752 -0.1472  0.0368 -0.2119
27955W        W43424   7.021   6.260  12.371  0.0890 -0.0349 -0.1793
27956W        W43425   5.114  12.624   0.120  0.0504  0.0140  0.2600
27957W        W43426   1.623  11.994   9.909 -0.0463 -0.2046  0.1972
27958W        W43427  12.760   6.191   1.676 -0.1920 -0.1774  0.0869
27959W        W43428  15.926   4.478  15.269  0.0633 -0.4050 -0.0389
27960W        W43429  13.585  10.174   3.095  0.0660  0.3781 -0.0132
27961W        W43430  14.982  10.227  13.167  0.1536  0.0064  0.1833
27962W        W43431  10.041   6.680  12.865 -0.1534 -0.0520  0.0688
27963W        W43432  11.361   4.918   4.705  0.0774  0.0611  0.4742
27964W        W43433   7.241   3.000   3.233  0.0279 -0.0895 -0.0365
27965W        W43434   5.288   8.266   2.135  0.0127 -0.3283 -0.0097
27966W        W43435  18.838  11.850  10.717 -0.2157 -0.1681  0.1717
27967W        W43436  16.412   0.737  13.388  0.0354 -0.2929 -0.0261
27968W        W43437  11.436   6.238   2.901  0.0920 -0.2043  0.1487
27969W        W43438  12.482  17.051   3.574  0.0587 -0.2062  0.0151
27970W        W43439   6.627  14.749  15.033  0.0278 -0.3869  0.2201
27971W        W43440   8.299   5.320  11.314  0.0564  0.0058  0.0655
27972W        W43441   2.147   5.690  10.763  0.2390 -0.2981  0.1522
27973W        W43442  16.563  16.711  13.569 -0.1559  0.3712  0.0748
27974W        W43443   5.915   9.366  14.542 -0.0742  0.1660  0.1028
27975W        W43444   0.408  13.389  11.936 -0.1556 -0.0985  0.1070
27976W        W43445   3.831   5.441   5.761  0.4417  0.2640 -0.1007
27977W        W43446   7.679   9.234   2.955 -0.0324  0.0244 -0.0630
27978W        W43447   0.896  12.510   1.630 -0.1734  0.0188 -0.1112
27979W        W43448   9.369   1.958  12.570  0.0986 -0.0393  0.1303
27980W        W43449   7.049  12.890  14.228 -0.0197  0.1730 -0.0538
27981W        W43450  18.087   9.817  13.608  0.2873 -0.2988 -0.1195
27982W        W43451  15.572  14.274  12.635  0.2925 -0.0823  0.3264
27983W        W43452   6.483   0.164  12.414  0.1328  0.2505  0.1531
27984W        W43453   9.719   9.865   3.513 -0.0118  0.4206 -0.1153
27985W        W43454  13.572   0.262  14.807  0.5106 -0.0552 -0.0748
27986W        W43455  12.290  15.569   2.070 -0.0325  0.2272  0.3657
27987W        W43456   7.460   9.915   0.809 -0.0478  0.0513  0.2634
27988W        W43457  14.435   1.048  12.134  0.0248  0.0702 -0.0532
27989W        W43458   3.871   5.745  13.205  0.1492 -0.2367 -0.1562
27990W        W43459  10.682   5.010   2.580 -0.3332 -0.1155  0.0020
27991W        W43460  11.294   6.720   4.151 -0.1217  0.2081 -0.0563
27992W        W43461  18.134   3.542   4.346 -0.0039  0.0104 -0.1493
27993W        W43462   4.013   6.037  14.936  0.2006 -0.3820  0.2384
27994W        W43463  13.487  10.104  14.149 -0.2218 -0.1125 -0.0157
27995W        W43464  18.373  12.826  10.214 -0.4384  0.0689  0.0513
27996W        W43465   9.645   3.283  11.605 -0.1371  0.3090  0.2529
27997W        W43466  11.383  13.918  13.264  0.0014  0.1143  0.1098
27998W        W43467  16.655   7.957  13.499  0.0817  0.0437 -0.0988
27999W        W43468  12.894  16.255   4.778 -0.1073  0.1074 -0.2288
28000W        W43469   8.421   2.351  14.843  0.1454  0.0240  0.1198
28001W        W43470  11.195  14.785   3.499 -0.2112 -0.0062  0.1071
28002W        W43471  11.185   5.804   2.511 -0.1829  0.4152 -0.2125
28003W        W43472   4.280  18.234   1.103  0.4023 -0.1571 -0.1122
28004W        W43473   6.604   5.248   5.740  0.1132  0.1223  0.0226
28005W        W43474   5.394   5.685   2.118 -0.0534  0.1454 -0.0556
28006W        W43475  12.738  18.659   9.539  0.0230 -0.0534  0.0467
28007W        W43476   8.673   3.595   4.221 -0.1476  0.0874  0.0487
28008W        W43477   1.606  17.954   4.630 -0.0056  0.1207  0.0518
28009W        W43478  14.326  15.900   5.513  0.0278  0.2681 -0.3070
28010W        W43479   4.481   1.954  12.261  0.0700 -0.0668 -0.3767
28011W        W43480   9.336  18.829   0.152  0.1112 -0.2014 -0.1221
28012W        W43481   4.756  17.446   4.204 -0.0856  0.2260 -0.1216
28013W        W43482  15.826  18.203  13.067  0.0231 -0.0606 -0.2646
28014W        W43483   4.757   2.757  11.460 -0.0075 -0.0955 -0.3391
28015W        W43484   0.090  15.490   1.439 -0.1854 -0.0556 -0.1238
28016W        W43485   4.997   9.286   9.510  0.2200  0.0118  0.1949
28017W        W43486  14.359  10.494   1.122  0.2793 -0.1965 -0.1069
28018W        W43487  15.536  13.620  12.848  0.2183 -0.0648 -0.0894
28019W        W43488   8.651  14.246   1.875  0.2395 -0.2949 -0.0357
28020W        W43489  10.577  13.952   0.852  0.1411 -0.0377 -0.3153
28021W        W43490  14.051   9.573  11.139 -0.0559 -0.0037 -0.2862
28022W        W43491  11.655   0.671   3.990  0.1339 -0.0203  0.1532
28023W        W43492   3.783  14.154  11.724 -0.1882 -0.0528 -0.3064
28024W        W43493  15.112  13.203  11.818  0.1801  0.0586 -0.2281
28025W        W43494  15.455   9.421   5.305 -0.1428 -0.0198 -0.4369
28026W        W43495   8.630   5.428  12.842 -0.0014 -0.0032  0.2937
28027W        W43496   4.534   7.050  10.080  0.0308  0.1819  0.0925
28028W        W43497  14.625  13.628   5.440 -0.0747 -0.1211 -0.0768
28029W        W43498   6.226   4.221   3.123 -0.1305 -0.1649 -0.1491
28030W        W43499   0.465   2.911  13.442 -0.1009 -0.2117  0.0602
28031W        W43500   7.992  11.954  13.693  0.0055  0.3022  0.1854
28032W        W43501   0.023  10.559  11.731  0.1112 -0.1412  0.1577
28033W        W43502  11.693   8.149  13.977 -0.1322 -0.1031 -0.1090
28034W        W43503  11.875  11.985   2.818  0.0706  0.0118 -0.0553
28035W        W43504  14.858   5.038  11.553  0.1957  0.2503  0.0206
28036W        W43505   8.837  17.804   3.128  0.2356 -0.0197 -0.0949
28037W        W43506  17.373   5.348   2.409 -0.0355  0.0896  0.0786
28038W        W43507   7.594   6.913   0.304  0.1285  0.2435  0.4919
28039W        W43508  15.605  15.466  13.632 -0.0829 -0.2474 -0.1881
28040W        W43509  14.463   0.837  13.356 -0.0234 -0.3034 -0.1012
28041W        W43510   7.731   1.752  11.825  0.1456 -0.2098 -0.1932
28042W        W43511  10.972   1.616  12.557 -0.1291 -0.1351 -0.3090
28043W        W43512  15.871  17.756  11.181  0.2006 -0.0233 -0.2332
28044W        W43513  12.639  17.561   4.082  0.6109 -0.0053 -0.1680
28045W        W43514   2.070   1.943  11.332 -0.1069 -0.0703 -0.1185
28046W        W43515   9.658   0.699   0.284  0.0933 -0.0307 -0.2645
28047W        W43516   3.841   7.597  14.751 -0.3116  0.5696 -0.2381
28048W        W43517   5.057   8.636   1.410  0.3485  0.1501  0.1487
28049W        W43518   0.537   1.212  11.853  0.0566  0.3054  0.3585
28050W        W43519   3.408   4.958   0.188 -0.1345  0.0398  0.2503
28051W        W43520  14.580   8.679   4.018 -0.2057 -0.3917 -0.1082
28052W        W43521   0.594  16.889  11.642  0.0525 -0.1648 -0.1930
28053W        W43522  11.154   0.315  12.606  0.1341  0.0745  0.1210
28054W        W43523   7.044   3.056  14.204 -0.0492 -0.5524 -0.2872
28055W        W43524  12.091   2.345  11.269 -0.3075 -0.0713  0.2994
28056W        W43525  18.645  15.363   3.471 -0.3304 -0.2869  0.2592
28057W        W43526  14.622   7.028   0.942  0.3238 -0.2770  0.0856
28058W        W43527   1.070  18.941  11.795 -0.3926 -0.0926  0.0746
28059W        W43528  15.592  18.833   4.527  0.2448  0.0775  0.1965
28060W        W43529  15.796  10.301  13.150 -0.0887  0.1115 -0.2734
28061W        W43530  17.479   6.448  10.758 -0.0072 -0.0285  0.1946
28062W        W43531  11.734   7.446   4.517  0.2530  0.1974  0.1970
28063W        W43532   7.244  12.886  13.800 -0.3990 -0.1286 -0.0191
28064W        W43533  11.689   5.906  14.114 -0.1577  0.2852 -0.2499
28065W        W43534  12.181  16.006   2.820  0.2283 -0.0598  0.0767
28066W        W43535   3.412  15.990  11.524 -0.2858  0.1002 -0.3313
28067W        W43536  10.643   4.896  14.741  0.3131  0.1566 -0.3797
28068W        W43537  12.103  17.056   5.759 -0.3150 -0.1379 -0.1685
28069W        W43538   0.407  15.122   3.310  0.0853  0.2508  0.2285
28070W        W43539   6.126   0.820   5.073  0.0585 -0.2060 -0.0633
28071W        W43540  13.128   8.124   0.401  0.0015  0.0995 -0.3061
28072W        W43541  11.317  16.384  11.058 -0.0402 -0.1021  0.0106
28073W        W43542   3.520  18.297   1.512  0.0580  0.1561  0.1270
28074W        W43543   5.037   5.357   1.942 -0.2094  0.0683  0.0427
28075W        W43544   5.676  17.191  13.360 -0.0514  0.0026 -0.1632
28076W        W43545   8.502   0.898  11.508  0.0754  0.0944  0.2604
28077W        W43546   8.955  12.392   0.515  0.1806  0.0366 -0.1655
28078W        W43547  12.277   7.964  13.136  0.1687  0.1468 -0.0092
28079W        W43548   5.631  18.683   0.287 -0.2786  0.1206 -0.1331
28080W        W43549  14.725  14.724   4.155  0.0949  0.3247 -0.5526
28081W        W43550  10.121  12.675  13.963 -0.0312 -0.1140  0.0022
28082W        W43551  13.604   6.814  10.533  0.4238 -0.0812  0.0383
28083W        W43552  13.422  12.188  15.121  0.0197 -0.1582 -0.0623
28084W        W43553   7.950  12.452   4.934 -0.0937  0.0558  0.3066
28085W        W43554   9.998   5.027   4.351  0.0727  0.1370 -0.0778
28086W        W43555   9.494  17.953  11.568  0.0743 -0.1347  0.0684
28087W        W43556  18.039   5.176  10.385 -0.0421  0.0266 -0.1846
28088W        W43557  16.489   7.976   4.621 -0.0188  0.0070  0.3940
28089W        W43558  14.905   2.588   1.777 -0.0495  0.0481  0.2416
28090W        W43559   6.763  16.474  14.112  0.5760  0.1844  0.1307
28091W        W43560  15.712   8.343  12.641 -0.3708  0.0774 -0.2112
28092W        W43561   0.637  16.844  14.428  0.1443 -0.1219  0.0202
28093W        W43562   7.169  11.974  13.923  0.0652  0.3849 -0.1352
28094W        W43563   9.194   4.312   3.453 -0.1558 -0.3096  0.0054
28095W        W43564   9.230   0.282  13.027  0.0336 -0.2165  0.2050
28096W        W43565   7.661   9.753   3.197 -0.1040 -0.1258 -0.0099
28097W        W43566  15.452   5.949   1.905 -0.0199 -0.1303  0.2884
28098W        W43567   5.159  15.831   2.271 -0.1356 -0.3892 -0.1731
28099W        W43568   8.645  12.548   4.167  0.0850 -0.0212 -0.0784
28100W        W43569   7.612   0.750   3.850 -0.0734 -0.0562  0.1360
28101W        W43570  18.947  13.013   1.008  0.0801 -0.1945 -0.0069
28102W        W43571   3.295   7.865   1.398  0.0969 -0.3145  0.3205
28103W        W43572   6.372  17.207  12.297 -0.0141 -0.1421  0.1858
28104W        W43573  18.943  14.003   0.419 -0.3032 -0.0949 -0.0214
28105W        W43574  18.707  18.042   0.044  0.0695  0.1078  0.2271
28106W        W43575  18.877  11.632  14.786  0.0727 -0.2779  0.3843
28107W        W43576   9.273  18.242   1.237  0.1356 -0.0632 -0.1205
28108W        W43577  12.219  16.526  10.662  0.1801  0.0053 -0.1770
28109W        W43578  12.709   7.414  13.919 -0.1531  0.5283 -0.0683
28110W        W43579   1.482  15.028  14.323  0.3322 -0.3828  0.0593
28111W        W43580  18.768  13.333   4.793 -0.2401 -0.1549  0.2582
28112W        W43581   6.861  13.162   4.475  0.1511 -0.0583  0.0528
28113W        W43582   1.804   1.832   2.862  0.0730 -0.1575  0.3075
28114W        W43583   4.919   6.906   5.359 -0.2908 -0.1054  0.2526
28115W        W43584   0.509  10.186   0.522  0.3739 -0.0620  0.3268
28116W        W43585   1.720  12.300   4.948  0.1629  0.0039  0.0188
28117W        W43586   7.990  10.556   4.288  0.1196 -0.3806 -0.0366
28118W        W43587   6.962   0.932   2.364 -0.2701 -0.0932 -0.0439
28119W        W43588   8.245  10.978  15.357  0.1616  0.2160 -0.0967
28120W        W43589   3.083   4.634  11.003  0.0775  0.1243  0.1614
28121W        W43590  10.192   8.057   9.995 -0.4784  0.1290 -0.3049
28122W        W43591   6.727  14.301   2.430 -0.1159 -0.5087 -0.0687
28123W        W43592   4.838   4.857  11.082  0.0146  0.1598  0.2872
28124W        W43593  16.710  12.491  10.356  0.0814 -0.0620 -0.1108
28125W        W43594  15.638  14.037  11.443  0.2938 -0.0540  0.0747
28126W        W43595   7.968  14.871   1.552 -0.2196 -0.1909  0.1726
28127W        W43596   9.760  14.940  11.176 -0.2264 -0.2040 -0.1539
28128W        W43597  11.311   8.422  13.893  0.4647  0.0850  0.1050
28129W        W43598   3.004  15.049  13.595  0.1403 -0.1222  0.0867
28130W        W43599  13.845   0.326  11.919 -0.0067  0.1039 -0.0093
28131W        W43600   3.831   2.843   1.872 -0.0205  0.0640 -0.1679
28132W        W43601  12.332  17.766   0.409 -0.2193 -0.0426 -0.0613
28133W        W43602  10.838   8.981   4.863 -0.0320  0.0309  0.0149
28134W        W43603   7.036   5.419  11.759  0.1619 -0.4320 -0.2143
28135W        W43604  15.816  10.139  12.675  0.1084 -0.1773  0.0008
28136W        W43605  17.041  15.105   3.574  0.2287 -0.0909  0.2447
28137W        W43606   4.238   9.474   3.060 -0.2235  0.2070 -0.2911
28138W        W43607   4.548  16.593   0.928  0.1564  0.0339 -0.0469
28139W        W43608  12.442   3.213  13.281 -0.0718 -0.0542 -0.4262
28140W        W43609  10.339   0.462   1.542 -0.0161 -0.2052  0.0693
28141W        W43610   8.862  12.010   9.581  0.1241 -0.0780  0.0667
28142W        W43611   9.211  17.186  10.899 -0.2492 -0.0018  0.0099
28143W        W43612  15.302   2.519   4.971 -0.0297  0.3142  0.3270
28144W        W43613  13.102  10.693  10.636  0.3464 -0.2488 -0.1864
28145W        W43614  16.521  11.331  12.797  0.2952  0.0919 -0.2377
28146W        W43615  18.552   9.832   0.481 -0.1673  0.0727  0.0816
28147W        W43616  15.315   3.580   2.553  0.1692  0.1737  0.1924
28148W        W43617   9.865  17.756  12.673 -0.0285 -0.1585  0.1259
28149W        W43618   6.544  16.925  14.360  0.2073  0.4133  0.2632
28150W        W43619   2.503   6.067   3.920 -0.0775  0.4752  0.0757
28151W        W43620   9.348   5.067  12.219 -0.1605  0.0467 -0.2906
28152W        W43621  10.960  14.192  11.728  0.1701  0.0921 -0.2465
28153W        W43622   7.944  17.754  13.453 -0.2451 -0.0449  0.0252
28154W        W43623   2.143   1.236   4.380  0.1440 -0.0565 -0.3419
28155W        W43624   1.528   2.893   0.085 -0.2210 -0.1527  0.1142
28156W        W43625   0.831  13.254   0.485 -0.0074  0.1321 -0.1556
28157W        W43626   6.802   5.437  11.085 -0.0237  0.1068 -0.2896
28158W        W43627   7.927   9.161  11.962 -0.0530  0.0573 -0.0535
28159W        W43628   9.102  15.616   1.447  0.0176 -0.0473 -0.2242
28160W        W43629   6.979  10.519   3.053  0.0682  0.1386 -0.2706
28161W        W43630  16.327   9.139   2.999  0.1122  0.1156 -0.0981
28162W        W43631  10.061  14.896   4.757  0.0060 -0.0406  0.3888
28163W        W43632   3.707  17.323   0.686 -0.2402  0.2421 -0.3819
28164W        W43633   5.481  18.037  15.040 -0.3912 -0.2399  0.0246
28165W        W43634  17.046   5.433   6.182 -0.3019 -0.0263 -0.0415
28166W        W43635  14.315  18.828   2.434 -0.3178  0.2048  0.0261
28167W        W43636  15.935  10.053  11.719 -0.2043 -0.0747 -0.1237
28168W        W43637  16.701   4.539  14.831  0.4416  0.1643 -0.0780
28169W        W43638   2.382   0.145  10.615 -0.0858 -0.2373 -0.1601
28170W        W43639  11.457  11.491   4.613 -0.1183  0.2565 -0.2086
28171W        W43640   3.339   1.532   1.159  0.0725  0.1832  0.4758
28172W        W43641   2.175  11.313   0.129 -0.0262 -0.2016  0.1982
28173W        W43642   0.439   6.494   2.035 -0.1326 -0.1397  0.1579
28174W        W43643   1.850  11.401   2.603  0.0091  0.1700 -0.1942
28175W        W43644   7.430   6.667   1.149  0.0637  0.1219 -0.0128
28176W        W43645   0.057  17.082   3.651  0.2726 -0.0070  0.0632
28177W        W43646  11.970   0.178  14.981 -0.0518  0.0621 -0.3449
28178W        W43647   4.093   6.031   0.595 -0.3184 -0.0752  0.4604
28179W        W43648  10.949  15.570  10.370 -0.0846  0.3892 -0.0299
28180W        W43649   0.003   2.289  11.945 -0.0244  0.0281 -0.0609
28181W        W43650   9.751  11.436   3.935 -0.3408 -0.2903 -0.1172
28182W        W43651   9.026   2.055   0.750  0.0646  0.0297  0.1370
28183W        W43652   6.574   5.027   2.548  0.1381  0.2955  0.1177
28184W        W43653   8.922  13.294   1.610 -0.2316  0.0733 -0.0034
28185W        W43654   7.550  16.361   5.018  0.5473 -0.0810  0.0090
28186W        W43655   0.626  10.042   3.312 -0.0840  0.1667 -0.3692
28187W        W43656   2.208   0.685   4.456  0.2846  0.1991  0.0388
28188W        W43657   0.436  16.672  13.946 -0.0488 -0.1806  0.4081
28189W        W43658  12.558   4.477  11.584  0.1366  0.2580 -0.4022
28190W        W43659  16.555  10.101  14.158  0.0700 -0.0587  0.1527
28191W        W43660   4.204  16.617   2.829  0.0120 -0.2226 -0.1066
28192W        W43661  18.472   9.012   4.742 -0.0900  0.0619  0.4145
28193W        W43662  15.173   8.670   9.440 -0.2411 -0.1476  0.0242
28194W        W43663   0.403  16.716   3.722  0.1492 -0.2960 -0.1499
28195W        W43664   4.929  18.629   2.604  0.0287 -0.0962  0.4493
28196W        W43665   8.259  18.422   3.197  0.0244 -0.2554  0.0492
28197W        W43666  18.224   1.202   4.158 -0.2994  0.0505  0.0999
28198W        W43667   9.500   2.044   0.451  0.0086 -0.0470  0.1372
28199W        W43668  11.849  12.846  14.420 -0.1790 -0.2087 -0.0317
28200W        W43669  13.551  11.276   0.924 -0.0973 -0.1049 -0.1456
28201W        W43670   9.826   0.822   2.308  0.1911 -0.0329 -0.1274
28202W        W43671   2.698  11.339   0.042 -0.0490 -0.0098 -0.3030
28203W        W43672  16.917  17.946  11.207  0.0160  0.0511  0.1967
28204W        W43673  11.243   4.527  12.153  0.0039 -0.1093 -0.0820
28205W        W43674   3.586  17.383   2.344 -0.2522 -0.2402  0.1561
28206W        W43675  14.506  12.913  13.370  0.0839  0.2534 -0.1754
28207W        W43676   0.403   6.427  13.138 -0.0045 -0.1770 -0.2202
28208W        W43677  14.564  11.269   5.486  0.0325  0.0061 -0.2146
28209W        W43678  10.789   7.727  10.499 -0.0560  0.1008  0.0336
28210W        W43679   4.237   7.863   0.843 -0.0153  0.0349 -0.5439
28211W        W43680   4.031  18.251   1.486  0.0075  0.0183 -0.3396
28212W        W43681  12.763   6.619   1.933 -0.0182  0.1255 -0.1371
28213W        W43682   1.423  12.458  14.982 -0.1351 -0.1853 -0.0741
28214W        W43683  13.085   5.947  15.151  0.2222  0.1748 -0.4045
28215W        W43684  17.325   1.665   4.889  0.1225  0.1212 -0.1716
28216W        W43685  15.724   6.568   0.384  0.0120 -0.1180  0.0931
28217W        W43686  11.532  11.550  11.588 -0.0552 -0.1420  0.1779
28218W        W43687   0.846   0.982  15.101  0.1145  0.1766 -0.2917
28219W        W43688  17.290  15.132   9.743 -0.1120  0.0088 -0.2794
28220W        W43689   2.985   7.210   3.052  0.1871 -0.0806  0.5367
28221W        W43690   0.787  14.302   4.066  0.1451 -0.1391  0.1363
28222W        W43691   6.931  16.190   1.912  0.4648 -0.3101  0.1030
28223W        W43692  11.229   8.069  14.236  0.0183  0.0937  0.3052
28224W        W43693   1.886   2.704  10.400  0.2576 -0.0009 -0.1233
28225W        W43694  18.116  18.072  10.599 -0.1283  0.2061  0.3593
28226W        W43695   9.911  17.466  12.069  0.1505 -0.4597  0.0326
28227W        W43696   2.906  12.798   3.087  0.0482 -0.3279 -0.1242
28228W        W43697  18.705  12.464  10.547  0.1461 -0.2015 -0.3138
28229W        W43698   7.738  11.395   3.188  0.0059 -0.1658  0.0429
28230W        W43699  18.373  12.352  13.481  0.0012  0.0636  0.0987
28231W        W43700   3.573   3.877  13.460 -0.1037 -0.1555  0.0702
28232W        W43701   1.446   2.867   0.601  0.2632  0.1967 -0.2166
28233W        W43702   7.433   4.113   0.803  0.1784 -0.1633 -0.2187
28234W        W43703  10.377  10.439   1.534  0.1263 -0.4024 -0.1427
28235W        W43704  17.290   0.402   4.967  0.1667 -0.2306 -0.2177
28236W        W43705  12.175  11.030   1.355  0.2249 -0.1501  0.0106
28237W        W43706  15.077   4.621  11.586  0.2119  0.1707  0.2720
28238W        W43707   4.698   5.427  12.490 -0.0008 -0.4505 -0.2028
28239W        W43708  11.308   6.616   1.526  0.0480 -0.3253  0.1290
28240W        W43709   8.864  13.493   1.161 -0.0240  0.1345  0.1730
28241W        W43710   4.550   8.699  15.169  0.1161  0.0730  0.0303
28242W        W43711   7.129   1.038   5.085 -0.2508 -0.0203  0.0761
28243W        W43712  18.811  13.963  15.291 -0.2452  0.1206  0.3129
28244W        W43713   4.370  16.785  14.940  0.1255  0.1622 -0.2513
28245W        W43714   4.920  14.715   5.624  0.0174  0.0384 -0.0064
28246W        W43715   3.905  11.358  12.790 -0.1408  0.0969  0.0500
28247W        W43716  11.474  11.355   4.107 -0.3771  0.1459 -0.0403
28248W        W43717  10.195   7.099  11.642  0.0439 -0.1080 -0.0029
28249W        W43718  15.467  18.246  10.364  0.1269 -0.0225  0.1622
28250W        W43719   0.492   8.047  13.941  0.3242  0.0285 -0.0064
28251W        W43720  18.109   8.664   0.984  0.0573 -0.0603 -0.0679
28252W        W43721  11.364  11.563  10.042 -0.1385  0.0904 -0.0868
28253W        W43722   9.111  14.582  11.984 -0.0588 -0.0235  0.0919
28254W        W43723  14.081   1.718   1.272 -0.3994  0.1399  0.2472
28255W        W43724  16.122   6.548   0.672 -0.2851  0.1206  0.0054
28256W        W43725   9.481  16.529   1.205 -0.1595 -0.2936 -0.1255
28257W        W43726   5.113   1.919   0.872 -0.3572 -0.0715 -0.1577
28258W        W43727  10.896  10.759   1.591  0.0822  0.0626 -0.4067
28259W        W43728   6.111   5.372  12.941 -0.1200 -0.0704  0.0249
28260W        W43729  13.455  14.135  12.097 -0.3409  0.1331  0.2933
28261W        W43730   6.392  13.835  12.217 -0.0512  0.0855 -0.0182
28262W        W43731   0.865   3.835   5.290  0.1324  0.1078  0.2758
28263W        W43732  18.311  13.487   4.593 -0.1434  0.0091 -0.1703
28264W        W43733   3.854   0.178   2.546 -0.0502 -0.2742  0.1637
28265W        W43734   3.149  18.112  10.827 -0.0729 -0.2211  0.0263
28266W        W43735  13.448   8.247   4.731 -0.2958  0.2961 -0.1221
28267W        W43736   3.015   5.954   4.063 -0.1047  0.1242 -0.1162
28268W        W43737   9.585   5.974   5.132 -0.3165 -0.0841  0.4071
28269W        W43738  15.079   3.182   1.246 -0.2325  0.0579 -0.1197
28270W        W43739   8.826  11.477  12.760 -0.3300  0.1345  0.0014
28271W        W43740   4.836  14.612  15.339  0.3230  0.1830  0.2347
28272W        W43741  12.474  18.568   3.183 -0.0757 -0.0210  0.1324
28273W        W43742   5.637  17.674   4.940  0.1865 -0.0726  0.1388
28274W        W43743  11.680   0.393  11.790  0.1881 -0.0837  0.2835
28275W        W43744  18.915  15.263  10.173 -0.3329  0.1592 -0.0015
28276W        W43745  18.684  12.704  14.469  0.1471 -0.3041  0.0877
28277W        W43746  16.652  11.414  12.293 -0.1766  0.0382  0.1646
28278W        W43747  11.703  16.689  11.949 -0.0857  0.0209  0.0277
28279W        W43748   3.517   1.160  13.927  0.0380 -0.2581  0.0366
28280W        W43749  15.676   1.062  14.232 -0.1914 -0.0078  0.0639
28281W        W43750   1.994   7.567   1.520 -0.0254  0.0960 -0.1894
28282W        W43751   1.333   5.815   1.036  0.3137 -0.1722 -0.2459
28283W        W43752  12.131  15.878  13.543  0.1663 -0.0393 -0.0507
28284W        W43753   0.288   5.619  12.991  0.1015 -0.1323 -0.0246
28285W        W43754  11.021   3.068  14.561  0.1934  0.2084 -0.3271
28286W        W43755  10.912  14.672  14.817  0.2700  0.0583  0.2760
28287W        W43756  17.939  17.179  14.316  0.0010  0.0054  0.1214
28288W        W43757   8.765   5.875  11.218  0.4096  0.0381 -0.1562
28289W        W43758  14.551  10.108  13.405  0.2261 -0.1705  0.2403
28290W        W43759  18.210   9.746  15.202  0.1234 -0.0737  0.2546
28291W        W43760   8.516  12.261   0.781 -0.0780  0.1296 -0.1298
28292W        W43761   2.952   6.068   1.127 -0.0128  0.1356 -0.1081
28293W        W43762  11.524  10.539  10.007 -0.0103  0.0740 -0.1997
28294W        W43763  10.420   4.710   1.167  0.0102 -0.0158  0.0915
28295W        W43764  12.910   1.961  11.805 -0.3592 -0.1065 -0.1586
28296W        W43765   8.893  11.775   0.528  0.1458  0.0851 -0.3426
28297W        W43766  18.756  11.895  12.620  0.0055  0.2171  0.2727
28298W        W43767  12.443   2.222  14.306 -0.1694 -0.3318  0.0322
28299W        W43768  18.307   8.025  14.503 -0.0954  0.0370 -0.0726
28300W        W43769   0.519   1.375   1.008 -0.4442 -0.2581  0.2834
28301W        W43770   4.364  13.771   2.195  0.1079  0.2152  0.0032
28302W        W43771  12.106   4.512  15.111  0.3880 -0.0931  0.0242
28303W        W43772   0.832   8.562   3.682 -0.1513 -0.2209  0.3533
28304W        W43773  10.498   6.172   1.824 -0.1321 -0.1524 -0.2062
28305W        W43774  11.601  18.196  14.889 -0.1784  0.1550  0.0782
28306W        W43775  12.352   5.369  12.001 -0.0728 -0.1776  0.0652
28307W        W43776  17.183   0.017  10.439  0.2318 -0.2834 -0.0870
28308W        W43777   0.512  13.389   1.179 -0.1506  0.3302 -0.1031
28309W        W43778   5.537   7.118   2.320 -0.1937  0.1954 -0.3343
28310W        W43779   0.396  17.114   2.789  0.3172 -0.3436  0.1558
28311W        W43780  18.834  18.844  13.042 -0.1343 -0.1249  0.0394
28312W        W43781  17.265   8.164  13.639  0.1850  0.1334 -0.5859
28313W        W43782  14.628   3.320   3.108  0.0469 -0.0849 -0.0031
28314W        W43783   8.725  17.272   0.419 -0.2882  0.2335 -0.0169
28315W        W43784   7.244  19.023   5.067  0.0770  0.1662  0.0058
28316W        W43785   3.822  15.297   4.558 -0.2743  0.1662 -0.1254
28317W        W43786  14.322   8.007   5.037  0.0214  0.3696 -0.0808
28318W        W43787   5.658   1.297   6.132 -0.1747  0.0238  0.0461
28319W        W43788  15.056   3.629  14.766 -0.2118  0.1925 -0.1286
28320W        W43789   2.327   1.396   3.072 -0.1579  0.0996 -0.1123
28321W        W43790   7.967   5.771  14.022 -0.4895 -0.0169  0.1632
28322W        W43791   1.885  10.288   2.587  0.0092  0.1992  0.1980
28323W        W43792  12.948   5.313   2.449 -0.1796  0.0584  0.0179
28324W        W43793  18.226  15.907  15.195  0.0710 -0.1240  0.1029
28325W        W43794   5.329  16.073  10.858  0.3486  0.1143  0.2518
28326W        W43795   2.628   4.033  11.757  0.0944 -0.1000 -0.0315
28327W        W43796  16.501   6.005   4.751 -0.1950  0.1197  0.0427
28328W        W43797  17.942   3.094   4.433 -0.0754 -0.1788  0.0016
28329W        W43798   6.680   8.004   5.897  0.1321 -0.1985 -0.0661
28330W        W43799  17.773   9.075  11.036  0.0082 -0.0046 -0.2485
28331W        W43800  12.935   0.607  11.870  0.1853 -0.2028  0.1193
28332W        W43801  14.924   0.921   4.315 -0.0616 -0.1798  0.3344
28333W        W43802   0.692   0.101  11.993  0.0368 -0.1471 -0.3480
28334W        W43803  11.524   5.442  13.889 -0.0403 -0.2532 -0.1354
28335W        W43804   6.971   1.960  14.955  0.1418 -0.1316 -0.1528
28336W        W43805  17.689  16.929   2.319  0.0230 -0.0473  0.1212
28337W        W43806  10.121   2.441  10.434 -0.1643 -0.2209  0.1336
28338W        W43807   5.227   0.448   0.427 -0.3190 -0.0435  0.1216
28339W        W43808   0.890  17.557   1.196 -0.1467 -0.1229 -0.1552
28340W        W43809  14.876   1.679  12.919  0.0808  0.2574  0.1452
28341W        W43810   3.883   0.927   0.025 -0.0794 -0.1174  0.0138
28342W        W43811  15.365   0.414   5.716 -0.0312  0.0230  0.0372
28343W        W43812   6.880  15.905  12.786 -0.0879 -0.2169 -0.0531
28344W        W43813   2.738   7.501  12.914  0.2837 -0.1665 -0.0649
28345W        W43814  11.660  11.078  12.885 -0.2117 -0.1835 -0.5417
28346W        W43815  18.499   4.782   0.866  0.0855 -0.3313 -0.4219
28347W        W43816   1.177  10.995   1.405 -0.0515 -0.4781 -0.0990
28348W        W43817  13.995   8.801  13.701  0.1709 -0.2649  0.1592
28349W        W43818  10.939  16.490  13.922 -0.0644  0.0959 -0.0453
28350W        W43819  16.538   2.410  11.520 -0.2225 -0.1601 -0.1236
28351W        W43820  14.907   8.708  11.516  0.0040  0.1880  0.0461
28352W        W43821  14.609  13.355  12.040  0.0521  0.1667  0.0920
28353W        W43822  14.026   8.554   1.575  0.1693  0.1601  0.0243
28354W        W43823  18.100   4.014  13.081  0.0479 -0.1269 -0.1027
28355W        W43824  17.287   3.102   2.560 -0.2849 -0.1122  0.0024
28356W        W43825  15.261  18.981   4.815 -0.2354 -0.0169 -0.0627
28357W        W43826  18.989   7.415   9.701 -0.0482  0.1297 -0.2732
28358W        W43827   3.236   5.548   1.266  0.1886 -0.0519  0.1007
28359W        W43828   4.855   8.100  10.272  0.1774 -0.1866  0.0262
28360W        W43829  15.352   5.680   1.425 -0.0987 -0.0500 -0.2468
28361W        W43830   4.088   5.866   4.161 -0.1541 -0.2246 -0.1654
28362W        W43831  18.380  13.022   1.088 -0.1357 -0.0256  0.1394
28363W        W43832   5.715   2.117  14.877 -0.0262  0.0306  0.0419
28364W        W43833   3.004  15.591   4.348 -0.0829 -0.0479 -0.0306
28365W        W43834  16.190   5.805  13.025  0.3849 -0.0164 -0.0280
28366W        W43835  15.972   2.292  13.563  0.3370 -0.0319 -0.2026
28367W        W43836   4.380   5.554   1.346  0.0036 -0.0346 -0.2590
28368W        W43837   5.258  12.263   2.619  0.0088 -0.0764  0.1554
28369W        W43838   6.133   3.274   4.528  0.5498  0.3120  0.1884
28370W        W43839   7.783   3.005  11.468 -0.1224  0.2050  0.1085
28371W        W43840   5.341   3.185  13.408 -0.0746 -0.0980 -0.2854
28372W        W43841   5.225   1.494   2.627 -0.2735 -0.0085 -0.1530
28373W        W43842   4.656   7.925   1.716  0.2077  0.0996  0.0686
28374W        W43843   1.958   0.696  11.348 -0.1094 -0.0245  0.1650
28375W        W43844   0.079  16.481  10.527 -0.1954 -0.4790 -0.0396
28376W        W43845  15.435  16.874   3.913  0.0396 -0.0941 -0.2348
28377W        W43846  13.015  16.468  11.745 -0.0140  0.0119  0.0095
28378W        W43847   7.366  11.169   1.027 -0.1876 -0.1231 -0.0500
28379W        W43848  12.375   3.755  12.203  0.1551  0.0197  0.0447
28380W        W43849  11.327   4.560  10.812  0.1898 -0.1537  0.0780
28381W        W43850   3.877  14.374  13.784 -0.0490  0.2406  0.0203
28382W        W43851   8.721   4.760  11.574  0.2560 -0.1340  0.0309
28383W        W43852  15.234   2.350   0.629 -0.1571 -0.1614 -0.2904
28384W        W43853  16.149  12.665  12.668 -0.0788  0.0255 -0.3143
28385W        W43854  18.229  17.867   1.592 -0.0221  0.0407 -0.0945
28386W        W43855  12.008  14.484  11.814 -0.0800  0.1950 -0.0758
28387W        W43856  10.808   9.912   0.341 -0.0488 -0.0046 -0.2112
28388W        W43857  10.943   0.721   4.986  0.0883  0.0350  0.1839
28389W        W43858   0.175  10.534   5.539  0.0260  0.0902  0.1764
28390W        W43859   5.142  13.036   0.459 -0.2254  0.1660  0.0359
28391W        W43860  11.121  13.512   3.983  0.0698  0.0659  0.0925
28392W        W43861   2.479  10.223  12.562  0.2225  0.1178 -0.1195
28393W        W43862  17.147  18.215  10.212 -0.1856  0.3360  0.1372
28394W        W43863   8.900   7.996   1.183 -0.0037 -0.0433 -0.2177
28395W        W43864   1.605  10.423  13.890 -0.0759  0.1026 -0.0344
28396W        W43865  11.862  13.651   4.936  0.0450 -0.1284  0.2771
28397W        W43866  14.453  13.783  13.033 -0.3296  0.3098 -0.3464
28398W        W43867   0.361   2.258  11.637 -0.3198 -0.0083  0.2191
28399W        W43868  17.871   7.248   5.350  0.0078  0.2607 -0.0287
28400W        W43869   0.361   8.896   1.155 -0.2105  0.0495 -0.0778
28401W        W43870  16.495   0.586  11.405  0.1190  0.3747 -0.0157
28402W        W43871  18.618   9.502   0.082  0.1923 -0.1573  0.1722
28403W        W43872   9.219  14.738  11.507  0.2032 -0.3947  0.1989
28404W        W43873   5.914  18.514   1.641 -0.0740  0.0543  0.0714
28405W        W43874   4.670   7.711   0.648  0.0084  0.2822  0.1212
28406W        W43875  14.127   6.872   3.670  0.1188  0.1022 -0.0445
28407W        W43876  11.890   0.382   6.077 -0.1878 -0.1188 -0.3457
28408W        W43877   8.769  12.166   5.276 -0.1001  0.1743  0.2068
28409W        W43878   3.549   5.059   2.646  0.1002  0.0708  0.1327
28410W        W43879  15.339   8.247  13.554  0.1508  0.2486  0.1082
28411W        W43880   2.279  18.550  14.085 -0.1407 -0.0041  0.0860
28412W        W43881  12.234  13.914   3.426 -0.1590 -0.2682  0.2149
28413W        W43882   3.041  12.834   5.440 -0.0413 -0.0974 -0.0878
28414W        W43883   3.869   1.523   2.927  0.1367  0.2345 -0.0010
28415W        W43884  13.091  16.171  12.304 -0.1520 -0.1038  0.0751
28416W        W43885   6.624  13.178  15.021 -0.4490  0.0772  0.0947
28417W        W43886   5.749   7.242  15.141  0.3407 -0.1659 -0.0621
28418W        W43887  15.896   1.751  14.773 -0.0124 -0.0366  0.0093
28419W        W43888   2.376   4.413   0.212  0.1688 -0.1153  0.1834
28420W        W43889   2.868   0.419  12.354 -0.0487  0.1599 -0.2318
28421W        W43890   5.797  11.896   9.307  0.2943 -0.2561 -0.0489
28422W        W43891  14.854  18.880   0.620 -0.1379 -0.2842  0.0834
28423W        W43892  18.659  14.786  14.371 -0.3394  0.1463 -0.2538
28424W        W43893  12.417   8.291  11.185 -0.1176 -0.0840  0.1350
28425W        W43894  10.507   7.054  13.784  0.0126  0.1722 -0.3845
28426W        W43895  12.291  12.249   4.872 -0.0166 -0.0336  0.0775
28427W        W43896  14.202  10.357  11.626  0.0136  0.1439  0.0892
28428W        W43897   2.036   8.135   3.370 -0.1251  0.0222  0.0292
28429W        W43898  10.864  14.310  15.135 -0.0080 -0.0054 -0.1299
28430W        W43899   7.257   3.567  12.571  0.0662  0.1397  0.1700
28431W        W43900  18.245  11.624   1.631 -0.1039  0.0754  0.3237
28432W        W43901   6.981   9.714   9.933  0.0287  0.1153  0.0773
28433W        W43902   8.090  16.728   5.611 -0.0166 -0.4074 -0.5052
28434W        W43903   6.719  13.492  11.442 -0.0886  0.2363 -0.0114
28435W        W43904  13.051   3.452   0.865 -0.1618 -0.0216  0.1117
28436W        W43905  17.052  15.794  13.669  0.1235 -0.1394  0.1785
28437W        W43906  14.323  10.380   0.108  0.2382 -0.3588  0.0475
28438W        W43907   1.560   5.402   2.942  0.3545 -0.2059  0.2426
28439W        W43908   3.372  18.681  14.161 -0.4274 -0.0019 -0.0179
28440W        W43909  16.875  12.455   4.411 -0.1000 -0.1915  0.1557
28441W        W43910   0.453  13.300  13.602  0.1570 -0.2015 -0.0297
28442W        W43911  10.263   4.348   3.035 -0.3968 -0.0612 -0.0605
28443W        W43912  10.216   7.701   0.938  0.0652  0.3768  0.2369
28444W        W43913  13.593   7.630   2.094 -0.1217  0.0758  0.3142
28445W        W43914   7.744  12.965  11.750  0.2524 -0.1826  0.0131
28446W        W43915   8.824   4.702   2.766 -0.0115  0.3252  0.3198
28447W        W43916  13.330   4.159   5.096  0.1473  0.1840 -0.0700
28448W        W43917   0.515   6.149  11.650 -0.0099 -0.3441 -0.0301
28449W        W43918  10.349   0.917  14.578  0.0845  0.1861 -0.1449
28450W        W43919  17.873  11.993   1.945 -0.1788  0.0872  0.1753
28451W        W43920  18.613   2.695   3.231  0.2021  0.0922  0.1427
28452W        W43921   0.161   1.831   4.365  0.0727  0.1208 -0.0307
28453W        W43922  11.502  10.276   4.263  0.2031  0.1210  0.1923
28454W        W43923  15.450   4.236   1.757 -0.2063  0.2442 -0.0968
28455W        W43924  14.380  14.836   3.304 -0.1347 -0.1018  0.0100
28456W        W43925   5.409  14.510   4.738 -0.2073 -0.1658  0.2098
28457W        W43926  17.848  12.818  14.580  0.0851 -0.0414 -0.0792
28458W        W43927   0.704  18.682  13.244  0.1479  0.2640  0.2535
28459W        W43928   9.045  15.104  11.787  0.1663  0.0688 -0.2287
28460W        W43929   4.346   0.443  13.570  0.0199  0.0665 -0.0667
28461W        W43930  18.312   2.666   3.897  0.0305 -0.0334 -0.3210
28462W        W43931  16.885   1.061   3.664 -0.0377 -0.2553  0.5797
28463W        W43932  11.619   2.450  13.808  0.0664 -0.2837 -0.0818
28464W        W43933   6.435  12.163  14.263 -0.1218  0.1400 -0.2122
28465W        W43934  10.319   1.981  10.370 -0.0692  0.0726  0.1791
28466W        W43935  14.198  10.242   3.128 -0.1595 -0.1272 -0.1636
28467W        W43936   2.138  16.472  15.166  0.2264  0.1341  0.1222
28468W        W43937  10.822   2.086  14.552 -0.1557  0.0366  0.0022
28469W        W43938   5.213  16.383   1.370 -0.6519  0.1669  0.2256
28470W        W43939   5.590   2.276   1.078  0.2457 -0.3433 -0.4497
28471W        W43940   3.881   3.386   5.274 -0.1619 -0.0889 -0.0656
28472W        W43941  10.358  10.640  12.145 -0.0944 -0.0312  0.0945
28473W        W43942   9.000  17.049   1.593 -0.0480 -0.0272  0.0399
28474W        W43943   7.456  13.525  10.459  0.2275  0.3091  0.1539
28475W        W43944  18.807  15.181  12.317  0.1545 -0.2452  0.0949
28476W        W43945   3.379  18.798  14.729 -0.0517  0.3245  0.5188
28477W        W43946  17.530   9.417  12.886  0.0813 -0.0440  0.5274
28478W        W43947  14.610  15.773   4.123  0.1623 -0.2690  0.0405
28479W        W43948   5.335  16.981   3.718 -0.1256  0.1134  0.0244
28480W        W43949  16.731   1.159   3.082  0.0089 -0.5629 -0.1325
28481W        W43950   4.711  11.682  14.331  0.1935  0.1066  0.1479
28482W        W43951  15.836  16.759  10.461 -0.0782 -0.2470 -0.1712
28483W        W43952  18.710   0.393   2.790  0.0746 -0.3866 -0.0249
28484W        W43953   5.350  18.431   6.005 -0.1009 -0.1756  0.2157
28485W        W43954  10.772   4.518  15.152 -0.0500 -0.0988 -0.0192
28486W        W43955   2.708  13.177   4.624  0.1791 -0.1739  0.3896
28487W        W43956   6.913  15.093   1.315 -0.0123 -0.0418 -0.1787
28488W        W43957  14.803   7.785   4.869  0.1050  0.3491  0.3052
28489W        W43958   6.183   8.331  14.513  0.0513 -0.0131 -0.2473
28490W        W43959   0.069   8.362   2.071  0.0089 -0.1202  0.1394
28491W        W43960   0.522  18.995  13.634 -0.1051  0.3005  0.0582
28492W        W43961   0.207   2.153   3.421 -0.0122  0.2141 -0.1920
28493W        W43962   7.201   1.816  11.980  0.1553  0.0261 -0.0067
28494W        W43963  11.922   6.899  10.194  0.0142 -0.2336  0.2223
28495W        W43964   9.922  10.789   0.873 -0.2180  0.2623  0.0030
28496W        W43965   7.449   7.105   2.052 -0.0406 -0.2830 -0.2313
28497W        W43966   0.189  15.862   4.543 -0.2255 -0.1075 -0.0937
28498W        W43967   4.566  10.648  11.574 -0.2708 -0.1023  0.1917
28499W        W43968  13.634  12.255  10.658 -0.0104  0.0983  0.0907
28500W        W43969  18.090   1.986  13.702  0.0824 -0.0121  0.0525
28501W        W43970  10.423  12.641   4.465 -0.0580  0.0292  0.0820
28502W        W43971   3.114   2.864  12.024 -0.1344 -0.1118 -0.1265
28503W        W43972   7.480   1.135   2.479 -0.0937  0.2513  0.1611
28504W        W43973  13.033  11.341   0.406 -0.1309 -0.0720  0.0251
28505W        W43974   0.072  15.259  11.903  0.4125  0.0079  0.2655
28506W        W43975   7.167   2.667   1.436 -0.1307 -0.1296 -0.2134
28507W        W43976  16.273   4.036  11.133 -0.0168 -0.1959 -0.1544
28508W        W43977   0.517  16.503  12.331  0.3758  0.1196  0.1581
28509W        W43978  10.601   1.028   0.654 -0.2703 -0.0599 -0.0283
28510W        W43979  18.875   1.500   5.523  0.1578 -0.1127 -0.0870
28511W        W43980  11.215  11.451   2.122  0.1434  0.0927 -0.4643
28512W        W43981  15.311   1.250   2.102  0.2691 -0.1726  0.2150
28513W        W43982   4.008  14.285   0.763 -0.0275 -0.0178  0.0668
28514W        W43983   2.121   6.727  11.466  0.0692  0.2397 -0.4105
28515W        W43984  17.186  12.435   2.509  0.0347 -0.3178 -0.1610
28516W        W43985  16.910  17.135   3.056  0.1649 -0.0139 -0.4556
28517W        W43986  13.493  11.954  14.079  0.0592  0.1133  0.2876
28518W        W43987   5.555   5.858  10.451  0.1019  0.0923 -0.0201
28519W        W43988  14.965  16.956  15.265  0.1501 -0.4145 -0.1090
28520W        W43989   0.159   4.961  14.339  0.2012 -0.2759 -0.1691
28521W        W43990   0.713   3.527   3.726  0.0923 -0.3022  0.0863
28522W        W43991  14.804   2.768  14.804 -0.0865  0.1201 -0.1259
28523W        W43992  16.485   7.444   0.728  0.0534 -0.2601 -0.0019
28524W        W43993   9.370   1.083   5.829  0.2442  0.0162 -0.0015
28525W        W43994   7.614  16.131   4.569 -0.2554 -0.2041 -0.0411
28526W        W43995  14.589   6.214  13.855  0.2690  0.1856 -0.1626
28527W        W43996  12.564   6.246  14.703 -0.0675 -0.0291 -0.0026
28528W        W43997  12.129  11.352   4.032 -0.1089  0.2312  0.1627
28529W        W43998  18.221   6.507  12.091 -0.0287 -0.3145 -0.0124
28530W        W43999   1.896  18.583   9.710  0.1722  0.1580 -0.1335
28531W        W44000   9.718   7.252  11.542 -0.0438 -0.1053  0.1495
28532W        W44001   0.185  12.403   0.344 -0.2432  0.0070 -0.0503
28533W        W44002  10.397  16.223  12.317  0.1336 -0.1490  0.0742
28534W        W44003  11.757  15.418   1.268  0.1871  0.1653 -0.0520
28535W        W44004   5.089   8.274   4.342  0.0141 -0.0450  0.0050
28536W        W44005  16.650   4.983   3.984 -0.0274 -0.0380 -0.2042
28537W        W44006   9.547  11.341  10.462 -0.2951 -0.1456 -0.3315
28538W        W44007   4.389   4.610   3.105 -0.1527 -0.2292  0.2567
28539W        W44008  16.981   4.532   1.242 -0.1621  0.0920 -0.0840
28540W        W44009   3.639   8.420  12.970  0.1190 -0.2325 -0.1721
28541W        W44010  15.731  11.252  12.024  0.0113 -0.1122  0.2062
28542W        W44011   1.878   2.506  10.909 -0.3547  0.0199 -0.0426
28543W        W44012   2.083   0.523   0.830 -0.4007 -0.0486  0.1094
28544W        W44013  17.551   5.824  13.331  0.0558 -0.1238 -0.0968
28545W        W44014  18.943  12.352  15.258  0.4191  0.3357 -0.3401
28546W        W44015  16.976   7.867  12.097  0.0392  0.1814  0.0615
28547W        W44016  16.307   1.586   4.956  0.1128 -0.1901 -0.0383
28548W        W44017  12.897  11.005   4.699  0.1132  0.2679 -0.0198
28549W        W44018   7.781   4.085  11.646  0.1958 -0.1379 -0.0498
28550W        W44019   7.786   2.547  10.961  0.4950 -0.0078  0.0640
28551W        W44020  12.419  11.851  11.909  0.0099 -0.1587  0.0154
28552W        W44021  11.556   2.135  12.301 -0.2578  0.2106  0.0785
28553W        W44022  11.994  15.446  13.709 -0.0079  0.1855  0.1607
28554W        W44023   5.149  16.932   0.323 -0.3488  0.1765  0.0336
28555W        W44024   0.235  11.702   0.795  0.0969  0.0173  0.1858
28556W        W44025  14.781  15.466  10.867 -0.0114  0.3034  0.1800
28557W        W44026  10.150   9.868  11.360 -0.1796 -0.3579 -0.3878
28558W        W44027  12.419  14.163   5.688 -0.0984  0.3288 -0.0667
28559W        W44028  16.550   8.137  15.279 -0.0712  0.4098 -0.0769
28560W        W44029   4.575   4.036  12.594 -0.0112 -0.1886  0.0548
28561W        W44030   8.250   2.692  12.224 -0.0391 -0.1558 -0.0053
28562W        W44031   9.713  10.653   4.344  0.0076  0.0372 -0.0552
28563W        W44032   7.752   1.762   0.752 -0.0771 -0.1239 -0.2823
28564W        W44033   2.935   6.541   2.182  0.0213  0.0626 -0.0659
28565W        W44034   8.045  15.072   0.120 -0.0050 -0.2278  0.0755
28566W        W44035  17.760   4.428   3.738 -0.0661  0.1867 -0.1125
28567W        W44036   8.771   1.967  14.662  0.1189 -0.0015 -0.0710
28568W        W44037   0.995  18.978  13.520 -0.1078  0.0452  0.2110
28569W        W44038   7.201   3.021  11.451 -0.0261  0.1824  0.1974
28570W        W44039   9.738   5.821  14.437 -0.2016 -0.2379  0.1162
28571W        W44040  11.022  14.272   2.538 -0.0757 -0.2420 -0.3880
28572W        W44041  10.057  11.612   4.314  0.0134  0.0627  0.2869
28573W        W44042  17.077  14.199   2.715  0.0185 -0.0370  0.3611
28574W        W44043   7.089   8.071   2.000  0.4078 -0.2975  0.0229
28575W        W44044   7.800  14.668  14.874  0.1365  0.1840  0.0600
28576W        W44045  17.616  17.343  10.839 -0.0472 -0.1414  0.2495
28577W        W44046  11.937   7.539   5.026  0.1630  0.0868  0.3621
28578W        W44047  14.604   0.319   0.756 -0.1523 -0.2708 -0.2821
28579W        W44048   0.678  12.240   5.259  0.2250 -0.2340  0.3390
28580W        W44049  11.951  18.521   2.512  0.1547  0.1511 -0.0945
28581W        W44050   4.641  12.615   1.034 -0.2174  0.1596 -0.0038
28582W        W44051   7.109   8.266   1.473  0.2963 -0.0846  0.0164
28583W        W44052   9.959  15.993   1.699  0.0442  0.0275  0.1822
28584W        W44053   6.461  16.232  13.821 -0.1713  0.3193 -0.1212
28585W        W44054  16.508   9.221  12.640  0.0460  0.3097  0.3884
28586W        W44055  13.643  11.450   1.390 -0.0021 -0.0671  0.1960
28587W        W44056   9.453   1.045   2.657 -0.0800  0.0082  0.5577
28588W        W44057  16.952   9.360   2.806 -0.1414 -0.2823  0.1042
28589W        W44058  13.986   0.335   0.960 -0.2239 -0.2030  0.0969
28590W        W44059  12.240   5.979  14.268 -0.1644 -0.1446 -0.3844
28591W        W44060   6.060   2.176  14.441  0.0990  0.1580 -0.1434
28592W        W44061   9.787   8.687   3.050  0.2177 -0.0173  0.1101
28593W        W44062  12.169   4.952  12.819 -0.0457  0.0471 -0.3014
28594W        W44063   6.032  16.546   3.628  0.1061  0.2396  0.0183
28595W        W44064   0.586   4.964   3.706  0.1150  0.2896  0.2338
28596W        W44065  17.148   7.366   4.912  0.2143  0.0682 -0.0985
28597W        W44066   7.539  10.831   4.475 -0.0336  0.1496 -0.2035
28598W        W44067  18.863   0.367  15.190  0.2021 -0.3858 -0.1395
28599W        W44068  18.909  18.440   4.988 -0.1628  0.2167 -0.4592
28600W        W44069   1.890  11.464  12.429  0.2856 -0.0235  0.4385
28601W        W44070  10.615  17.988   4.144  0.1681 -0.2379 -0.1978
28602W        W44071   8.252   6.055  14.403 -0.4908 -0.0800  0.2035
28603W        W44072  17.562  10.631   2.409 -0.1030  0.0024  0.0676
28604W        W44073   3.923  10.497   3.834  0.1207 -0.1964  0.5643
28605W        W44074  12.119   2.254  10.227  0.2021  0.0714  0.0229
28606W        W44075   2.857   6.086   3.587 -0.2125  0.4395  0.0544
28607W        W44076   4.916  14.039   2.891 -0.1444 -0.0151 -0.1935
28608W        W44077  17.826  18.543   4.085 -0.3958 -0.0500  0.2246
28609W        W44078  12.826   7.955   2.797  0.3890 -0.2589 -0.1189
28610W        W44079   8.647   1.250   5.403 -0.0942 -0.2823  0.1362
28611W        W44080   8.370   6.488   4.542 -0.0075 -0.0777 -0.0354
28612W        W44081  17.001  13.688   1.526 -0.1100  0.2847 -0.5525
28613W        W44082  18.234   7.486   5.651  0.2370  0.0877 -0.0512
28614W        W44083  13.149   1.885  15.199  0.0745  0.0496 -0.2687
28615W        W44084  18.989  14.172  12.699  0.2307  0.1330  0.0343
28616W        W44085  18.076   2.373  10.507  0.2624  0.1272  0.1629
28617W        W44086   8.355   9.020  14.542 -0.0912 -0.1332  0.0059
28618W        W44087  16.375  14.212  11.087 -0.0063 -0.3107  0.2379
28619W        W44088   8.127   8.283  13.241 -0.2673 -0.0788 -0.0622
28620W        W44089   3.609  17.779   1.054  0.1567  0.1789  0.0573
28621W        W44090   3.383  15.248  10.709 -0.0760  0.0328 -0.3992
28622W        W44091   3.606   7.064   4.299 -0.0488 -0.3610 -0.1660
28623W        W44092   0.924   6.080  14.679  0.2019 -0.3900  0.1793
28624W        W44093   5.512   5.127  13.717 -0.2511 -0.0791  0.5790
28625W        W44094  14.899   9.523   1.860 -0.2316  0.0961 -0.0875
28626W        W44095  16.910   0.374  15.154 -0.0004 -0.1211 -0.1489
28627W        W44096  13.591  14.681   9.645 -0.3658  0.2423 -0.0824
28628W        W44097   3.877  10.268   3.296 -0.3044 -0.3118  0.1132
28629W        W44098  14.458  15.760   1.190 -0.1514  0.0439 -0.0629
28630W        W44099  10.436  12.096   0.663  0.1226 -0.0354  0.0776
28631W        W44100  14.868   9.813  14.368 -0.5482  0.0509  0.3080
28632W        W44101  18.263   1.731   3.379 -0.1225  0.1563  0.1338
28633W        W44102   3.134  17.606   5.200 -0.1782 -0.0209 -0.2999
28634W        W44103   8.639  18.216   2.327 -0.0207 -0.0076  0.1576
28635W        W44104  10.648  13.523   4.520  0.1640  0.2967  0.1559
28636W        W44105  18.282   7.725  14.957 -0.1306 -0.1546 -0.0731
28637W        W44106   4.394   4.582   4.723  0.0520 -0.2906  0.2720
28638W        W44107   6.041   3.579  13.062  0.0984 -0.1114 -0.1863
28639W        W44108   7.869   9.182  15.131 -0.0665  0.0823  0.3107
28640W        W44109   7.096   4.839   2.467  0.2847  0.1567  0.1052
28641W        W44110  12.909   8.309  14.439  0.0844 -0.1572  0.1186
28642W        W44111  16.471   5.693   1.789 -0.0779 -0.2254  0.3194
28643W        W44112  16.301   3.950  12.771 -0.2923 -0.1909 -0.2128
28644W        W44113   9.039   1.957   5.654  0.3200  0.0253  0.1901
28645W        W44114  14.555   1.670  13.599 -0.0585 -0.3659 -0.1347
28646W        W44115  11.665   9.703  11.891 -0.1505 -0.0508 -0.2412
28647W        W44116  16.317   6.351  14.482  0.0277  0.2075 -0.0589
28648W        W44117   2.069   5.171   2.127  0.2125  0.0552  0.1104
28649W        W44118   3.944  10.797  15.014 -0.1415  0.0969 -0.4667
28650W        W44119   1.912  13.060   1.434 -0.0190 -0.0271  0.4020
28651W        W44120  13.984   7.427   2.750 -0.3014  0.2071 -0.2126
28652W        W44121   5.811   7.704  14.962 -0.0970 -0.1317 -0.0262
28653W        W44122   4.281   0.147   5.308  0.0013  0.1257 -0.0687
28654W        W44123   8.781   8.418   9.314  0.2029 -0.2085  0.0056
28655W        W44124   7.830   4.983  11.288 -0.1002  0.2410 -0.0347
28656W        W44125  11.747  10.791  14.444 -0.0730 -0.2509  0.0008
28657W        W44126  11.990  13.375   4.102 -0.0561  0.0186  0.0396
28658W        W44127  10.442  18.324  13.885 -0.1222  0.0216 -0.2308
28659W        W44128  10.028  17.238  14.802 -0.3006 -0.1843  0.0068
28660W        W44129  13.410  17.017   1.850 -0.1274 -0.2885  0.2035
28661W        W44130   3.175   1.717   2.207 -0.3564  0.1165  0.2876
28662W        W44131   2.373  11.536  10.135  0.1576 -0.0578  0.2537
28663W        W44132  10.078  11.745  13.792 -0.1964  0.0776  0.2253
28664W        W44133   6.898  14.581   2.030 -0.0314  0.2075 -0.0303
28665W        W44134   8.854   7.700   0.577  0.1560  0.0513  0.2154
28666W        W44135   8.930   9.619   0.008  0.0434 -0.0669  0.3088
28667W        W44136  13.581   4.830   1.911  0.0443  0.2277  0.2841
28668W        W44137  11.501  18.739   3.243  0.0828 -0.0562 -0.0812
28669W        W44138  11.931  18.829  10.736 -0.3340 -0.0904 -0.3206
28670W        W44139  11.445   8.479  10.390  0.0966 -0.0530  0.1477
28671W        W44140   9.057   7.464  12.542  0.1384  0.0590  0.0481
28672W        W44141   2.389   3.748  12.264  0.3627  0.0845 -0.3392
28673W        W44142   2.644   1.315   3.820 -0.2013 -0.2776  0.1564
28674W        W44143   8.419  11.830  13.884  0.2943  0.0548 -0.4255
28675W        W44144   0.425   7.002   3.364 -0.1241  0.2832 -0.3497
28676W        W44145   1.536  16.746   0.695  0.0277 -0.0722  0.0852
28677W        W44146   0.300  17.687   4.708  0.0239 -0.1418  0.0724
28678W        W44147  14.408  16.083  14.272 -0.1636 -0.0259 -0.1657
28679W        W44148   5.327  18.680  11.863  0.1084 -0.1475  0.4341
28680W        W44149   1.500   4.360   2.836  0.0883  0.4496  0.3185
28681W        W44150   1.719   6.452  14.820 -0.0710  0.2036 -0.0837
28682W        W44151   9.979  12.981   1.233 -0.0117  0.1190 -0.0359
28683W        W44152  18.619   6.702   2.289  0.1156 -0.0329 -0.1694
28684W        W44153   4.023  12.391  11.407  0.3958  0.4358  0.0651
28685W        W44154   3.627   3.632   2.318 -0.2242  0.0110 -0.0296
28686W        W44155   4.595  17.072  14.527  0.0140  0.2508 -0.1250
28687W        W44156   6.122  14.732  14.959  0.0524  0.1326 -0.0038
28688W        W44157  14.732  14.850   1.520 -0.1340  0.0366  0.1573
28689W        W44158  11.910   2.253   2.858 -0.1541 -0.3468 -0.3754
28690W        W44159   1.253   4.217   5.454  0.1494 -0.3247 -0.1255
28691W        W44160   4.455  15.922   0.152  0.0300 -0.0173 -0.2426
28692W        W44161  16.556  11.342  14.558 -0.0095 -0.1726 -0.0080
28693W        W44162  11.276   7.301   1.176 -0.0558  0.2315  0.0176
28694W        W44163   5.897  16.874  15.018 -0.1299  0.0380  0.0666
28695W        W44164   5.554   1.025  11.202 -0.1231 -0.1647 -0.1053
28696W        W44165  15.946  17.255  14.469 -0.1324 -0.1676  0.1464
28697W        W44166  14.761   1.554   1.882 -0.2979 -0.0150 -0.2410
28698W        W44167  11.318  17.486  13.111 -0.3807  0.1646  0.3244
28699W        W44168   3.199  15.379   0.834 -0.0690 -0.0028 -0.0583
28700W        W44169  17.316  10.766   0.124  0.3914 -0.1111 -0.2133
28701W        W44170   9.011  10.031  13.478  0.0917  0.3676  0.1289
28702W        W44171  12.687   1.773  11.036  0.0817  0.1792 -0.5171
28703W        W44172  14.008  13.266   4.342  0.1048  0.2653 -0.0079
28704W        W44173   0.673   9.778   4.457  0.1940 -0.1586 -0.0808
28705W        W44174  14.170   4.527  11.539  0.0695 -0.3208 -0.2054
28706W        W44175  11.349   9.807  14.207 -0.0941  0.0722 -0.1760
28707W        W44176  15.320  11.218   0.210 -0.3437  0.2402  0.1238
28708W        W44177  12.555   3.663   4.598 -0.0104 -0.3276 -0.2797
28709W        W44178   6.972  17.782  11.798  0.3277 -0.1668 -0.2170
28710W        W44179   3.946   0.901   9.870  0.0562 -0.3502  0.2229
28711W        W44180  17.261   6.374   0.294  0.1661  0.0272 -0.0606
28712W        W44181   2.675  12.893  13.719  0.2357 -0.0185 -0.0218
28713W        W44182   4.742  10.178   4.451 -0.1053  0.3862  0.2552
28714W        W44183   7.524  10.935   2.383  0.2070 -0.3965 -0.3687
28715W        W44184   0.858  13.230  12.184  0.0938  0.1883  0.0302
28716W        W44185   5.777  17.205   2.027 -0.3073 -0.1712 -0.1240
28717W        W44186  18.387   4.689   1.998 -0.0253  0.1829 -0.0491
28718W        W44187  13.059   5.378   1.384  0.1226  0.2961 -0.0312
28719W        W44188   7.184   5.494  12.905  0.0470 -0.4701 -0.1885
28720W        W44189  11.279   6.387  10.499 -0.1327 -0.1514  0.0161
28721W        W44190  18.345  14.059   0.282  0.0979 -0.0871 -0.1368
28722W        W44191  13.845  18.744   3.287  0.1718 -0.1285 -0.0190
28723W        W44192   1.174   5.384   3.330  0.1041 -0.0360 -0.1197
28724W        W44193   4.194  16.416   4.492  0.0440  0.0292  0.4723
28725W        W44194   0.638   7.362  12.609 -0.0559  0.0882  0.0897
28726W        W44195  16.392   8.292   3.980  0.2517  0.1592  0.2162
28727W        W44196   7.820  17.035  14.129  0.2657 -0.5666  0.0902
28728W        W44197  18.322  12.786   1.630  0.0248 -0.0135  0.2453
28729W        W44198   0.043   9.810  13.919 -0.0742 -0.0058  0.2472
28730W        W44199   3.332  16.557   1.298  0.3657  0.0499  0.0253
28731W        W44200   6.992   0.037  11.261  0.2998 -0.3267 -0.2847
28732W        W44201   6.036   9.093   2.863 -0.1210  0.1798  0.0374
28733W        W44202   0.471   7.715   0.662 -0.1159  0.3041 -0.0281
28734W        W44203  10.924   6.772  10.561  0.0040  0.1677  0.0209
28735W        W44204  15.393   4.768   3.429  0.0639  0.0364  0.0524
28736W        W44205   6.309  11.853  12.398  0.1960  0.2110 -0.2644
28737W        W44206  14.386   4.352  15.082  0.0850  0.0118 -0.1808
28738W        W44207   1.696  16.767  12.146 -0.1998  0.1533 -0.0039
28739W        W44208   3.295  14.157  12.098 -0.0491  0.2203  0.1160
28740W        W44209  10.968  12.850  13.477  0.3066  0.0101  0.1557
28741W        W44210  13.575  16.222  11.292  0.4023 -0.0095  0.4423
28742W        W44211   3.256   3.379  12.489 -0.2090 -0.1580 -0.0099
28743W        W44212   2.323  10.390   4.077  0.1321  0.1967 -0.0018
28744W        W44213   0.449   0.920  12.692 -0.1091  0.0431  0.2012
28745W        W44214  16.065   2.993  13.214 -0.3063  0.0121 -0.1500
28746W        W44215   0.631   6.541   5.209 -0.2476 -0.0256 -0.0805
28747W        W44216   5.716   4.361   3.304 -0.3455 -0.3801  0.1452
28748W        W44217  17.043  18.857  12.817  0.0661  0.1948 -0.1802
28749W        W44218  14.234  14.721   1.352 -0.0949  0.3215 -0.0524
28750W        W44219   1.090   2.183  10.137 -0.0001 -0.1623  0.2689
28751W        W44220  17.201   6.051  14.911  0.2041  0.2449 -0.0190
28752W        W44221   8.108  15.777  12.085  0.0174 -0.2064  0.0673
28753W        W44222  18.640   2.715   1.147 -0.2152  0.1787  0.1232
28754W        W44223  10.712  13.798  11.526 -0.2060 -0.1303  0.4563
28755W        W44224  16.375  10.673   1.929 -0.2185 -0.1813  0.1807
28756W        W44225   0.196  12.611   4.088 -0.2015  0.0191 -0.1402
28757W        W44226   0.986  14.111  14.355  0.1496  0.0596  0.1833
28758W        W44227  11.745   8.172  13.069 -0.1893 -0.2853 -0.0556
28759W        W44228   9.871   6.211   2.649  0.0654  0.0591  0.0487
28760W        W44229   2.833  16.727  13.484  0.0896 -0.1338 -0.1965
28761W        W44230   3.075   8.065  14.652 -0.0441 -0.3984  0.1157
28762W        W44231  17.415   7.327  11.023 -0.1065  0.1458  0.2829
28763W        W44232  16.951   6.609   3.731  0.0357  0.3400 -0.1740
28764W        W44233   5.068   9.227  11.050 -0.0727  0.0025  0.0447
28765W        W44234   2.924   5.208   3.278 -0.1111 -0.4091  0.1546
28766W        W44235   2.836  14.933   3.233 -0.0006 -0.5648  0.3756
28767W        W44236   8.293   1.626   2.522  0.1668 -0.2126 -0.0750
28768W        W44237  14.589  16.346  12.988  0.1689 -0.3029 -0.3166
28769W        W44238   5.969  16.017   2.064  0.1758  0.2188  0.0566
28770W        W44239  13.287  10.760  12.071  0.3437  0.2546  0.0805
28771W        W44240   2.467   5.378   4.739  0.0226 -0.1232 -0.2399
28772W        W44241   2.863   9.341   3.206 -0.1007  0.0271 -0.1154
28773W        W44242   3.952   9.498  12.144 -0.4630  0.3890  0.0038
28774W        W44243   3.244  17.759   2.320  0.0457  0.1312  0.3982
28775W        W44244  14.355   8.931  12.683 -0.4385 -0.2076 -0.1355
28776W        W44245  11.783   2.219   1.287 -0.2091 -0.0295  0.0534
28777W        W44246   1.559  18.281   9.471 -0.1366  0.0332 -0.0114
28778W        W44247   1.737  11.368  11.688  0.1507 -0.1051 -0.0296
28779W        W44248   2.034   3.741   4.425  0.0141 -0.0877  0.4224
28780W        W44249  13.002   0.456   4.695 -0.0811  0.0267 -0.0749
28781W        W44250  14.800   5.655   4.182 -0.0591  0.0876 -0.1292
28782W        W44251   4.235  14.403  14.133  0.1281 -0.0224 -0.0796
28783W        W44252   3.302  17.715  13.448 -0.0124  0.3074  0.1288
28784W        W44253  17.266   6.640   1.156 -0.1181  0.3000 -0.0146
28785W        W44254   8.034   6.954   2.650 -0.1170 -0.1051  0.3333
28786W        W44255   6.273  17.476   5.063  0.1929 -0.1262  0.2534
28787W        W44256   0.704   9.962  11.309  0.1934  0.0487  0.1713
28788W        W44257   4.874   9.082  14.371 -0.2124 -0.1517 -0.2146
28789W        W44258   1.636   7.799   5.265  0.0185 -0.0939 -0.0314
28790W        W44259  10.835   9.400  12.092  0.2724 -0.3127 -0.2356
28791W        W44260   4.574  14.923  14.785  0.1561  0.1192 -0.0730
28792W        W44261   6.363  16.739   1.298  0.0933  0.0406  0.0984
28793W        W44262   4.938  16.213   0.257 -0.0239  0.0945  0.1423
28794W        W44263  16.725  12.472   0.958 -0.0944  0.0807  0.0115
28795W        W44264  14.377   0.212   4.057 -0.0351 -0.0419 -0.0505
28796W        W44265  16.688   7.685  12.584 -0.1841  0.0149  0.0655
28797W        W44266   1.094  12.811  11.504 -0.0674  0.1380  0.1460
28798W        W44267  12.505   9.815   4.778 -0.1820 -0.3053  0.1509
28799W        W44268  13.282   7.371  11.220 -0.1538 -0.2988  0.1382
28800W        W44269  16.160  12.179  10.824  0.0947  0.2084  0.0632
28801W        W44270   7.517   2.043  15.189  0.0957  0.1482 -0.1616
28802W        W44271   7.491   7.097   1.538 -0.0929  0.1775  0.0100
28803W        W44272   3.705   7.982  13.097  0.1217 -0.0159  0.2478
28804W        W44273  15.003  13.620  13.860 -0.1448  0.3104  0.1414
28805W        W44274   5.853   8.096   1.337 -0.1038 -0.0882 -0.1725
28806W        W44275   9.377  18.340   5.021 -0.2496  0.1659  0.0428
28807W        W44276  13.857   2.792   4.155 -0.1418  0.0182 -0.2076
28808W        W44277   0.601  15.577  15.124  0.3336 -0.1113  0.0298
28809W        W44278   1.179  18.348  11.115  0.1928 -0.0479  0.2664
28810W        W44279   2.135   8.894  13.658 -0.2441  0.1872 -0.4414
28811W        W44280   2.622  11.567  11.291  0.1182 -0.2258  0.1309
28812W        W44281   1.050   0.815   5.657 -0.1274  0.4294 -0.1134
28813W        W44282   7.902  12.900  15.123 -0.1281 -0.3210  0.3977
28814W        W44283  14.194   7.401  13.971 -0.1182 -0.1304  0.2175
28815W        W44284   3.326  18.646   6.004 -0.0639 -0.0357  0.1357
28816W        W44285   2.074   1.477  12.018 -0.0112  0.3428  0.0956
28817W        W44286  13.085  16.570   3.984 -0.5492  0.1958 -0.1187
28818W        W44287  16.112  18.912   9.376  0.0844 -0.0840 -0.0098
28819W        W44288   9.354  18.938  14.854 -0.1519  0.1077  0.0520
28820W        W44289  13.189  13.240   2.102  0.0308  0.1076 -0.3163
28821W        W44290  14.325   5.874   4.118 -0.0382  0.0707 -0.1693
28822W        W44291  16.873   4.654   2.112  0.0313 -0.0952  0.0098
28823W        W44292  12.938   3.689   1.336 -0.0495  0.0974 -0.1345
28824W        W44293   5.841   0.957  13.963 -0.1307 -0.1774 -0.1570
28825W        W44294  12.714  10.253  14.531  0.2609  0.1570  0.1946
28826W        W44295  18.709  10.980   3.699  0.2362  0.2251 -0.2800
28827W        W44296  15.473   3.808  11.340  0.0420 -0.2534 -0.1498
28828W        W44297   9.908   2.085  12.968 -0.0639 -0.0685  0.2977
28829W        W44298  10.508  13.248  11.522  0.1068 -0.3602 -0.5411
28830W        W44299   4.725   9.656  12.859 -0.0239 -0.3890  0.0229
28831W        W44300   8.597   8.868   0.193  0.0046 -0.2549 -0.0816
28832W        W44301  17.498  16.949  14.133  0.1424  0.1339 -0.0348
28833W        W44302   7.171  12.874   3.046 -0.1685  0.3042 -0.1908
28834W        W44303  12.796  13.457   5.202 -0.0461  0.0946 -0.2872
28835W        W44304   5.726  14.517  13.030  0.5256 -0.1048  0.1354
28836W        W44305   3.478  10.527   1.881 -0.0822  0.2309  0.0983
28837W        W44306  17.599   1.275  13.362  0.0253 -0.0931  0.0196
28838W        W44307   5.001  16.058   5.615  0.0571 -0.0031 -0.1019
28839W        W44308  12.049  17.477  15.098 -0.0852 -0.1297  0.1195
28840W        W44309   9.536  14.643   4.804 -0.0740 -0.2740 -0.0155
28841W        W44310  15.694  13.734  14.263 -0.0881 -0.3233  0.2745
28842W        W44311  16.457   6.254   2.345  0.3571  0.1255 -0.0043
28843W        W44312   8.222   8.896   1.806 -0.3037 -0.3771  0.2196
28844W        W44313   1.628   0.344  11.098  0.0517 -0.1006 -0.1706
28845W        W44314   3.010   0.993   2.863 -0.3178  0.1272  0.2389
28846W        W44315   1.179  11.479   5.218 -0.0534  0.0165 -0.0142
28847W        W44316   0.746   1.692   0.237  0.3107 -0.4166  0.0600
28848W        W44317  13.273   0.479  12.803 -0.0439  0.0631  0.4190
28849W        W44318   1.564  15.018  12.690 -0.3625 -0.3618  0.1407
28850W        W44319   3.107   2.162  13.680  0.1805  0.0571 -0.0117
28851W        W44320   9.499   3.672  12.379 -0.0384 -0.1292  0.3272
28852W        W44321   7.517  14.945   0.082  0.0847  0.1663  0.2043
28853W        W44322  15.513  17.365   3.195 -0.1434  0.1497 -0.0982
28854W        W44323  16.142  18.104   1.441  0.3069 -0.0795  0.0982
28855W        W44324   2.392  14.456  14.517 -0.0857  0.1478 -0.1106
28856W        W44325  18.488   7.194   2.380 -0.0417  0.3718  0.2388
28857W        W44326  12.485  12.361  15.027 -0.0322  0.0619  0.2189
28858W        W44327   3.682  17.622  11.761  0.0411 -0.0745 -0.2010
28859W        W44328   0.036   5.410  15.188 -0.0073  0.0684  0.1974
28860W        W44329   3.935  13.763  12.905 -0.1758  0.3081 -0.0572
28861W        W44330  18.416  14.265   2.684  0.0277  0.2664  0.0217
28862W        W44331  17.454  12.495   3.970  0.1841 -0.2561 -0.1984
28863W        W44332   7.958  12.404  14.921  0.2843  0.0942 -0.4849
28864W        W44333  18.050   2.245  11.890 -0.1116  0.3068  0.0119
28865W        W44334  17.000   8.928  13.008 -0.0950  0.0022 -0.2690
28866W        W44335  10.195  11.882  14.969 -0.1717  0.1821  0.0978
28867W        W44336   4.345   1.412   4.379 -0.4285 -0.2575  0.2452
28868W        W44337  12.045  16.792  12.924 -0.0891 -0.2793  0.0208
28869W        W44338  11.216   3.732  13.381 -0.1468 -0.0656  0.1227
28870W        W44339  17.500  13.138  14.771  0.3922 -0.2150 -0.0713
28871W        W44340   0.056   2.891   1.147 -0.1249 -0.0347 -0.0711
28872W        W44341   6.201  12.859  14.928  0.0544  0.1869 -0.0061
28873W        W44342   3.983   6.617  12.061 -0.3543 -0.2147  0.2085
28874W        W44343  17.688  15.884  11.861 -0.1441  0.2168  0.1904
28875W        W44344  16.339  10.209   0.499  0.2546 -0.3382 -0.2001
28876W        W44345   5.646  18.224   3.784 -0.3878 -0.1259  0.0791
28877W        W44346  12.466   8.660  14.471  0.1777  0.2245  0.0393
28878W        W44347  14.213  11.636   2.150 -0.0629  0.2574  0.2328
28879W        W44348  18.015  10.415   4.141  0.3207 -0.0759 -0.1056
28880W        W44349  10.370   3.675   2.484 -0.3059 -0.1388 -0.0701
28881W        W44350   6.213  16.060  12.427 -0.1928  0.1703 -0.0971
28882W        W44351   7.696   1.624   1.622  0.1093 -0.2345  0.0698
28883W        W44352   2.503   4.886   2.046 -0.0811 -0.1614 -0.4372
28884W        W44353   7.462   4.838   5.530  0.0478 -0.0156  0.1533
28885W        W44354   0.740   8.552   2.557  0.1998  0.2199  0.2486
28886W        W44355  13.286   2.602  12.416  0.3356  0.0807 -0.4741
28887W        W44356  16.011   9.424   2.703 -0.1344 -0.2223  0.0219
28888W        W44357   0.739   0.001   3.959 -0.0730  0.0323  0.1935
28889W        W44358  15.151   5.017   2.110  0.0249 -0.4356 -0.0796
28890W        W44359  14.592   5.360   3.226  0.2837  0.1623 -0.1963
28891W        W44360   7.014  11.109   1.854  0.3383 -0.0110  0.3437
28892W        W44361  10.440  11.027  12.519  0.3025  0.0318 -0.1724
28893W        W44362  13.232  18.126   9.721 -0.0898 -0.1837 -0.1465
28894W        W44363   3.974  12.903   2.529 -0.4365  0.0264 -0.0581
28895W        W44364   3.319   6.595  10.552  0.0368  0.2635  0.0751
28896W        W44365   9.573  16.938  14.016 -0.0805 -0.0040 -0.3999
28897W        W44366  18.403   5.661   3.952 -0.0108 -0.3191  0.0467
28898W        W44367  14.985  17.573  14.684  0.1074  0.1262 -0.0668
28899W        W44368   2.876   1.735   1.783 -0.0706  0.0817  0.0210
28900W        W44369  16.210  13.800   2.626 -0.1859 -0.0505  0.0325
28901W        W44370   1.205  16.675   9.273  0.1429  0.0645  0.0565
28902W        W44371   2.028  13.932  11.018  0.0069  0.2830 -0.0558
28903W        W44372   7.750  14.316  11.714 -0.1682  0.1148  0.1372
28904W        W44373   3.669   3.362   1.822  0.2523  0.2864  0.0190
28905W        W44374   3.325  17.185   4.030 -0.0464 -0.2349  0.0791
28906W        W44375  18.982   2.203  13.461 -0.0116  0.0104 -0.1147
28907W        W44376  14.131  12.350   0.423  0.0181  0.1678  0.0663
28908W        W44377  17.250  12.330   3.527 -0.2190  0.0860  0.0285
28909W        W44378  10.404   8.658  13.156  0.2421 -0.2516 -0.0955
28910W        W44379   5.992   3.046   3.093 -0.3465  0.2880 -0.3611
28911W        W44380   3.484   6.034   1.141 -0.1354 -0.2095 -0.2044
28912W        W44381   6.951  17.896  12.785 -0.2341 -0.6137  0.0588
28913W        W44382  17.346  11.239  13.841  0.1124  0.1542 -0.2098
28914W        W44383   6.930   0.603  11.210 -0.2476  0.1315 -0.0749
28915W        W44384  17.672   3.859  13.336 -0.2783 -0.0245 -0.1934
28916W        W44385  11.562   5.348   2.561  0.0576 -0.0424 -0.4554
28917W        W44386   0.198  10.231   3.111  0.0346  0.0122 -0.2353
28918W        W44387  11.802  18.372  11.247  0.1922 -0.1735  0.0779
28919W        W44388   4.794   7.787   9.414 -0.4376 -0.2750  0.0256
28920W        W44389  17.111  17.289   2.187  0.0311 -0.1659  0.1391
28921W        W44390   3.236   0.490   1.697 -0.0827  0.1468 -0.2502
28922W        W44391  14.824  10.378  13.808  0.1013 -0.0884  0.0706
28923W        W44392  13.257  16.486   2.315 -0.4035  0.0492  0.1322
28924W        W44393  12.824  16.545  13.930  0.0799  0.1284 -0.0478
28925W        W44394   7.970  14.656   0.387 -0.2005 -0.0379 -0.1197
28926W        W44395   9.610  18.677  13.895  0.0120  0.2227 -0.2344
28927W        W44396   5.494  16.635   5.465  0.0247 -0.0020 -0.1136
28928W        W44397   6.100   4.404   0.568  0.0911  0.1928  0.1367
28929W        W44398  18.927  12.973   5.280  0.1539  0.1461 -0.0165
28930W        W44399  16.274  10.176  14.994 -0.2277 -0.0277  0.3199
28931W        W44400   1.410  13.059   4.551 -0.2229  0.2109 -0.0878
28932W        W44401   5.304  13.001   4.073  0.3188 -0.1965  0.1932
28933W        W44402  12.611  13.930  12.426  0.1706  0.1791 -0.0535
28934W        W44403   7.865  12.470   3.203 -0.1221  0.5948  0.1823
28935W        W44404   4.550   1.638   4.772 -0.1428 -0.3594  0.1545
28936W        W44405  16.432   1.313   3.582  0.0887  0.0916 -0.2171
28937W        W44406   1.859  11.915   3.674 -0.0069 -0.2479 -0.1252
28938W        W44407  13.754   4.137  13.386 -0.2649 -0.2596 -0.1151
28939W        W44408  15.084   8.804  11.023 -0.3200 -0.2196 -0.0501
28940W        W44409   5.906   8.477   3.479  0.1994 -0.1386  0.1738
28941W        W44410   5.380  12.303   2.124  0.1854 -0.2282  0.1214
28942W        W44411  14.988   5.658  10.559 -0.2516  0.2217 -0.2585
28943W        W44412   9.327   2.080  12.093  0.1120 -0.0810 -0.2863
28944W        W44413  15.927   9.864   3.587 -0.1907  0.4141 -0.5028
28945W        W44414   2.240   9.842   0.104  0.2280  0.1853 -0.2815
28946W        W44415   1.096   2.854   2.055 -0.2107  0.0511 -0.2893
28947W        W44416  17.586  15.621   1.172 -0.5604  0.0067 -0.4014
28948W        W44417   3.665  12.018  13.317 -0.2983 -0.2399  0.3205
28949W        W44418   8.381  12.414  12.491 -0.1707  0.1003 -0.1417
28950W        W44419   4.523   5.970  14.942  0.3369 -0.1771  0.0600
28951W        W44420  17.766   5.593   1.298 -0.3748 -0.1969 -0.2990
28952W        W44421   0.197  10.152  14.235  0.0689  0.3013  0.1372
28953W        W44422   8.725   7.598  11.388 -0.0936 -0.0028  0.2294
28954W        W44423  16.785   2.923  11.761  0.0642 -0.1381 -0.1369
28955W        W44424  18.613   7.236   3.835  0.0530 -0.0283  0.1795
28956W        W44425  15.724  16.418  14.053  0.0514  0.0387  0.0403
28957W        W44426   3.422  18.634  11.383 -0.0438  0.1254  0.0270
28958W        W44427  18.871   4.626  13.516 -0.1333  0.3616  0.0025
28959W        W44428   2.577  16.225   3.168 -0.0820  0.2713 -0.1010
28960W        W44429  17.508  10.944   5.401  0.1129  0.3203  0.0016
28961W        W44430   7.986  19.016   3.796 -0.0839  0.2570  0.2963
28962W        W44431  18.424   5.717   2.460 -0.0637  0.1605 -0.0853
28963W        W44432  14.553   6.232   0.272  0.0637  0.2364 -0.1465
28964W        W44433   3.612   6.807  14.298 -0.2014 -0.0391  0.0216
28965W        W44434  16.180   4.640  12.412 -0.1801 -0.0299  0.1001
28966W        W44435   6.798   0.136  10.794 -0.4701 -0.1907 -0.3309
28967W        W44436   5.252   3.158   1.197 -0.2961  0.1944  0.0419
28968W        W44437   7.792  14.506   3.327  0.3256 -0.2516  0.2262
28969W        W44438   4.365  15.966  12.280 -0.0076  0.1597  0.0784
28970W        W44439  15.021  11.279  10.832 -0.3047  0.2595  0.0738
28971W        W44440   8.295   0.634   3.060 -0.3312 -0.1003 -0.0680
28972W        W44441   1.521  14.957  15.275 -0.2715  0.0757  0.1504
28973W        W44442   5.313   4.509   0.351  0.1100 -0.3112  0.1998
28974W        W44443  16.462   3.616  14.498  0.0238 -0.0780 -0.1878
28975W        W44444  18.851   3.160  12.424  0.1054  0.0712 -0.3498
28976W        W44445   8.188  18.112   4.871  0.2183 -0.1065  0.2253
28977W        W44446   0.422   4.214   0.936 -0.1217  0.1747 -0.1348
28978W        W44447   9.458   9.358   0.394  0.0269 -0.0987 -0.0562
28979W        W44448   9.508   6.182   4.646 -0.2413  0.0234  0.2784
28980W        W44449   3.168  12.530  12.596  0.2654  0.1031 -0.2389
28981W        W44450   8.691  14.913  12.137  0.1763  0.0700 -0.1818
28982W        W44451  16.578  15.963   3.432  0.0302 -0.2114 -0.3407
28983W        W44452   3.715   2.286  14.709 -0.0407 -0.4701  0.1323
28984W        W44453   2.700   1.889   4.884 -0.1075 -0.1930  0.0467
28985W        W44454   6.575   3.425   3.392 -0.3745  0.1392 -0.3994
28986W        W44455   7.777   3.855  12.763 -0.4314 -0.1615  0.1574
28987W        W44456  14.504  13.069   2.865  0.0319 -0.1931  0.0868
28988W        W44457   4.179   7.467   0.397  0.1256  0.0951 -0.2814
28989W        W44458  10.587   1.059   4.304 -0.0242  0.0002 -0.0253
28990W        W44459   3.659   7.980  11.762  0.1674 -0.0062  0.1831
28991W        W44460   7.387   5.071  14.346 -0.0381 -0.3745  0.0382
28992W        W44461  18.618   1.358   1.156  0.0966  0.3272 -0.0150
28993W        W44462   7.709   9.939  11.482  0.1513  0.1445 -0.3279
28994W        W44463  14.833  12.719  11.080  0.1752  0.3340  0.1137
28995W        W44464  13.561   5.154  12.248  0.0188  0.0897  0.0631
28996W        W44465  18.569  18.573  12.480  0.0468  0.1251  0.0708
28997W        W44466   3.591   6.743  11.333 -0.2514  0.1151  0.0045
28998W        W44467   6.123  11.142  13.659 -0.1018  0.0913  0.0829
28999W        W44468   3.080  15.078  14.618 -0.0552  0.0524  0.1412
29000W        W44469   4.742  15.200   1.982  0.0579  0.0966 -0.1469
29001W        W44470  18.762  15.148  14.823  0.1250  0.0864  0.0291
29002W        W44471  16.039   2.946   3.542 -0.0475  0.1005 -0.1088
29003W        W44472   9.191   4.466  10.836 -0.1508 -0.1832 -0.3367
29004W        W44473  18.305   9.853  14.539  0.2260 -0.0842  0.3436
29005W        W44474   0.472   3.346   1.420 -0.0110 -0.1595  0.2015
29006W        W44475  16.169   6.821   2.455  0.3081 -0.1307 -0.1236
29007W        W44476  13.709   4.888   5.165 -0.1738  0.4162  0.3980
29008W        W44477  13.679   6.932   4.472  0.1445 -0.1453  0.1175
29009W        W44478  17.469  18.205   2.180  0.0429  0.3130  0.1571
29010W        W44479   9.411   7.308  11.920  0.1342 -0.0892  0.0834
29011W        W44480   8.733   0.304  12.324  0.0185 -0.0613  0.0210
29012W        W44481   9.349  15.410   4.441 -0.0746 -0.0168 -0.1898
29013W        W44482  13.106   4.354  10.636  0.3836 -0.1400  0.1707
29014W        W44483  10.686  15.362   2.308 -0.3069  0.1308  0.4232
29015W        W44484  14.458   0.034  10.857  0.2634 -0.1724  0.1392
29016W        W44485   3.544  12.529  13.430  0.3064  0.0577 -0.1978
29017W        W44486   5.633   8.792  12.652 -0.3939  0.2911  0.1142
29018W        W44487  18.892  14.194   4.444 -0.0454  0.3025  0.0692
29019W        W44488  11.701   1.446  13.441 -0.2850  0.0545 -0.0822
29020W        W44489   6.360  10.303  14.448  0.5766 -0.2188  0.1670
29021W        W44490  17.532  16.188   1.667  0.1180 -0.1859 -0.2820
29022W        W44491   2.826   8.731  12.048 -0.0237 -0.4190 -0.3607
29023W        W44492  17.722  15.104   1.122 -0.1845 -0.0852  0.1223
29024W        W44493  16.424  17.747  11.990 -0.0714  0.0568  0.1442
29025W        W44494  17.990  16.190   0.134  0.1721 -0.0766 -0.1323
29026W        W44495   0.163  13.124   2.535  0.2040 -0.0602 -0.0173
29027W        W44496   5.595   0.356  12.916  0.1885 -0.2630 -0.2488
29028W        W44497  17.600   1.910   1.661 -0.0498  0.1652  0.0040
29029W        W44498   7.283  16.452  13.977 -0.2456 -0.2232 -0.1053
29030W        W44499  17.563  16.880  12.036 -0.2098  0.0221 -0.1923
29031W        W44500   5.869   8.288  14.142 -0.3099 -0.1138  0.3473
29032W        W44501  18.876   6.637  11.052 -0.1058  0.1034  0.1672
29033W        W44502  14.995  12.199  15.340  0.1385  0.1704  0.2690
29034W        W44503  13.287  14.143  11.055 -0.1691 -0.0390  0.3829
29035W        W44504  17.338  16.447  11.284 -0.1932 -0.3143  0.0489
29036W        W44505  10.230  17.732  14.963 -0.2933  0.0667  0.0543
29037W        W44506  12.024  16.005   3.362 -0.0752  0.1835 -0.0773
29038W        W44507  15.510   6.184   5.089 -0.1308  0.2039  0.3811
29039W        W44508  18.804   6.193   3.400  0.2237  0.0903 -0.3128
29040W        W44509   2.419   8.906  10.759 -0.0186 -0.2842  0.1742
29041W        W44510   0.076   7.397   0.773 -0.2797 -0.0820 -0.2321
29042W        W44511  15.216   2.251   4.039 -0.0581  0.0962  0.1605
29043W        W44512  14.226   4.008   1.420  0.1286  0.4504 -0.1063
29044W        W44513   4.585   8.601   2.893  0.2721 -0.0990 -0.1448
29045W        W44514   2.186   5.346  13.993  0.0405 -0.2543 -0.2670
29046W        W44515   5.418  13.313   0.068  0.1401 -0.2459 -0.0089
29047W        W44516  13.241   5.715   3.908 -0.3066  0.1435  0.1224
29048W        W44517  11.960   6.579   0.781  0.0442  0.0003 -0.1490
29049W        W44518  14.810  12.312  14.868 -0.0533  0.1051 -0.1155
29050W        W44519   1.632  16.282  12.075  0.1919  0.0669  0.0702
29051W        W44520   3.047  18.269   9.841 -0.1740  0.1130  0.0883
29052W        W44521  10.445  12.094   4.211  0.1135 -0.0164 -0.2518
29053W        W44522  10.393  11.469  11.529  0.1999  0.2500 -0.2040
29054W        W44523  15.578   3.546  12.963  0.0762 -0.2317  0.0369
29055W        W44524  11.342   7.437  14.935  0.0911  0.2241 -0.2643
29056W        W44525   8.814   3.550   3.691  0.0772 -0.1223  0.0507
29057W        W44526  11.551   2.142   0.745  0.1586  0.1099 -0.0252
29058W        W44527   7.525  16.559   4.338 -0.1673 -0.0340 -0.0827
29059W        W44528   7.599   0.102  13.447  0.3890 -0.0603  0.0494
29060W        W44529  17.015  18.092  10.719 -0.1370  0.2563 -0.2117
29061W        W44530   2.833  12.764  11.220 -0.3369 -0.0890  0.0425
29062W        W44531  14.912   7.869   4.347  0.0288  0.0135  0.2639
29063W        W44532   8.630  15.797  11.137  0.1846 -0.1345  0.0603
29064W        W44533   2.785  15.432  11.232 -0.0987  0.2776  0.1376
29065W        W44534  12.888   5.770   4.734 -0.0488  0.1732 -0.0364
29066W        W44535  11.983  15.777   3.920 -0.1128  0.0075 -0.3536
29067W        W44536  15.224  12.418  11.465  0.0003  0.1056 -0.4218
29068W        W44537   1.258  17.008  12.292 -0.0935  0.0327 -0.1082
29069W        W44538   7.661   7.500  10.678 -0.2659  0.0844  0.1098
29070W        W44539   2.536   6.218   0.366  0.0107 -0.3964 -0.0003
29071W        W44540   3.295   2.622  14.513 -0.0393 -0.0298  0.2259
29072W        W44541   1.070  15.650   0.877 -0.2505  0.2396 -0.0348
29073W        W44542  13.007   1.527  12.044 -0.1845 -0.0479 -0.1898
29074W        W44543  16.529  15.467   4.861  0.1340 -0.2655 -0.0660
29075W        W44544  16.978  11.548  14.711 -0.0885 -0.2367  0.2112
29076W        W44545  13.689   3.698  11.862  0.0460 -0.0078 -0.2082
29077W        W44546  11.515  18.823   2.702 -0.1240  0.1122 -0.1342
29078W        W44547  15.479   8.888  13.610  0.1987  0.1780 -0.0785
29079W        W44548  13.650  12.300   3.356  0.1186 -0.0982  0.2178
29080W        W44549  10.718   6.130  11.423  0.2195 -0.0328  0.1936
29081W        W44550  15.132   8.842   4.655  0.1825 -0.0911  0.2251
29082W        W44551  15.757  14.266   0.057 -0.0715  0.1587 -0.3230
29083W        W44552   0.501   2.687   3.615 -0.1069 -0.0701 -0.1513
29084W        W44553  11.341   1.010  10.424 -0.0820 -0.1672 -0.0277
29085W        W44554   5.948   3.686  14.318 -0.0897  0.0780 -0.2093
29086W        W44555   7.030   3.612   4.425  0.1386 -0.2650 -0.0784
29087W        W44556  11.513  11.123   5.901 -0.2764 -0.3281 -0.1114
29088W        W44557  12.083   2.205  12.039  0.0820 -0.0586 -0.1200
29089W        W44558   0.778  18.499   1.817  0.2590 -0.0413 -0.0536
29090W        W44559  10.767  16.035  10.358 -0.1406 -0.1170 -0.0267
29091W        W44560   9.994   9.685  13.242  0.3216 -0.1418 -0.3054
29092W        W44561   5.684  18.022   4.233  0.0434 -0.0644  0.2191
29093W        W44562   7.764  17.954  13.927  0.0648  0.0253  0.0404
29094W        W44563   9.556  19.004   4.533  0.0377  0.0471  0.4956
29095W        W44564   5.822   1.184   1.993  0.3396 -0.1160  0.0865
29096W        W44565  18.733   0.057   3.886 -0.1781 -0.2315 -0.2077
29097W        W44566   5.527   5.184   0.591  0.0910  0.0377 -0.0321
29098W        W44567  17.365  17.656   1.794  0.2120 -0.0382  0.4762
29099W        W44568  11.311  14.405  12.954 -0.0675  0.0267  0.1593
29100W        W44569   0.247   5.815  11.328  0.3457  0.0374  0.2106
29101W        W44570   9.472   2.632   5.378  0.1421 -0.1894  0.0502
29102W        W44571  15.077  15.578   3.379 -0.3259  0.2363 -0.1774
29103W        W44572  10.200  14.704   1.372 -0.0081  0.0965  0.1529
29104W        W44573   5.932  15.866  14.409 -0.2642 -0.2042  0.3073
29105W        W44574  18.407  16.166   3.926 -0.0279 -0.0579  0.2722
29106W        W44575  10.070   6.777   0.624  0.1115 -0.1404 -0.2881
29107W        W44576  13.458  11.484  14.401 -0.1406 -0.1102  0.4946
29108W        W44577  12.094   6.078  11.546  0.3777  0.0666  0.0295
29109W        W44578  13.651  12.478   0.505  0.1940 -0.1880  0.0016
29110W        W44579   3.782  15.419  11.155  0.1206 -0.0365 -0.1153
29111W        W44580  17.301  16.256   3.421 -0.2660 -0.1289  0.0035
29112W        W44581   4.087   3.472  10.089  0.0825  0.0764 -0.2185
29113W        W44582  16.904  14.478   0.958  0.0135  0.0877  0.2346
29114W        W44583   3.448   9.688   5.113 -0.1471 -0.0471  0.3304
29115W        W44584  18.959   5.766   1.663 -0.0622 -0.2350 -0.0897
29116W        W44585   0.144  10.738  14.705 -0.1630 -0.0335  0.1309
29117W        W44586  12.558   1.030  14.969  0.0294  0.0856 -0.3805
29118W        W44587   3.194  17.511   0.808  0.0338 -0.1319  0.0497
29119W        W44588   1.209  12.299   5.171  0.2428  0.0950  0.1390
29120W        W44589   6.978  16.504  10.639  0.3591  0.0911  0.2296
29121W        W44590   8.365   5.715   3.127  0.2148  0.0312  0.0347
29122W        W44591   1.834   1.725  14.879 -0.2223  0.3207 -0.1572
29123W        W44592  11.264  17.094   0.794  0.2154  0.2885 -0.1131
29124W        W44593  13.075  16.087  10.295  0.2328  0.0367  0.0769
29125W        W44594   6.543   5.246   4.284 -0.1935 -0.0607 -0.0020
29126W        W44595  18.238  15.383  14.670  0.3165  0.3623 -0.1519
29127W        W44596  16.033   2.074   3.353 -0.3293 -0.2057  0.2615
29128W        W44597  13.696  11.733   4.170  0.1902 -0.3199 -0.0684
29129W        W44598   3.766   5.390  10.015 -0.4101  0.1250 -0.0866
29130W        W44599  13.427  16.218   4.092  0.2461 -0.1123 -0.1170
29131W        W44600   1.519  15.736  11.491  0.0450  0.0489  0.2351
29132W        W44601   6.002   2.916   2.297 -0.0588 -0.0501  0.2540
29133W        W44602  17.601   9.502   3.692 -0.3208  0.3836  0.4380
29134W        W44603  14.868  10.993  13.646  0.0600  0.1757 -0.3445
29135W        W44604   3.524  10.174  12.788  0.0105 -0.1319  0.2691
29136W        W44605   3.708   6.456  14.910 -0.0388 -0.3833  0.0415
29137W        W44606  14.657   8.222  11.516  0.0156 -0.2617 -0.2218
29138W        W44607  16.835   6.597   0.097  0.2353 -0.0051  0.1680
29139W        W44608  15.594   1.694   5.047  0.1247  0.0251 -0.3658
29140W        W44609   2.426  16.333   1.806  0.0057 -0.0741 -0.0332
29141W        W44610  17.390  17.455   2.673  0.0539 -0.2006  0.1354
29142W        W44611  12.546   2.763  14.272 -0.0569 -0.1401 -0.3059
29143W        W44612   1.468   5.851   0.497  0.3459 -0.1193 -0.0011
29144W        W44613   5.184   5.315   4.252  0.2016  0.1430 -0.0481
29145W        W44614  13.124  18.383  14.483 -0.0324  0.2555 -0.1431
29146W        W44615   5.656   5.677  12.602  0.0764  0.1431  0.0083
29147W        W44616  13.821  12.273   2.330 -0.0098  0.0858  0.1168
29148W        W44617   6.823  14.065   1.240  0.2778 -0.2545 -0.1903
29149W        W44618  16.986   4.627  10.903 -0.0459 -0.3185 -0.1716
29150W        W44619   6.896   8.648   3.306  0.2415 -0.1617 -0.0244
29151W        W44620   8.956   5.930  11.682 -0.1636  0.0317  0.0712
29152W        W44621   3.489   7.554  10.784 -0.0966  0.2233 -0.2478
29153W        W44622  12.450  15.799   3.715 -0.0153  0.0536  0.0313
29154W        W44623  13.180  13.862   9.880  0.1460 -0.0316 -0.0259
29155W        W44624   0.034  18.827  15.163  0.1076 -0.2636 -0.1522
29156W        W44625  11.622  13.037  12.726 -0.1555 -0.0701 -0.0653
29157W        W44626   3.637  11.601   2.191  0.1411 -0.0295 -0.1912
29158W        W44627   9.775   2.803  10.446 -0.2702 -0.1473 -0.2205
29159W        W44628   4.054   3.544  11.324 -0.3261 -0.0897  0.2615
29160W        W44629  11.376   4.359  13.884  0.1207 -0.0475  0.0849
29161W        W44630  15.409   4.414  13.565 -0.5033  0.1511 -0.1399
29162W        W44631  13.327  13.220   0.509 -0.1879  0.0039 -0.1617
29163W        W44632  18.152   4.564  10.673 -0.0700 -0.2063 -0.1872
29164W        W44633  11.826  17.223  13.405  0.2503 -0.0442  0.0549
29165W        W44634  15.764   6.602  12.946 -0.0866  0.3555  0.0835
29166W        W44635  17.638  14.695   0.241 -0.0889 -0.1606  0.0655
29167W        W44636  15.064   9.761   0.384  0.1551 -0.3267  0.1762
29168W        W44637   1.460  16.284   1.460 -0.5197 -0.0217  0.0755
29169W        W44638  10.505  16.667   0.452  0.0813  0.2936  0.0873
29170W        W44639  18.556   2.545  14.670 -0.4632  0.0069  0.0578
29171W        W44640   0.049  14.259   1.692  0.0175  0.1190  0.2102
29172W        W44641  18.146  10.987  14.424 -0.1173  0.1147 -0.1535
29173W        W44642  14.009  17.437  11.627 -0.0053 -0.2444 -0.0081
29174W        W44643  17.831  11.066  12.978 -0.1060 -0.0332  0.0602
29175W        W44644   6.907  15.264  14.869 -0.2557  0.0903 -0.3388
29176W        W44645   3.448   6.378   5.745  0.2325  0.1210  0.0136
29177W        W44646  15.545   7.952  11.820 -0.0485 -0.1023 -0.0441
29178W        W44647  17.110   8.843   0.780 -0.2178 -0.1200 -0.0573
29179W        W44648   4.172  18.412  14.769  0.3365  0.2068 -0.3719
29180W        W44649   0.454   3.503  14.669  0.0712 -0.1761 -0.0305
29181W        W44650   9.821   2.270  11.768 -0.2276 -0.1311 -0.1692
29182W        W44651   7.233   2.076   3.257  0.0747 -0.2851  0.1446
29183W        W44652   8.046   9.819  11.945  0.0372  0.0491 -0.1657
29184W        W44653  15.637   3.702   1.714  0.1859 -0.1031  0.1188
29185W        W44654  15.453   3.950  12.712  0.1356  0.0205  0.0803
29186W        W44655   3.623  15.762  14.099 -0.0780 -0.2076 -0.1485
29187W        W44656   8.930  10.298  11.156  0.0487  0.1553 -0.1134
29188W        W44657   1.781  15.124   3.644 -0.0686 -0.2095  0.2656
29189W        W44658   5.758  13.088   3.062 -0.0343 -0.1906  0.0113
29190W        W44659   2.127   3.580  12.608  0.4350 -0.1181  0.3792
29191W        W44660  16.882  12.155   4.851  0.0144  0.4210 -0.4855
29192W        W44661   5.017  11.084   3.071 -0.0903  0.0529  0.0403
29193W        W44662   3.374   9.252  13.225 -0.0372 -0.0158 -0.0209
29194W        W44663   1.072  11.759   2.333  0.2592 -0.0868  0.3589
29195W        W44664   5.434  18.630   2.888 -0.2970  0.4024  0.2547
29196W        W44665  15.559   3.099  14.226 -0.1517  0.0262 -0.0280
29197W        W44666   6.136  13.738   4.693 -0.1413 -0.1337 -0.0399
29198W        W44667   9.432   1.245   3.620 -0.0142 -0.1803 -0.0869
29199W        W44668   3.587   3.188  12.104 -0.0060  0.4349 -0.3744
29200W        W44669   6.576  15.534  11.371 -0.2574  0.1214 -0.3954
29201W        W44670   1.231   1.142  12.556 -0.2229 -0.3356 -0.2073
29202W        W44671   5.269   3.982  10.754  0.1933  0.4618  0.0286
29203W        W44672   5.785   8.330  10.343 -0.0642  0.0855  0.2241
29204W        W44673   0.284  16.864   1.590  0.3637 -0.0059 -0.1565
29205W        W44674  17.015  12.742  13.647  0.1551 -0.0561  0.0661
29206W        W44675  12.880  17.793  12.849 -0.0537  0.4530  0.1635
29207W        W44676  11.820  10.412  13.534 -0.2480  0.0530 -0.3355
29208W        W44677  14.066  13.734   0.921  0.1551  0.1224 -0.3044
29209W        W44678  14.381  10.603   0.611 -0.1547  0.0580 -0.0295
29210W        W44679   2.080  10.987  13.344  0.0392  0.2232 -0.1641
29211W        W44680   1.902  11.933  14.500 -0.1819  0.4700  0.1522
29212W        W44681  12.791   7.888  13.575 -0.1188 -0.0928  0.1223
29213W        W44682   2.851  16.040   2.562 -0.1174  0.0241  0.0397
29214W        W44683  10.443   6.949   0.322 -0.1477  0.0127 -0.3926
29215W        W44684  18.941  17.342   0.658 -0.1379  0.1165  0.0501
29216W        W44685   6.245   6.189   1.215  0.3434  0.2151  0.1569
29217W        W44686  11.133   1.366   0.870 -0.0880  0.1889 -0.0233
29218W        W44687  16.985   3.258   9.380 -0.3535  0.0511 -0.0728
29219W        W44688  15.510   5.272   1.739 -0.1449  0.0236 -0.2122
29220W        W44689  16.582  17.741  10.448  0.4160  0.0722 -0.1426
29221W        W44690   3.192   4.708   0.594 -0.2113  0.0043  0.1936
29222W        W44691  12.402  17.331  14.138 -0.2621 -0.0840  0.1603
29223W        W44692  16.439  13.830   1.285  0.1382 -0.1592  0.0555
29224W        W44693   0.040  17.732   2.162 -0.0751 -0.4440  0.1140
29225W        W44694   9.220  17.367   2.493 -0.1612 -0.1576  0.0472
29226W        W44695   4.069  15.908  15.253 -0.0703  0.0019 -0.1005
29227W        W44696   4.583  16.213  11.904 -0.0858 -0.0294  0.1640
29228W        W44697  17.295   7.118   2.873 -0.1061 -0.1497 -0.0909
29229W        W44698  15.973  11.633   9.801 -0.0829  0.0586 -0.1545
29230W        W44699  15.514   3.672  14.019 -0.0482  0.1751  0.0338
29231W        W44700   9.955   3.444  11.200 -0.0679 -0.0251 -0.1284
29232W        W44701  14.292   2.015   3.406  0.1013 -0.1784 -0.0040
29233W        W44702  17.938   0.788  14.906 -0.0145 -0.1123  0.4336
29234W        W44703   3.545  10.114  15.089 -0.1196  0.2902 -0.1270
29235W        W44704  12.140   1.410   3.169 -0.0018  0.1325 -0.4960
29236W        W44705  13.464  15.202  11.602 -0.0396  0.0713  0.1088
29237W        W44706   6.200  13.331   3.080  0.3175  0.3768  0.2922
29238W        W44707   3.310  13.355   1.661 -0.1752  0.1193  0.4566
29239W        W44708  17.511  14.084  12.182  0.0118 -0.1929 -0.0424
29240W        W44709   3.531   5.716   3.350  0.1155  0.0936 -0.0005
29241W        W44710   6.808   1.471   1.084  0.2679 -0.0976 -0.1693
29242W        W44711   8.614   0.778  12.180 -0.1095  0.1247  0.2156
29243W        W44712   6.974  12.100   3.022  0.1022  0.1642 -0.0661
29244W        W44713  14.301  14.934  12.263 -0.2158 -0.1313 -0.0431
29245W        W44714  16.094  16.440   4.669  0.1517  0.3316  0.0183
29246W        W44715   2.821  16.567   4.611  0.1057 -0.2095  0.3018
29247W        W44716   7.087  16.528   3.456 -0.0509 -0.1468  0.1933
29248W        W44717   8.888  15.587   5.698  0.2834 -0.4608 -0.1257
29249W        W44718  16.380   4.051  14.711 -0.0608 -0.0977 -0.0028
29250W        W44719  16.766   3.880  11.641  0.1946 -0.1436  0.0055
29251W        W44720   9.485   6.029   2.233 -0.3754  0.0329  0.0974
29252W        W44721  14.157  11.288  11.792  0.0571 -0.3171  0.2013
29253W        W44722   2.236  11.796   1.055 -0.0325  0.0479  0.1329
29254W        W44723  15.281   5.132   3.717 -0.0767 -0.3370 -0.2892
29255W        W44724  11.704  18.836  13.478  0.0312  0.0996 -0.0452
29256W        W44725   1.907  13.069   5.074  0.3125 -0.2132 -0.2608
29257W        W44726  18.156   8.338   3.967  0.3365 -0.2572  0.2136
29258W        W44727  10.258   8.493   3.164 -0.3564 -0.0332 -0.0625
29259W        W44728   2.446   6.888  11.117 -0.1384 -0.2237  0.0117
29260W        W44729   8.439   6.144   3.750 -0.1574 -0.0525 -0.2576
29261W        W44730  14.121   9.180   1.413 -0.0485  0.0537  0.0616
29262W        W44731  11.642  13.534  13.531 -0.0600  0.1312 -0.2753
29263W        W44732  17.492   4.415   2.829 -0.1956  0.0307  0.0192
29264W        W44733  15.708  18.391  15.297 -0.4767 -0.0372  0.2643
29265W        W44734   9.245   4.539   5.825 -0.0708  0.3118 -0.1233
29266W        W44735   4.835   9.927  11.966 -0.0303  0.5167  0.0191
29267W        W44736   3.646  16.619   0.772  0.0797  0.5149  0.0027
29268W        W44737   3.641  11.084  14.611 -0.0620 -0.2319 -0.3345
29269W        W44738   3.858   6.499   4.096  0.1888 -0.2707 -0.2762
29270W        W44739   8.829   8.529  15.204 -0.0861 -0.0462  0.0792
29271W        W44740   5.341   8.502  13.772 -0.0253 -0.0573  0.4423
29272W        W44741  13.825   3.708  10.711 -0.0938 -0.1479  0.0957
29273W        W44742   9.212   3.034   1.308 -0.0094  0.2225  0.2068
29274W        W44743   1.654  10.550  13.363 -0.0613  0.0223 -0.0280
29275W        W44744  10.420   4.391   0.737 -0.2152  0.1134  0.0983
29276W        W44745  12.572   8.500   4.894  0.1368 -0.0544 -0.4117
29277W        W44746   8.058  18.970  10.570  0.0193 -0.0393 -0.0406
29278W        W44747   0.887  17.365   9.710  0.0514 -0.0588 -0.1560
29279W        W44748   1.265   6.582  10.023 -0.0560  0.2343 -0.1573
29280W        W44749  12.673  12.066   2.765 -0.2908 -0.0680 -0.0271
29281W        W44750  15.635   0.457   0.265 -0.0563 -0.0518  0.1308
29282W        W44751  14.838   3.078  13.675  0.2453 -0.4802 -0.2845
29283W        W44752   9.732   6.925  14.024 -0.0862 -0.1581  0.2667
29284W        W44753   8.544  15.724  14.404 -0.1699 -0.3795  0.0844
29285W        W44754  15.558   4.836   4.626  0.1842  0.1820 -0.1337
29286W        W44755   5.440   5.778  14.741 -0.2767 -0.0348  0.1101
29287W        W44756   8.057   3.763  13.211 -0.0875 -0.0801 -0.0779
29288W        W44757  16.881   8.868  14.018 -0.2088  0.1120  0.1565
29289W        W44758  17.529   8.574  13.705  0.2048  0.1301  0.2284
29290W        W44759   4.958   8.163  12.608  0.2208  0.0529 -0.0864
29291W        W44760   8.111   5.240   3.221 -0.3284 -0.0777  0.1031
29292W        W44761  12.546   4.638   2.946  0.0792 -0.1617 -0.1761
29293W        W44762   5.253  13.358  12.974 -0.0927 -0.0412  0.0823
29294W        W44763  18.135  18.736   1.091 -0.0737  0.0079 -0.0917
29295W        W44764   0.935  14.163  11.099 -0.1380 -0.2097 -0.1524
29296W        W44765  15.944   1.673  13.322  0.2141  0.0623  0.0132
29297W        W44766   7.478   0.778  14.318  0.1441 -0.0368 -0.0272
29298W        W44767  10.371   3.341   3.860  0.0011 -0.0167  0.0973
29299W        W44768  17.666  11.135  10.853  0.1604  0.1514 -0.4948
29300W        W44769  14.871   6.689  10.604  0.0709  0.2309  0.1629
29301W        W44770   5.518  17.315   1.559 -0.2953  0.0091 -0.0412
29302W        W44771   9.800  15.062  12.505  0.2799  0.2260  0.2050
29303W        W44772   0.942   5.311  11.418 -0.1335  0.1507  0.2279
29304W        W44773  18.997  16.013   9.528  0.3776 -0.2507 -0.1161
29305W        W44774  10.541  15.781   0.941 -0.1683  0.0989 -0.1000
29306W        W44775  17.607  12.867  15.202 -0.2336  0.1432 -0.0109
29307W        W44776   6.431  17.591   0.772  0.2065 -0.0866  0.2440
29308W        W44777   1.732   5.556  10.324  0.1080  0.1935  0.3888
29309W        W44778   3.455   7.002   4.811  0.1494 -0.0260  0.0145
29310W        W44779   0.731  13.799   3.977  0.3412 -0.1298 -0.1039
29311W        W44780   7.046  13.573   3.503  0.1031  0.2661  0.1197
29312W        W44781  17.007  11.220  13.133 -0.1400  0.0672  0.0980
29313W        W44782  18.290  11.112   2.425 -0.2585 -0.0594 -0.5752
29314W        W44783   9.044  13.612   4.279  0.0019 -0.1612  0.3633
29315W        W44784  17.305   9.148  11.253  0.0884 -0.0707  0.1510
29316W        W44785  17.579  11.512   2.761 -0.3187 -0.2006 -0.0747
29317W        W44786  12.879   5.482  15.008  0.3400  0.4793 -0.0542
29318W        W44787  15.224   1.024  14.452  0.2499 -0.3476  0.2114
29319W        W44788   2.686   9.916   1.081  0.3937  0.3374  0.0291
29320W        W44789  18.977  12.392   2.780  0.0451  0.0860 -0.1340
29321W        W44790  13.185   7.681  10.021  0.2044  0.0086 -0.2425
29322W        W44791   3.125  13.125   4.383  0.0586  0.2537 -0.1828
29323W        W44792   9.280  13.744  10.684  0.1287  0.0553  0.0626
29324W        W44793   7.748   4.743   4.348 -0.0251  0.2730 -0.1641
29325W        W44794  18.999   8.372  12.389  0.1760 -0.1747 -0.1625
29326W        W44795  12.960   3.709  11.683  0.0112 -0.0789 -0.3315
29327W        W44796   0.337  15.763  13.599  0.2039  0.1856  0.5982
29328W        W44797   6.428   0.619   4.043  0.3785  0.0230 -0.1509
29329W        W44798   1.693   3.969   9.688 -0.0853 -0.1578 -0.0697
29330W        W44799  13.592  13.085  11.276 -0.0469 -0.2661 -0.0343
29331W        W44800   8.146   5.204  13.932  0.1035 -0.1316  0.0259
29332W        W44801  12.861  18.968  12.045  0.0234 -0.7393 -0.2123
29333W        W44802  15.134  17.164  13.099 -0.0459  0.0767  0.1571
29334W        W44803  11.302   3.366   0.349 -0.1517  0.0534  0.1882
29335W        W44804   0.821   2.439  11.344  0.1172 -0.2129  0.2510
29336W        W44805  13.351  16.899  14.009 -0.3571  0.0238  0.2216
29337W        W44806  17.481   0.973  12.878  0.4915  0.5160 -0.0490
29338W        W44807  16.292  16.317  14.507 -0.1379  0.4121 -0.2085
29339W        W44808  13.910   3.172   1.649  0.2396  0.0019  0.1014
29340W        W44809  18.241  14.896  14.658  0.0491  0.1025 -0.1350
29341W        W44810   9.090   5.145   0.758  0.0515  0.1079  0.2194
29342W        W44811  14.436   5.424   1.932 -0.2079 -0.1636 -0.0921
29343W        W44812   0.365  16.341   9.535 -0.3104  0.1383  0.0900
29344W        W44813   0.529   3.944  15.360  0.2556  0.1925 -0.2640
29345W        W44814  18.770  10.990  11.574  0.3349  0.1449  0.2224
29346W        W44815  16.542  15.119  15.202  0.0750  0.1383 -0.0848
29347W        W44816  13.697   8.273   4.234  0.1377 -0.3292  0.2179
29348W        W44817  14.411   7.316  11.795  0.0162  0.1660 -0.1854
29349W        W44818   5.211   4.708  13.667 -0.1838 -0.0496  0.1685
29350W        W44819  12.589   7.344   4.086  0.1573  0.1218 -0.0080
29351W        W44820  13.291   5.798   4.401  0.0117 -0.0765  0.3790
29352W        W44821   5.598  15.500   4.876 -0.5161  0.2331 -0.1633
29353W        W44822   8.185  10.982  10.714  0.1707  0.2411  0.0762
29354W        W44823   6.612  11.319   2.000 -0.3129 -0.1847  0.1294
29355W        W44824   8.780  12.172  14.006  0.0035  0.1762 -0.1857
29356W        W44825   6.736   6.862  13.568  0.2518  0.0371  0.4207
29357W        W44826   3.629  13.719  11.966 -0.1522  0.2341 -0.3109
29358W        W44827  12.314  15.158  15.312 -0.1911 -0.0822 -0.2284
29359W        W44828   5.479   6.986   5.205  0.0123  0.1595  0.0088
29360W        W44829  15.618   3.953   1.286 -0.2154 -0.0160  0.3531
29361W        W44830   0.431   2.156   1.463  0.0592  0.2612 -0.0496
29362W        W44831   2.262   2.463  14.228 -0.3841 -0.0886  0.2417
29363W        W44832   9.950  16.026   9.844  0.2439  0.1212 -0.3033
29364W        W44833   3.981   8.459   3.355 -0.2627  0.0002  0.1547
29365W        W44834  11.194   1.713   2.583 -0.3139 -0.0694 -0.0216
29366W        W44835  12.293   6.525  14.381  0.2346  0.1518  0.2047
29367W        W44836   7.120  13.881  13.946  0.0711  0.0715 -0.3421
29368W        W44837   0.804   6.865   2.099  0.0483  0.1645  0.1995
29369W        W44838   2.176  11.685   2.342 -0.2264 -0.1313 -0.0011
29370W        W44839   4.390  17.500  11.279  0.2867  0.0511 -0.4104
29371W        W44840  11.502   8.613   9.466 -0.1781  0.0732 -0.0306
29372W        W44841   5.859   9.364   5.629 -0.0205 -0.1602 -0.1435
29373W        W44842   7.089  11.992  10.921 -0.1127  0.0066  0.0509
29374W        W44843  11.065   2.896  13.379 -0.0017  0.0230  0.0215
29375W        W44844  16.537   8.872   4.583  0.0684 -0.4956  0.0801
29376W        W44845   1.825  12.777  13.827  0.0244  0.2039  0.1546
29377W        W44846   2.325   5.866  11.639 -0.0071  0.0705  0.0714
29378W        W44847  11.973   9.968  10.734  0.2802 -0.1472 -0.1608
29379W        W44848   0.515  15.119   2.792  0.1613 -0.1184 -0.1333
29380W        W44849   1.584   2.069   4.574 -0.0545 -0.3380 -0.0870
29381W        W44850   5.141   6.134  11.825  0.2587  0.1909 -0.0592
29382W        W44851  13.110  16.047  13.047  0.0232  0.0872 -0.1530
29383W        W44852   1.041  13.750  12.245  0.1176 -0.1545 -0.5763
29384W        W44853  10.111  11.658   3.236 -0.3002 -0.0557  0.2677
29385W        W44854  18.475   6.002   5.225  0.2732 -0.1845 -0.5234
29386W        W44855  13.054  17.154  11.117  0.3474 -0.3990 -0.1413
29387W        W44856   2.335   4.203  10.977 -0.1469 -0.2005 -0.0489
29388W        W44857  12.923   1.791   0.421  0.1545  0.0085 -0.0250
29389W        W44858   4.880   5.161   2.667  0.1015 -0.1019 -0.2609
29390W        W44859   6.226   0.620  14.372 -0.1887  0.0838 -0.0028
29391W        W44860  10.306   0.463   0.994 -0.2290 -0.1539  0.2147
29392W        W44861  17.581   1.206   9.991 -0.0106  0.0537  0.1725
29393W        W44862  12.437  11.924  10.636  0.1335 -0.1770 -0.0345
29394W        W44863   7.276   8.081   4.219 -0.0832 -0.2860  0.0647
29395W        W44864   8.497  16.948  13.443 -0.2277  0.0919  0.2585
29396W        W44865  18.336  11.057  15.247  0.0103 -0.2220  0.0069
29397W        W44866   8.923   1.516   2.204 -0.1381 -0.0939  0.1357
29398W        W44867  12.230   8.310   1.071 -0.2578 -0.3304  0.2082
29399W        W44868   2.822   2.732   3.339 -0.0658 -0.1335  0.1714
29400W        W44869  11.296   6.300   1.922 -0.2805 -0.3324  0.0152
29401W        W44870  16.829  11.100  14.932  0.0393 -0.3260  0.1354
29402W        W44871  17.809   2.241  14.821 -0.0084  0.2789  0.1115
29403W        W44872  11.030   8.797  11.082  0.2535 -0.1463 -0.1718
29404W        W44873   8.253   5.072  13.182 -0.2529 -0.1573 -0.0329
29405W        W44874  11.629  17.472  10.776 -0.0021 -0.1092 -0.0953
29406W        W44875   3.898   3.770   0.860  0.2067 -0.1753 -0.0210
29407W        W44876   0.039   6.355   4.740  0.0064 -0.2666  0.3895
29408W        W44877   4.235   8.147   1.543 -0.0986  0.0890  0.5161
29409W        W44878  10.764  13.705  14.095 -0.1874 -0.0827 -0.3387
29410W        W44879   6.966  15.386   4.443  0.1786  0.2890  0.2205
29411W        W44880   8.277  14.446  11.509  0.4057  0.1870  0.0524
29412W        W44881  11.785   9.605  15.071 -0.1948  0.1039 -0.1784
29413W        W44882  18.843  14.158   2.887 -0.0088  0.1751  0.1142
29414W        W44883   5.657  13.899  14.695  0.0282 -0.0417  0.2148
29415W        W44884  14.495   6.387   2.069  0.1370  0.0298 -0.1243
29416W        W44885  10.151  17.268  13.936 -0.2609  0.1461 -0.1002
29417W        W44886  15.723  14.362   3.310  0.1615 -0.0874  0.0955
29418W        W44887   8.775   4.068   5.482 -0.1124 -0.0261 -0.0884
29419W        W44888   2.205   0.107   3.098 -0.0103 -0.0673  0.0244
29420W        W44889   7.606  14.405   2.872  0.0314  0.0170 -0.2518
29421W        W44890  15.059  18.736   4.456  0.2539 -0.5668 -0.2311
29422W        W44891   0.490  17.705  14.640  0.3189 -0.1770 -0.1233
29423W        W44892  11.460   7.507   1.823 -0.1896 -0.1279 -0.1030
29424W        W44893   2.797  12.116   4.726  0.4373 -0.4422  0.2196
29425W        W44894   2.705  18.192  11.925 -0.2746  0.0272 -0.1552
29426W        W44895   5.582   2.868   2.625 -0.1205 -0.1446 -0.0714
29427W        W44896  10.946   7.647   1.005 -0.1515  0.2713 -0.0560
29428W        W44897  12.174  18.189   0.679  0.1691 -0.3340 -0.0279
29429W        W44898   1.402  15.114   9.919 -0.3181  0.0890  0.1337
29430W        W44899  16.682  17.557  12.412  0.3503  0.3122  0.1156
29431W        W44900  18.150  11.497  12.105  0.0765 -0.0733 -0.0047
29432W        W44901   0.109  10.887  11.263 -0.0157  0.3693 -0.1075
29433W        W44902   8.137   9.662  13.212  0.0397  0.0929 -0.0557
29434W        W44903   8.535   3.650  13.158  0.2799 -0.1102  0.1903
29435W        W44904  12.263   0.517  14.728  0.1806  0.2008  0.1118
29436W        W44905  10.358   9.817  12.245  0.0059 -0.0076 -0.5254
29437W        W44906   0.502  13.180   3.586 -0.2033  0.0829  0.1850
29438W        W44907   5.821  16.638   2.793  0.1067 -0.0297 -0.0835
29439W        W44908   8.486   6.118   2.846 -0.0001 -0.3545 -0.1508
29440W        W44909   1.122   7.501  12.772  0.0174  0.3016 -0.0411
29441W        W44910   1.767   8.682  13.950  0.0310  0.0157 -0.2053
29442W        W44911   9.185  10.799  14.334  0.4302 -0.0121 -0.0637
29443W        W44912   2.600  11.600   0.511  0.1555 -0.2810 -0.5482
29444W        W44913  12.674   4.370  10.877  0.2751  0.0130 -0.0972
29445W        W44914   4.983   5.302  13.841  0.0788 -0.0387 -0.1537
29446W        W44915  17.103  14.002  13.928  0.0228 -0.1523 -0.0304
29447W        W44916  17.594   5.332  13.380 -0.2814  0.0676 -0.1782
29448W        W44917  16.957   1.540   0.693 -0.1934  0.2154  0.0035
29449W        W44918  12.105   5.180  11.553 -0.3292  0.2084  0.0112
29450W        W44919  15.423   0.002   3.582  0.0840 -0.1835 -0.1746
29451W        W44920  12.976  17.020  14.762 -0.2701  0.0528  0.0897
29452W        W44921  12.733  16.562   2.522  0.1048 -0.0569  0.1551
29453W        W44922   8.823   1.072  13.204  0.0211  0.1268 -0.2529
29454W        W44923   3.800   2.180   0.531  0.0151 -0.0696 -0.0387
29455W        W44924  18.528  13.943  14.825  0.0798  0.0685  0.2555
29456W        W44925   0.546   1.055   4.216  0.2692 -0.0373  0.1349
29457W        W44926   7.982  12.830   1.272  0.0177 -0.1078  0.1028
29458W        W44927   0.193  14.702  14.087  0.1241 -0.2984 -0.0600
29459W        W44928  16.691  16.365  10.092 -0.0559 -0.3326  0.1779
29460W        W44929  13.012  12.502  14.224 -0.0856 -0.0513  0.2316
29461W        W44930  10.549   5.175   2.089  0.0455 -0.3338  0.0720
29462W        W44931   6.953  15.008  12.903 -0.0636 -0.1865  0.1037
29463W        W44932   2.547  16.175  15.098  0.2728 -0.2708 -0.3117
29464W        W44933   6.281   3.410  14.072  0.0982 -0.0611 -0.3204
29465W        W44934  11.910  10.331   0.917  0.0042  0.1019  0.1576
29466W        W44935  11.357  16.800  11.452  0.0533  0.0098  0.2868
29467W        W44936   6.989   1.757   0.325 -0.1502  0.0460  0.3638
29468W        W44937   1.560  11.033   1.980 -0.0139  0.3855 -0.0967
29469W        W44938  17.388  11.267   3.919  0.0293 -0.3591 -0.0303
29470W        W44939  13.352   7.992  14.467 -0.2291 -0.2232  0.2593
29471W        W44940   3.367  16.495  11.054  0.2648  0.0233 -0.0105
29472W        W44941   4.556  10.400   2.008  0.2425  0.1148  0.1110
29473W        W44942   9.451  14.687   0.789  0.0661 -0.1467  0.1851
29474W        W44943   5.302  13.637   1.464  0.0658  0.1199  0.2300
29475W        W44944  13.941  16.529   1.499  0.0662  0.0332  0.2975
29476W        W44945  11.726   4.807   1.083  0.1321  0.3901  0.0834
29477W        W44946  13.706   8.693   4.505 -0.1355 -0.1846 -0.3838
29478W        W44947  13.907   0.120   4.389  0.1188 -0.4274 -0.1404
29479W        W44948   5.669   6.869   0.068  0.1230  0.1981  0.2381
29480W        W44949  10.084  12.306  11.343  0.1766 -0.1156 -0.0480
29481W        W44950   1.091   2.081   2.042 -0.0861 -0.0342 -0.1565
29482W        W44951  14.542  16.058   2.111  0.0691  0.2129 -0.1313
29483W        W44952   9.974  13.226   0.431 -0.4136 -0.3017 -0.3820
29484W        W44953  18.946   6.572  13.566 -0.0011 -0.2167 -0.2628
29485W        W44954   2.587   5.855   2.635 -0.1520 -0.1906  0.0709
29486W        W44955  10.446  10.767   2.749 -0.1240  0.2668  0.1112
29487W        W44956  15.611  12.484   0.578 -0.0646 -0.0638 -0.1315
29488W        W44957   5.000   6.119  13.170  0.0204  0.2404 -0.1477
29489W        W44958  17.267   1.265  12.439  0.1934 -0.0672 -0.0828
29490W        W44959  14.786   6.056  12.863  0.0264  0.1913  0.0420
29491W        W44960   4.283  18.231   3.744 -0.2401  0.1714  0.1623
29492W        W44961   6.380  16.646  12.903 -0.3316 -0.1663  0.0736
29493W        W44962   5.728  12.506  14.325 -0.1504 -0.0460  0.1135
29494W        W44963  11.698   9.283   4.071 -0.2039 -0.1022 -0.1657
29495W        W44964   1.465  18.071   3.702 -0.0105 -0.1415 -0.0205
29496W        W44965   9.359  17.731   6.220  0.1608 -0.1093 -0.2164
29497W        W44966  15.954   0.486  10.327  0.1440  0.0572 -0.2207
29498W        W44967  19.025   5.113   1.406  0.2045 -0.0266  0.1656
29499W        W44968  11.024   8.016   4.916 -0.0475  0.2044 -0.0674
29500W        W44969   4.349   2.199   5.910 -0.0776 -0.1567  0.3005
29501W        W44970   2.424   8.232   9.941  0.0127 -0.0318  0.2588
29502W        W44971  18.382   2.834  14.137  0.3762 -0.4668 -0.0454
29503W        W44972  18.519  11.128   0.719 -0.2755 -0.1859  0.0313
29504W        W44973  17.321   1.679  11.870 -0.2105  0.1154  0.0593
29505W        W44974  18.725  16.441   0.651  0.1294 -0.0844  0.0798
29506W        W44975  12.806  12.957  14.034 -0.1970  0.0857 -0.2184
29507W        W44976  18.782   4.365   2.075 -0.1194 -0.2310 -0.0279
29508W        W44977  13.537   4.316   2.025  0.0232 -0.2011  0.1597
29509W        W44978   7.745  13.650   3.998  0.0297  0.2541 -0.0073
29510W        W44979   0.356   3.080  11.495  0.1088 -0.2189  0.1806
29511W        W44980  11.151  18.141   3.143 -0.0906  0.2676  0.0916
29512W        W44981   0.251   1.124  13.125  0.3083  0.2382 -0.6091
29513W        W44982   6.241   0.625   3.561  0.0075 -0.1663 -0.0773
29514W        W44983   2.089  14.102  14.729  0.1167 -0.3302  0.2062
29515W        W44984   7.193   2.868   4.206  0.1698 -0.0721  0.3565
29516W        W44985   3.066  11.277  11.042 -0.1176 -0.0803  0.4359
29517W        W44986   5.329   2.148   5.036 -0.2221 -0.1701 -0.1476
29518W        W44987   2.199   7.519   4.602 -0.0401  0.0489 -0.0639
29519W        W44988  17.766   0.829  13.561 -0.0089  0.1015  0.3428
29520W        W44989   2.638  17.097  13.814 -0.0660  0.1099 -0.2287
29521W        W44990  12.788   3.595  14.689 -0.2847  0.2984  0.0400
29522W        W44991  10.234  13.587   0.025 -0.2429 -0.3898  0.1033
29523W        W44992  12.133   6.723   9.809  0.0110  0.2438 -0.1518
29524W        W44993   0.504  13.399   2.730 -0.0456  0.2119  0.1532
29525W        W44994   8.429   7.425  10.502  0.0881 -0.0413  0.1379
29526W        W44995   4.762  10.025  10.056 -0.2673 -0.1778 -0.2199
29527W        W44996  11.136  12.939  12.680  0.0667 -0.1082 -0.1046
29528W        W44997  17.372   7.868   2.748  0.1580 -0.4666  0.3999
29529W        W44998  15.598   1.838  12.281 -0.1767  0.0418 -0.0274
29530W        W44999   1.150   5.749   2.831  0.5836 -0.1094 -0.3184
29531W        W45000   5.877   8.565  12.123  0.4525  0.4635  0.0075
29532W        W45001  14.759   4.458   9.704  0.4228  0.0464  0.1861
29533W        W45002   3.088   8.849   3.051  0.1020  0.0255 -0.0506
29534W        W45003  16.454  14.197   1.992 -0.0254  0.2592 -0.0875
29535W        W45004  15.455   9.895   5.282  0.2163  0.0776 -0.0157
29536W        W45005  14.289   0.497  11.070 -0.0777  0.0911 -0.0682
29537W        W45006  13.400   7.489  14.523  0.0040 -0.1209  0.3520
29538W        W45007  16.825   0.141   0.801  0.0170 -0.0684 -0.1748
29539W        W45008  10.287  12.250   3.745  0.1990  0.3604 -0.0757
29540W        W45009  16.556  13.007  12.445 -0.0364 -0.0805 -0.0285
29541W        W45010  16.275   2.165   2.913 -0.4655 -0.1060  0.0018
29542W        W45011   5.053   1.545  13.389 -0.0372  0.2105 -0.4212
29543W        W45012   6.592   1.641  14.873 -0.0530 -0.0075  0.0876
29544W        W45013   7.765  11.353   4.684 -0.1510  0.2596 -0.1116
29545W        W45014  13.132  11.825  10.775  0.1231  0.1340 -0.2065
29546W        W45015   8.677   3.260   5.559 -0.3180  0.0121  0.0119
29547W        W45016   4.046   4.834   2.003 -0.4189  0.0496  0.0921
29548W        W45017   6.863   1.433   2.162  0.0565  0.0404 -0.3404
29549W        W45018  13.486  10.723  11.604 -0.0006 -0.2909  0.0999
29550W        W45019  13.237  18.298   2.719  0.2689  0.4025  0.3865
29551W        W45020   4.577   2.079   3.448 -0.0846 -0.1894 -0.0208
29552W        W45021  17.201   4.332   4.491  0.0155 -0.3132  0.3666
29553W        W45022  11.302   1.255   1.351 -0.1634 -0.1374  0.1501
29554W        W45023  13.235  12.110   4.187 -0.0426  0.0441 -0.2687
29555W        W45024  11.967  14.516   1.693 -0.1306 -0.3067  0.0512
29556W        W45025   2.180   2.958  11.859  0.3119  0.1351 -0.1277
29557W        W45026   4.779   3.177  14.754 -0.0940  0.0836 -0.0017
29558W        W45027  17.417   3.195  10.588  0.2613  0.2076  0.1239
29559W        W45028   2.093   0.940   1.233  0.3570 -0.3096  0.4082
29560W        W45029   3.012   7.650  11.134 -0.2815  0.0783  0.0231
29561W        W45030   4.129  11.356   3.318 -0.2276 -0.2365  0.0683
29562W        W45031  17.342  10.079  14.937  0.1073  0.4791  0.0038
29563W        W45032   1.212  10.882  14.933  0.2116 -0.0331  0.1169
29564W        W45033  11.786   0.428  12.578 -0.2187  0.0614  0.0555
29565W        W45034  15.079  10.724  10.913  0.1505 -0.0736 -0.0533
29566W        W45035  17.258  14.148   1.104 -0.1178 -0.1918 -0.3180
29567W        W45036   0.384   5.875  14.874 -0.0827  0.1030  0.0031
29568W        W45037   7.273  13.021  10.502 -0.2041 -0.0438  0.1328
29569W        W45038  11.242   2.849   1.308 -0.0873 -0.1419 -0.0370
29570W        W45039  15.832   9.117  10.512 -0.1584 -0.0800 -0.3161
29571W        W45040  14.018  11.192  13.269  0.0533 -0.2413 -0.0921
29572W        W45041  16.427   5.317  11.779 -0.0695 -0.1710 -0.0603
29573W        W45042   9.533   8.504   0.828  0.1423  0.0508  0.5524
29574W        W45043   0.198  12.527  11.938  0.1726  0.0951 -0.2214
29575W        W45044   9.013   3.664  13.116  0.0473 -0.3779  0.1633
29576W        W45045  12.586  18.010   1.003  0.2866 -0.3383  0.2320
29577W        W45046   4.234  14.496  11.476  0.1772  0.0468  0.2086
29578W        W45047   9.628  14.760  11.777  0.4239 -0.5191 -0.0745
29579W        W45048  16.518  18.445   0.171 -0.1820 -0.0134  0.2786
29580W        W45049  11.852  16.654   9.968 -0.1432 -0.1341  0.0522
29581W        W45050   8.830  10.934   2.560 -0.3609  0.0526 -0.4893
29582W        W45051   5.535   3.535  12.958  0.1045  0.0977 -0.2321
29583W        W45052  11.507   2.932  13.727 -0.0426 -0.0811  0.1868
29584W        W45053  16.078  14.408   1.112  0.0966 -0.1726  0.1372
29585W        W45054   9.301  15.650   3.947  0.0028 -0.1417  0.0662
29586W        W45055  17.577  18.310  10.605 -0.0785  0.0374 -0.0817
29587W        W45056   2.017   7.710   0.441 -0.0957 -0.3117 -0.3235
29588W        W45057   8.605   5.318   3.967 -0.0151  0.1694  0.0328
29589W        W45058   7.335  14.399  14.647 -0.2401  0.0283  0.1016
29590W        W45059  11.588  17.767  15.163 -0.3554  0.0149  0.0104
29591W        W45060  15.589  10.825  14.253 -0.1226  0.4234 -0.4466
29592W        W45061   2.102   1.487  11.390  0.5079  0.0394 -0.1152
29593W        W45062   7.723  14.809   4.717  0.0234  0.2545 -0.0512
29594W        W45063   8.757  13.455  12.245 -0.1463  0.0991 -0.0908
29595W        W45064  11.619   5.437   1.634 -0.1799  0.0353 -0.1332
29596W        W45065  10.768   0.356   1.173  0.1354  0.1410  0.0677
29597W        W45066   4.296   1.207   1.873 -0.1969  0.1856 -0.2268
29598W        W45067  10.794   3.752   4.011 -0.1725  0.0236  0.0131
29599W        W45068   6.558  13.262  14.296 -0.1507 -0.0317  0.0349
29600W        W45069  10.312  18.535  13.021 -0.1984  0.0500 -0.1590
29601W        W45070   8.622  13.942   3.746 -0.2883 -0.1842  0.2107
29602W        W45071   3.836   7.433  10.421  0.1710 -0.0462  0.1249
29603W        W45072   1.337  17.996   2.566 -0.1180  0.2212  0.2969
29604W        W45073   7.017   3.126  10.800 -0.0494  0.2272 -0.2125
29605W        W45074  14.539   9.954  11.897  0.3217 -0.0453  0.0955
29606W        W45075   8.981  18.645  11.141 -0.3294 -0.3189 -0.3489
29607W        W45076   3.810   7.238  15.214  0.2032  0.0335 -0.1284
29608W        W45077   7.286   9.394   4.370 -0.2255 -0.1252 -0.1831
29609W        W45078   6.958   3.290   4.058 -0.1873  0.0120 -0.1584
29610W        W45079  10.219   8.497  11.837 -0.3436  0.0592 -0.0071
29611W        W45080  10.553   8.291  14.808  0.0283 -0.1037 -0.3131
29612W        W45081   8.760  10.528   2.821 -0.2352  0.0393 -0.1005
29613W        W45082  12.993   3.319   5.218 -0.1621 -0.0225 -0.3247
29614W        W45083  16.155   9.052   0.708  0.1481  0.2762  0.6175
29615W        W45084  13.105  12.204   1.726 -0.0929  0.0985  0.2080
29616W        W45085   1.400  16.117   4.142 -0.4249  0.0448 -0.0331
29617W        W45086  12.222   4.214  10.669 -0.0475 -0.1456  0.1188
29618W        W45087   5.806  15.105   2.200 -0.0507 -0.2269  0.4733
29619W        W45088  13.580  15.397   1.777 -0.2846 -0.1616  0.0427
29620W        W45089   5.024  13.191  12.051  0.1259  0.2928 -0.1815
29621W        W45090   9.660   7.493  14.076 -0.0944  0.0862 -0.2113
29622W        W45091   0.133   6.629   1.495  0.0310  0.2311  0.3105
29623W        W45092  11.078   7.287  10.427  0.4266 -0.0093 -0.0336
29624W        W45093   1.190  11.870  15.260 -0.3836 -0.0597 -0.2987
29625W        W45094  16.517   8.175   1.396  0.2027  0.1738 -0.1103
29626W        W45095   1.376   9.194   4.187 -0.1635 -0.2851  0.0896
29627W        W45096   4.923  10.537  12.778 -0.0269 -0.2104 -0.2111
29628W        W45097  17.486  10.294  12.233 -0.0222  0.1297  0.0713
29629W        W45098   6.592   7.074   0.877 -0.0422  0.3249  0.4226
29630W        W45099   5.688  13.047   4.370 -0.1225  0.0438  0.3182
29631W        W45100  16.104   2.480  12.968 -0.0436  0.1418  0.4972
29632W        W45101  18.408  13.090  15.175 -0.0086  0.2472  0.1388
29633W        W45102   3.223  14.668  14.767 -0.1460  0.2191 -0.4453
29634W        W45103  12.312  14.679   0.119  0.0842  0.0326  0.2974
29635W        W45104   0.029  13.381   1.797  0.0951 -0.0152 -0.1271
29636W        W45105   5.620   8.767   2.161 -0.2164  0.1547 -0.0149
29637W        W45106   0.710   8.082   1.616  0.1172 -0.1916 -0.2041
29638W        W45107   8.863  17.389  15.350 -0.2695  0.1312 -0.1913
29639W        W45108  10.446  14.140  11.994  0.2347  0.5174 -0.5179
29640W        W45109   5.671   3.320   4.669  0.0553 -0.2101 -0.1671
29641W        W45110  18.028   8.600   1.451 -0.1809  0.0083  0.1285
29642W        W45111   1.854  17.774  12.273 -0.0546 -0.0940 -0.0522
29643W        W45112  17.412   5.529  12.485 -0.2167  0.4337  0.1979
29644W        W45113  15.310   1.273   1.166  0.3931  0.0998 -0.1870
29645W        W45114  14.028   5.800  14.978 -0.2163 -0.0817  0.1183
29646W        W45115   5.582   5.142  12.846 -0.0425  0.4905 -0.1956
29647W        W45116   5.122   6.416   3.366 -0.4780 -0.0795  0.1116
29648W        W45117  14.567  17.592   1.142 -0.2288 -0.0762 -0.2863
29649W        W45118  12.627   9.633   4.302 -0.0525  0.1807 -0.1758
29650W        W45119   5.608  14.740   3.268 -0.3617  0.2255  0.2963
29651W        W45120   3.900  16.293  13.447  0.2352  0.0940  0.0014
29652W        W45121   2.100  14.665  13.864  0.1530  0.1494 -0.0421
29653W        W45122  13.938   5.330  13.100  0.0908  0.1376  0.0165
29654W        W45123  15.946   9.799   3.076 -0.0238 -0.0444  0.3101
29655W        W45124  14.596  16.297  12.068 -0.3087  0.1030  0.1225
29656W        W45125  18.895  15.565   4.961 -0.3711  0.1694  0.1209
29657W        W45126  17.873   7.680  14.091  0.0548 -0.1197 -0.0618
29658W        W45127   4.948  18.521  10.942 -0.2932  0.0360  0.1920
29659W        W45128   8.811   9.230   1.753 -0.0729 -0.1983  0.1006
29660W        W45129   6.871  18.718   3.623 -0.0974 -0.1232 -0.1616
29661W        W45130   3.863  10.676  10.920 -0.2869 -0.0711 -0.4020
29662W        W45131   0.854  16.030   4.080 -0.1256 -0.0255  0.1095
29663W        W45132  13.913  10.358  14.719 -0.3942 -0.4307 -0.1642
29664W        W45133  14.768  15.600   0.324  0.1045 -0.1171  0.2168
29665W        W45134   9.226   8.368  12.774 -0.0518  0.0524 -0.0669
29666W        W45135  10.724   5.930  11.928 -0.1685  0.2447 -0.0349
29667W        W45136   3.909   1.912  12.330  0.1282 -0.3076  0.4335
29668W        W45137   4.866  14.494  10.563 -0.1177 -0.1616  0.1995
29669W        W45138   7.200   4.757   0.438 -0.1706 -0.2054 -0.0945
29670W        W45139   2.200   1.841  13.558 -0.0520  0.1607 -0.0796
29671W        W45140   0.243  15.221  14.950 -0.0905 -0.1430  0.3358
29672W        W45141   8.498   1.081  14.603  0.5533  0.2962 -0.0375
29673W        W45142  13.263  18.929   0.890  0.0208  0.1964  0.3401
29674W        W45143  16.162   7.489   0.303  0.3471  0.1868  0.0553
29675W        W45144   6.676  10.754  13.460  0.0899 -0.2298  0.3308
29676W        W45145   3.210   6.297  14.132  0.2960 -0.0951  0.1702
29677W        W45146  13.378   8.869  15.342  0.2818  0.0854 -0.3978
29678W        W45147  11.496  12.203  10.713 -0.1082  0.0426  0.2053
29679W        W45148   2.007   3.556   0.850  0.0274 -0.0740  0.2239
29680W        W45149  17.178  10.594  11.322 -0.1638  0.1989 -0.2383
29681W        W45150  17.846   2.503   3.699 -0.0932 -0.1375 -0.3746
29682W        W45151   1.278   3.233   5.707  0.1755  0.1063  0.2728
29683W        W45152  12.374  12.654   2.296 -0.0081 -0.1239  0.2333
29684W        W45153  16.860   9.063   3.499 -0.0594 -0.2383  0.3864
29685W        W45154   0.371  16.907   3.252  0.1770  0.0047 -0.2340
29686W        W45155  17.807   4.736  12.633  0.2257  0.2936  0.2330
29687W        W45156  18.788   3.005   0.382 -0.3738  0.2689 -0.0580
29688W        W45157   0.951   8.306   5.108  0.0266 -0.0887 -0.3642
29689W        W45158  14.360  18.304  15.107  0.2133 -0.1980  0.2218
29690W        W45159  14.997   2.698  12.794 -0.0992  0.0259  0.0498
29691W        W45160   6.093  17.946  10.105  0.0287 -0.2559  0.4677
29692W        W45161  13.366  10.409   5.645 -0.2851  0.2106  0.1074
29693W        W45162  13.476  12.789  13.839  0.3038  0.1345  0.0107
29694W        W45163  11.800   0.063   3.325  0.2300 -0.3470  0.0506
29695W        W45164  10.317  13.001   4.727  0.1618  0.2728  0.0602
29696W        W45165   7.337   6.347   9.415  0.4278 -0.1093  0.0630
29697W        W45166   4.123   1.832  13.234  0.0266 -0.0765 -0.1655
29698W        W45167   0.999   0.012   5.125  0.0218 -0.1539  0.0902
29699W        W45168  10.971   6.821  11.044  0.2963 -0.1036  0.2999
29700W        W45169  11.148   2.925  15.046  0.1520  0.0746 -0.0047
29701W        W45170  14.515  15.377   5.085  0.1101 -0.0026  0.0915
29702W        W45171  16.102   9.295  15.294  0.3278  0.2481  0.1465
29703W        W45172   1.083  17.447  14.007 -0.1590  0.2285 -0.2707
29704W        W45173   6.402   5.999   2.349 -0.0481  0.0591 -0.1580
29705W        W45174   8.918   5.427   4.717 -0.2048 -0.0870  0.2166
29706W        W45175  15.162   3.531   4.344 -0.1369 -0.0117  0.0582
29707W        W45176   0.948  16.314  13.266 -0.1118  0.1063 -0.3349
29708W        W45177   9.686   4.234  13.872  0.1420 -0.1857 -0.3073
29709W        W45178   6.049   1.661   2.785  0.1803 -0.1502  0.0237
29710W        W45179  13.957  11.839   1.220 -0.1040 -0.1120 -0.1217
29711W        W45180   5.100   8.866   2.142 -0.0479 -0.3078 -0.0023
29712W        W45181   0.154  17.456   3.139  0.0675 -0.1635  0.1342
29713W        W45182   8.948   0.084   1.496 -0.3151  0.2297 -0.5001
29714W        W45183   0.732  12.390   2.304 -0.0519  0.0698  0.0838
29715W        W45184  14.177   3.709   2.462  0.0224  0.0885  0.0193
29716W        W45185   1.815  12.626  13.282 -0.0504 -0.2476  0.1520
29717W        W45186  11.405  17.675  11.593 -0.3303 -0.1148 -0.1453
29718W        W45187   9.422   5.841  13.861  0.1424 -0.1544  0.0900
29719W        W45188   8.493  15.283   2.161 -0.2298  0.1080  0.1472
29720W        W45189  17.972   5.740  12.431 -0.2028 -0.0570 -0.3803
29721W        W45190  18.779  16.816  10.633 -0.3994 -0.1186 -0.0790
29722W        W45191   3.930  17.475   2.670  0.2340  0.1091 -0.3193
29723W        W45192  11.031  18.592   2.971 -0.0416 -0.0794 -0.1411
29724W        W45193  17.742   9.287   2.136 -0.1580  0.1790  0.0896
29725W        W45194   6.064  18.307  12.810 -0.1695 -0.0644 -0.1226
29726W        W45195   3.501   1.454  13.003  0.3428  0.0069 -0.1606
29727W        W45196   4.103   9.195  10.741  0.1107  0.2693  0.0800
29728W        W45197   5.756  17.989  14.342  0.3472  0.4082  0.1855
29729W        W45198  15.132   6.195  14.809 -0.0445 -0.0685 -0.1754
29730W        W45199   3.978   5.235   5.125  0.3767 -0.1269  0.0411
29731W        W45200   5.644   8.149  13.662 -0.2672  0.0384  0.1735
29732W        W45201  16.764  16.250  13.706  0.0073 -0.1593 -0.1247
29733W        W45202   6.641   7.658  14.578  0.1661  0.0598 -0.1628
29734W        W45203  15.365   8.295   2.011  0.0119  0.0585 -0.0562
29735W        W45204  10.033   5.870   5.903 -0.0176 -0.0862 -0.2998
29736W        W45205  16.768  15.595   1.623  0.1974  0.0501  0.0873
29737W        W45206   4.246  11.265   3.789  0.2292  0.3388  0.2525
29738W        W45207   0.046  12.854   0.470  0.0551 -0.1787  0.1000
29739W        W45208  18.362  12.756  13.208  0.1294 -0.0903 -0.2758
29740W        W45209   2.773  16.241  10.840 -0.0926 -0.1398 -0.3551
29741W        W45210   3.520  14.593   4.689  0.1871  0.1116 -0.0979
29742W        W45211  17.288   4.180  14.773  0.1097 -0.1423 -0.0397
29743W        W45212  17.487  11.406  14.865  0.2866 -0.0242  0.1397
29744W        W45213   4.703  14.811   4.168  0.1394  0.0339  0.1595
29745W        W45214  13.155  14.902   3.651  0.2238  0.1332 -0.0226
29746W        W45215   0.536  11.347  13.101  0.1366 -0.1652 -0.0026
29747W        W45216  18.194   5.513  15.276 -0.1054 -0.0844 -0.4103
29748W        W45217   4.053   3.623   1.476 -0.0088  0.0366  0.1932
29749W        W45218  13.507  11.005  13.504  0.1935  0.1422  0.0931
29750W        W45219  15.106  12.132  10.456  0.1937  0.0712 -0.1614
29751W        W45220  10.778   7.350   0.276  0.1293  0.0440  0.3589
29752W        W45221   9.577   9.816   2.968 -0.2367  0.0765 -0.0711
29753W        W45222  11.007  17.426  11.784 -0.0632  0.2599 -0.0260
29754W        W45223   0.114  14.517   1.199  0.0268 -0.0881 -0.2087
29755W        W45224   5.808   7.779  13.969  0.2312 -0.0284  0.3712
29756W        W45225  11.746  18.323   3.377  0.0568 -0.0669  0.2498
29757W        W45226  16.584   3.333  13.144  0.1453 -0.0076 -0.1915
29758W        W45227  18.734  18.747   3.112 -0.1215  0.0600  0.0788
29759W        W45228  11.939   5.333  15.352  0.2555  0.0916  0.1048
29760W        W45229  10.474   7.994   4.845  0.3385 -0.3505  0.2942
29761W        W45230   9.777  16.434   3.061  0.0934  0.4140  0.2206
29762W        W45231   1.833  11.124   1.572 -0.0688 -0.3008 -0.1587
29763W        W45232   7.730  15.177  13.097 -0.0268 -0.0135  0.0761
29764W        W45233   2.435  15.029   2.943 -0.1534  0.2618  0.1802
29765W        W45234   8.177   7.644  14.015  0.0366  0.1275  0.0561
29766W        W45235   4.498   3.141  11.884 -0.1292  0.0971 -0.3722
29767W        W45236  12.665  12.292  11.559  0.0561  0.1978  0.1162
29768W        W45237   4.466  17.524   3.812  0.1219  0.0817 -0.1532
29769W        W45238   0.946  12.010  10.097 -0.2371 -0.1392  0.3477
29770W        W45239   8.026  15.376   2.381 -0.0242  0.2362 -0.1024
29771W        W45240   6.305   2.968  11.235 -0.1034 -0.2347 -0.2469
29772W        W45241  16.607  17.586   4.404  0.1797 -0.0070  0.0184
29773W        W45242   2.873  13.752  11.172  0.0208 -0.3557  0.1129
29774W        W45243   9.277  13.208   4.006 -0.0924 -0.1042  0.3730
29775W        W45244   6.223   9.817  11.513  0.0236  0.1783  0.0320
29776W        W45245  17.848  15.378  11.162 -0.0130 -0.1653 -0.1016
29777W        W45246  12.227  14.915  13.060  0.4685 -0.2338  0.0032
29778W        W45247   8.866   8.871   0.698  0.2946 -0.1700 -0.1339
29779W        W45248   4.134   9.077  11.220  0.0356  0.0187 -0.2272
29780W        W45249  18.079  16.903   1.860  0.1220 -0.0619  0.0054
29781W        W45250  17.981   1.417   0.252 -0.1044  0.1079  0.2457
29782W        W45251   9.591   0.414   4.443  0.1835  0.0131 -0.0620
29783W        W45252   3.348  12.258   1.507 -0.1304  0.0494 -0.2084
29784W        W45253   0.636   1.556  10.423  0.1667 -0.0357  0.2936
29785W        W45254  15.962   6.216  14.201 -0.0215 -0.0226  0.1718
29786W        W45255  15.262  17.363  12.273 -0.1431 -0.0957  0.1383
29787W        W45256  18.609  15.206   9.212  0.2061 -0.1467  0.1787
29788W        W45257   5.527  11.753   2.821 -0.1597 -0.0941  0.2702
29789W        W45258   9.805   3.597  13.755  0.0968 -0.2072 -0.2688
29790W        W45259   6.944  15.639   0.445 -0.0457 -0.4280 -0.0366
29791W        W45260  10.756   2.980   4.849 -0.0824 -0.0049  0.0067
29792W        W45261  18.460   7.317   5.175  0.1864  0.0210 -0.0909
29793W        W45262   6.125  14.680  10.800  0.4121 -0.2232  0.0704
29794W        W45263  16.887  12.254   1.530  0.2588  0.0324 -0.0315
29795W        W45264   9.552  12.886  10.538 -0.0563 -0.1183 -0.2787
29796W        W45265   9.824  16.326  13.833 -0.2948  0.0573 -0.1843
29797W        W45266   4.267   7.199   2.783  0.0068 -0.0364  0.0794
29798W        W45267   3.013  13.315  12.883 -0.0101 -0.0758  0.1084
29799W        W45268  14.897  14.846   3.276  0.0854  0.0400 -0.0752
29800W        W45269  11.023  15.793  14.850  0.1039 -0.1524 -0.0688
29801W        W45270   1.060  16.592  10.825 -0.1226 -0.0533  0.3079
29802W        W45271  17.346   4.009   5.304  0.0018 -0.0323 -0.2176
29803W        W45272  16.804  15.701  12.774  0.3012 -0.0765 -0.0583
29804W        W45273   2.666   6.695   0.514 -0.1691  0.1538 -0.0704
29805W        W45274   4.189   5.331  14.315 -0.5625 -0.0392  0.1812
29806W        W45275  15.365   4.776   0.921  0.1977 -0.0387  0.0156
29807W        W45276   5.063   2.788   4.946  0.1036 -0.3061 -0.0193
29808W        W45277   9.274   3.340  13.900  0.3153 -0.3445 -0.1513
29809W        W45278  12.090   1.025  14.627  0.4424 -0.1766 -0.1053
29810W        W45279  10.826   6.734  12.243  0.2718  0.0359 -0.0505
29811W        W45280   1.143  18.399  13.510 -0.0679  0.0023  0.1020
29812W        W45281  17.591   4.857   1.059  0.0051  0.0247  0.0907
29813W        W45282   0.889   3.584   0.235 -0.0166  0.0946  0.2250
29814W        W45283  16.783  13.903  13.535 -0.1123 -0.2589 -0.0813
29815W        W45284  16.746   9.269  10.163 -0.2910  0.0656 -0.1313
29816W        W45285  14.570  13.937  15.130  0.0272  0.0006  0.1497
29817W        W45286   8.549  10.607   9.995  0.3493  0.0341  0.0318
29818W        W45287  14.441   1.864  13.123  0.3556 -0.0419 -0.0973
29819W        W45288   4.004  18.689  11.251  0.0685  0.1125 -0.0605
29820W        W45289   1.764   4.294   4.720 -0.3049 -0.2308  0.2130
29821W        W45290   3.803  10.764   3.187  0.2359  0.1613  0.0363
29822W        W45291   7.336  10.502  13.081 -0.0028 -0.0181 -0.0892
29823W        W45292   9.439  18.487  11.434 -0.2237  0.5018 -0.0452
29824W        W45293   8.449  14.776  13.521  0.0805 -0.1356 -0.1512
29825W        W45294  15.161   6.657   9.169 -0.1704  0.3729 -0.0387
29826W        W45295   0.750  13.878   9.283 -0.0884 -0.0127  0.0324
29827W        W45296   4.234   3.868  13.332  0.1841 -0.3139  0.3187
29828W        W45297  14.563   4.567  14.606 -0.2637  0.0238 -0.0081
29829W        W45298  15.580   7.925   0.462  0.0029  0.1761  0.1879
29830W        W45299   9.278  17.583   3.971  0.0013 -0.3483 -0.0664
29831W        W45300  14.988  14.287  14.970 -0.1358 -0.1331  0.2293
29832W        W45301  16.802   9.875  12.855 -0.0343 -0.0482  0.1629
29833W        W45302  17.368  16.667  14.529  0.0001  0.0163  0.1607
29834W        W45303  17.829   6.984   2.681 -0.1115  0.3047  0.2238
29835W        W45304  17.987  14.918  13.216  0.2345 -0.0549 -0.0868
29836W        W45305  15.016  14.235  12.619  0.0468  0.2029 -0.2531
29837W        W45306   2.027   9.780  11.847 -0.3765 -0.3153  0.1124
29838W        W45307   4.372   4.212  14.718  0.0962 -0.0167 -0.0709
29839W        W45308  18.466   2.104   1.905 -0.0823  0.2430 -0.2649
29840W        W45309  15.685   1.736  12.769 -0.2829  0.0839 -0.0936
29841W        W45310   7.062  12.495   3.336 -0.1987  0.2078 -0.1942
29842W        W45311  10.570   0.784   5.918  0.3038  0.2865  0.1314
29843W        W45312  18.757   2.659   4.252 -0.2284 -0.1928 -0.1449
29844W        W45313   1.969   2.630  13.818  0.0006  0.0693 -0.0973
29845W        W45314  11.991  16.949   2.767  0.0688 -0.2873  0.1494
29846W        W45315   1.792  10.149  15.178 -0.0707 -0.1551 -0.0202
29847W        W45316  16.995   0.997  12.095  0.0023 -0.0162 -0.1484
29848W        W45317  15.147  15.096   3.714  0.1702 -0.2778  0.0529
29849W        W45318  11.838   1.912  13.002 -0.1586  0.0517  0.2348
29850W        W45319   8.630   9.779  10.350  0.1753  0.2820 -0.3276
29851W        W45320  10.527   8.884  12.495  0.1946  0.1381  0.1499
29852W        W45321   2.324  13.020   3.652  0.0215 -0.0462 -0.2410
29853W        W45322  18.077  17.452   0.013 -0.0612  0.2128  0.0500
29854W        W45323   2.753   8.753   1.726 -0.0107 -0.5683  0.1315
29855W        W45324  16.935  10.588   1.205  0.4319 -0.1858  0.0617
29856W        W45325  10.348  18.571   4.930 -0.2878 -0.1256  0.1854
29857W        W45326  13.394   3.310  12.154 -0.4561  0.0284 -0.1067
29858W        W45327   6.254  13.947   4.264 -0.1758  0.0071 -0.0402
29859W        W45328  10.676   0.742   3.049 -0.1796  0.0008  0.1751
29860W        W45329  17.968   4.314  10.213  0.2020 -0.0764  0.3124
29861W        W45330  16.960   1.810   5.248  0.1049 -0.2376  0.1469
29862W        W45331  18.155   7.034   3.687  0.0338 -0.0350 -0.1041
29863W        W45332   7.873   1.227   4.736  0.2010  0.0869 -0.0853
29864W        W45333   4.846   0.962  11.999 -0.0286  0.0941  0.5704
29865W        W45334  15.642   6.951  13.834 -0.0676 -0.1672 -0.0041
29866W        W45335  15.055   6.355  13.694  0.2912  0.0287  0.1885
29867W        W45336  10.559  13.114   4.200  0.1818  0.4869 -0.0707
29868W        W45337   6.927   3.946   2.580 -0.1925  0.1461 -0.1068
29869W        W45338  15.676   2.100   9.923  0.0435 -0.0245 -0.1133
29870W        W45339   2.328   4.785  11.577 -0.2241  0.1367 -0.1404
29871W        W45340  14.739   2.474   0.900  0.0761  0.2795 -0.0964
29872W        W45341  18.979  16.476  11.061 -0.2042  0.1320 -0.1155
29873W        W45342   1.081   7.048  13.648 -0.1169  0.1779 -0.1789
29874W        W45343   6.521   4.663  10.577 -0.2844 -0.0171 -0.0298
29875W        W45344   3.881  19.033   2.037 -0.1281 -0.1832 -0.0224
29876W        W45345   7.871  12.767   0.244  0.0529 -0.1382  0.0811
29877W        W45346  15.453  15.097  11.388  0.0918  0.0401  0.2183
29878W        W45347  19.026  16.372  13.952 -0.0251  0.0080 -0.0237
29879W        W45348   3.697   6.684  13.314 -0.1534  0.1310 -0.0361
29880W        W45349   5.707  18.597   5.654 -0.5397 -0.0950  0.3613
29881W        W45350  12.011  11.179  14.651 -0.1666  0.1342 -0.1764
29882W        W45351   1.823   9.971   0.324 -0.0801  0.3053  0.0055
29883W        W45352  17.971  18.843   4.425  0.0492 -0.0658  0.1101
29884W        W45353  10.943  12.581   4.812 -0.4566 -0.2196  0.3341
29885W        W45354   6.572   3.418   4.835  0.5243  0.0296  0.6770
29886W        W45355   2.605  12.503   4.531 -0.0899 -0.2896  0.2381
29887W        W45356  11.166  17.977  12.417 -0.1343 -0.1393 -0.1467
29888W        W45357  11.952  18.677   4.258  0.1970 -0.3757  0.3635
29889W        W45358   4.505   8.919  11.659  0.0943  0.0134  0.0855
29890W        W45359   5.781   0.198  14.436  0.1147  0.0593  0.2569
29891W        W45360  16.218   1.791   0.960  0.3100 -0.0626  0.1112
29892W        W45361   2.902  11.775   0.170 -0.1620  0.0910  0.2071
29893W        W45362  12.885   9.953   1.179  0.0948  0.2077 -0.0069
29894W        W45363   6.923  16.275   1.112 -0.1651  0.0931  0.0897
29895W        W45364  18.660   0.864   1.182 -0.0695 -0.0945  0.0733
29896W        W45365   4.245  18.837  15.092 -0.0238  0.5161  0.0855
29897W        W45366  13.756  12.924  14.237 -0.0545 -0.1971  0.0563
29898W        W45367   0.827   4.167   2.190  0.0374  0.0444 -0.0296
29899W        W45368  11.178  16.796   2.039  0.0957 -0.2448 -0.0561
29900W        W45369   7.627   1.359   1.074  0.1737 -0.0104 -0.2235
29901W        W45370  14.742  14.649  14.636 -0.1537 -0.2398 -0.1110
29902W        W45371  10.826  14.272   0.397 -0.0224  0.1571  0.0781
29903W        W45372   3.809  10.983   2.634 -0.1081  0.2273  0.0095
29904W        W45373  13.098   8.682  13.182  0.0797  0.0579  0.1564
29905W        W45374  17.956   1.069  13.106  0.1151 -0.0911 -0.0663
29906W        W45375   8.283  18.765  11.901 -0.0283  0.2155 -0.1218
29907W        W45376   3.161   9.476  11.155  0.1509  0.0802 -0.3819
29908W        W45377   5.309   8.157   1.658 -0.2413 -0.0209  0.2181
29909W        W45378  13.941   2.533  15.210 -0.1066  0.3205 -0.1023
29910W        W45379  17.447  17.909   3.331  0.2872 -0.1242 -0.2662
29911W        W45380   8.394   8.468   0.360 -0.0753  0.0472 -0.0616
29912W        W45381   3.306   0.354   0.517  0.1046 -0.2031  0.2509
29913W        W45382  15.943   1.586  11.315  0.1522  0.1438  0.1596
29914W        W45383  13.438  18.522  10.629 -0.1069  0.0074 -0.4664
29915W        W45384  14.864  10.997   2.428  0.0255 -0.3009  0.2703
29916W        W45385   7.491  16.113  15.266  0.0519 -0.3689 -0.0956
29917W        W45386   5.005  15.934   4.255 -0.2185 -0.1403 -0.0350
29918W        W45387   5.731   3.422   6.198  0.1234  0.2434 -0.0513
29919W        W45388   6.861  17.864  14.215 -0.1918 -0.1606  0.5424
29920W        W45389  11.656  10.929   4.741  0.3288 -0.2308 -0.3454
29921W        W45390   7.406   0.174   1.327  0.4604  0.2378 -0.4078
29922W        W45391   0.683   4.310  12.494 -0.0127  0.1582 -0.1172
29923W        W45392  18.140   0.908   0.179 -0.0156  0.1568  0.1544
29924W        W45393   4.494  10.238  11.959  0.0496 -0.1120  0.0512
29925W        W45394   5.552   6.541   3.587 -0.4200  0.0471  0.2147
29926W        W45395  15.171  12.500   1.315 -0.0491  0.3841 -0.0254
29927W        W45396  18.260   6.067  11.126 -0.0136 -0.2932  0.0500
29928W        W45397  15.914  14.352  11.231 -0.2375 -0.2375 -0.0486
29929W        W45398   0.454  11.497   1.328  0.0082  0.0456  0.3166
29930W        W45399  14.095   5.691  10.166  0.0523  0.3347  0.1441
29931W        W45400  15.829   3.181  11.714  0.5132  0.2669 -0.2197
29932W        W45401   3.452  11.912   2.993  0.1655 -0.3260  0.1368
29933W        W45402   9.108   6.107  12.762  0.1121 -0.2323 -0.0823
29934W        W45403  12.348   9.211   2.831  0.0516  0.0392  0.0617
29935W        W45404  16.945   9.848   4.740 -0.2119 -0.0110  0.2551
29936W        W45405  15.573  10.013  14.861 -0.2707  0.4699  0.3097
29937W        W45406   4.231  14.354  10.525  0.2338 -0.0566 -0.1190
29938W        W45407  12.263  14.201  10.907 -0.0191  0.3179 -0.0540
29939W        W45408   3.683  18.656   4.250  0.2432  0.0796 -0.3018
29940W        W45409  14.857  14.463  11.225  0.0724 -0.0175 -0.1002
29941W        W45410  12.221  14.974  11.561  0.1541  0.1072 -0.2440
29942W        W45411   1.892   4.687   0.095 -0.0023 -0.0323  0.0384
29943W        W45412  11.549   7.657  12.211 -0.0670 -0.2362 -0.1303
29944W        W45413   9.855   1.537   0.473  0.0493 -0.2271 -0.0859
29945W        W45414   4.591  12.951   2.024  0.1743  0.3488  0.0680
29946W        W45415  16.156  12.946  13.446  0.2481 -0.1761  0.4439
29947W        W45416  13.195  11.361   3.748 -0.0733 -0.1625 -0.0792
29948W        W45417  18.891   6.290   5.157 -0.1606  0.0962 -0.1330
29949W        W45418   3.001   7.677  15.142 -0.1399  0.1471  0.1055
29950W        W45419  15.511  16.500   3.413 -0.2317 -0.2842  0.0094
29951W        W45420  12.616   8.185   3.256  0.0269  0.2704 -0.1546
29952W        W45421  11.115  17.604   2.504 -0.2108 -0.2909 -0.0245
29953W        W45422   4.923  16.455   4.186  0.2407  0.0059 -0.2609
29954W        W45423  10.843  16.502  12.256  0.2325  0.2290  0.0566
29955W        W45424   9.577   4.289   0.891 -0.0096 -0.1119 -0.2734
29956W        W45425   8.215   5.633   4.133  0.0006 -0.1398 -0.0712
29957W        W45426  15.100  12.868  11.429  0.0197 -0.2701 -0.2208
29958W        W45427  10.458   7.443   9.536  0.4453  0.3848 -0.1535
29959W        W45428   4.535   9.987  14.731 -0.0960 -0.3497  0.1739
29960W        W45429   6.471   7.248  13.691  0.0710 -0.4314 -0.0875
29961W        W45430  10.641   3.215  13.706  0.0308 -0.0763 -0.2603
29962W        W45431  16.711   3.208  14.079  0.2217 -0.0442  0.3150
29963W        W45432  14.453   5.351   1.458  0.0087 -0.0730 -0.3041
29964W        W45433  18.749   9.376   0.570 -0.0213  0.1355 -0.1262
29965W        W45434   6.807   9.740   2.107  0.2435 -0.1173  0.1269
29966W        W45435   7.277  14.621  15.099  0.0773 -0.0116  0.0749
29967W        W45436   1.577  14.518  12.482 -0.2039 -0.0515  0.0508
29968W        W45437  13.178  13.650   2.963  0.0027  0.1317  0.1488
29969W        W45438   1.311   6.127  13.713 -0.0119  0.1860  0.2012
29970W        W45439  18.595   7.051   3.307 -0.0589 -0.2818 -0.1447
29971W        W45440  17.202   5.939   5.963 -0.2648 -0.0853  0.2847
29972W        W45441   3.709   5.867  10.183  0.2027  0.0303 -0.3828
29973W        W45442  18.925  15.871   1.668  0.0204 -0.2454 -0.4254
29974W        W45443  15.202   1.230   2.836  0.2180 -0.2415  0.0363
29975W        W45444   7.909  10.232   1.726 -0.0220 -0.0795  0.0756
29976W        W45445  15.850   4.445  13.242 -0.1603  0.3271 -0.1249
29977W        W45446  11.099   3.333  11.393  0.2433 -0.0506 -0.1116
29978W        W45447  14.664   0.667   1.329  0.0734 -0.1876 -0.0018
29979W        W45448  10.708  14.187  11.179 -0.1006 -0.2637 -0.0197
29980W        W45449  14.146  18.771   5.979  0.0812 -0.3470 -0.1203
29981W        W45450   7.392   7.931   0.544 -0.2232 -0.0904  0.2949
29982W        W45451   9.613  15.002   4.464  0.0688  0.0614  0.3435
29983W        W45452  16.329   7.614  11.286 -0.0060 -0.0235  0.2770
29984W        W45453   7.706   7.734  13.736 -0.0428  0.1300  0.1155
29985W        W45454   7.294   9.256  11.588 -0.2446  0.0175  0.0681
29986W        W45455   5.801  13.666  13.615 -0.0043 -0.1518 -0.0869
29987W        W45456  16.664   1.541   1.145  0.3167 -0.4673 -0.1528
29988W        W45457  13.436   5.390   2.382  0.0071  0.0747  0.0770
29989W        W45458   0.692  15.255   4.614  0.0150  0.0498  0.1837
29990W        W45459  10.655   0.797  14.987  0.0200  0.0473 -0.1182
29991W        W45460  17.225  10.154   4.468  0.2407 -0.1160  0.4895
29992W        W45461  15.113  12.338   4.124 -0.2432  0.0695  0.0522
29993W        W45462  12.252  10.650  13.643  0.2689 -0.1833 -0.2172
29994W        W45463  11.280   1.307  15.293 -0.1146  0.3423  0.3166
29995W        W45464  11.008   3.151   1.722 -0.1749 -0.2685  0.1976
29996W        W45465   0.205   2.563   1.674  0.0743  0.2594  0.0067
29997W        W45466   2.286  12.209   0.712 -0.2021  0.0218 -0.0325
29998W        W45467  11.355   9.163   3.607 -0.0869 -0.1183  0.2063
29999W        W45468  14.101  13.914  11.410  0.1862 -0.4180  0.0331
30000W        W45469   0.235   6.127   1.570 -0.0906 -0.0777  0.1212
30001W        W45470  18.732   5.982   9.755  0.2029  0.1885 -0.3675
30002W        W45471   0.229   1.003   2.424 -0.0018  0.4441  0.1945
30003W        W45472   5.158   6.638  11.201  0.2177  0.0015  0.2043
30004W        W45473   8.424  12.856  13.031 -0.1486  0.0934 -0.1774
30005W        W45474  13.140  10.890   0.818 -0.1143 -0.0419  0.0399
30006W        W45475  11.035  18.232  12.891 -0.0787 -0.2941 -0.0555
30007W        W45476  15.485   2.504  10.615 -0.0420 -0.0686 -0.0807
30008W        W45477   5.709  15.594  11.475 -0.0130  0.0489 -0.0492
30009W        W45478   6.314  11.322  12.361 -0.0951  0.1236  0.2803
30010W        W45479  16.135  15.467   3.021  0.1406 -0.1562 -0.1918
30011W        W45480  18.332  14.615  12.257 -0.0170 -0.2311  0.3504
30012W        W45481   6.493   9.510  10.702  0.0668  0.1583  0.1082
30013W        W45482  12.339  15.486  11.297  0.2465 -0.0261 -0.1429
30014W        W45483  11.613  13.694  12.182  0.2344  0.0632  0.0810
30015W        W45484   5.681   1.246  13.545 -0.0267 -0.4729 -0.1736
30016W        W45485   0.665   1.879   1.083 -0.1860  0.0347  0.2155
30017W        W45486   2.927   2.394   1.603  0.3328  0.0964  0.4448
30018W        W45487  10.056  18.317  14.568 -0.0143  0.2578  0.0305
30019W        W45488  12.289  12.180   4.407  0.2461  0.4964  0.2393
30020W        W45489  18.111   8.497  11.605  0.2827  0.1382 -0.1024
30021W        W45490   7.030  15.577   1.763 -0.2238 -0.3591 -0.1089
30022W        W45491  15.286   3.982   4.478  0.1672 -0.4301  0.3235
30023W        W45492   9.379   8.663  11.568 -0.1646  0.2106  0.0776
30024W        W45493  14.383  18.640  11.150  0.0864  0.2422 -0.0915
30025W        W45494  17.131  13.017  14.077  0.2188 -0.1427 -0.1540
30026W        W45495  10.034   6.099  15.363  0.6033 -0.2494  0.0198
30027W        W45496   9.632  17.382   0.759  0.1884  0.4185  0.1101
30028W        W45497  16.831  16.519   3.761  0.1300  0.1088  0.0320
30029W        W45498   4.800   9.755   0.578  0.1885 -0.1178  0.1746
30030W        W45499  14.661  18.277  13.889  0.2499 -0.1611  0.1057
30031W        W45500   9.137  11.845  14.993 -0.7440 -0.0117  0.0965
30032W        W45501  10.437   6.422   0.857 -0.1865 -0.0807  0.0037
30033W        W45502  17.797   1.975  10.709  0.1478  0.2662 -0.2567
30034W        W45503  17.396  12.971  12.935  0.1486 -0.0326  0.0824
30035W        W45504   2.217  10.201   1.198  0.0057 -0.2236 -0.2022
30036W        W45505   3.694   9.662  12.609 -0.1220  0.0939 -0.5266
30037W        W45506   0.716   7.974   0.340 -0.0176 -0.0970  0.0881
30038W        W45507  11.873  13.810   2.256  0.0161 -0.0359  0.0222
30039W        W45508   6.732  11.918  14.871 -0.2220 -0.2259  0.0013
30040W        W45509   3.822  13.007   3.096 -0.0712 -0.3270  0.0890
30041W        W45510  14.018  11.712   3.361 -0.1695  0.0282 -0.0575
30042W        W45511  16.033   0.029  12.063 -0.3600  0.0652 -0.2584
30043W        W45512  15.884  11.855  10.232  0.3956 -0.0726  0.0335
30044W        W45513   8.003  13.873   1.096  0.0950  0.0118 -0.2655
30045W        W45514  16.480   6.833   4.389  0.2400 -0.1285 -0.0574
30046W        W45515   8.637  11.271   5.097 -0.0936 -0.0017 -0.1136
30047W        W45516  10.984  15.477   4.024  0.4320 -0.0411 -0.0707
30048W        W45517  15.036  14.225   4.662  0.0811 -0.0474  0.0722
30049W        W45518   6.189  16.191   0.642  0.0075 -0.1166  0.0357
30050W        W45519   4.326   0.479   2.559  0.1510 -0.0726 -0.1866
30051W        W45520  12.834   6.695  14.418 -0.0064 -0.0965 -0.0908
30052W        W45521  13.784   5.661   9.833  0.0623 -0.1824  0.2192
30053W        W45522  10.748   6.946  14.251  0.2505  0.1586 -0.0732
30054W        W45523   5.506  16.007   6.412 -0.4594  0.0631 -0.0964
30055W        W45524  11.102   2.187  13.580 -0.3719  0.0562  0.0304
30056W        W45525  15.910   8.659  12.255 -0.1147 -0.2936 -0.1027
30057W        W45526  17.519   8.010   4.720  0.1130  0.3419  0.0964
30058W        W45527   2.508   9.204  13.213 -0.1162 -0.0359  0.0198
30059W        W45528   0.865  15.090   3.496 -0.1501  0.3835  0.2375
30060W        W45529  13.077   6.168   0.723 -0.0042  0.2939 -0.1619
30061W        W45530   4.086   1.373   3.931  0.1096 -0.1408  0.3009
30062W        W45531  15.513  12.867  13.383  0.1232  0.0609  0.4263
30063W        W45532  19.001  18.016   3.728 -0.2809 -0.1635 -0.2474
30064W        W45533  14.857   7.097  14.316 -0.0340  0.3574  0.0026
30065W        W45534   8.167  15.507  14.592  0.0087  0.3072 -0.1434
30066W        W45535  16.363   3.159  13.594  0.3348  0.1384  0.4445
30067W        W45536  16.990   5.873   0.495  0.2448  0.0110  0.0880
30068W        W45537   7.667  13.925   5.063  0.0019  0.0752  0.3308
30069W        W45538   1.716   6.304   1.591 -0.1376  0.3020 -0.0499
30070W        W45539  16.918  18.909   0.020  0.0550  0.0286 -0.0731
30071W        W45540   4.963  12.774  10.587 -0.2618  0.0522  0.0214
30072W        W45541  18.269  11.108  13.122  0.2122 -0.0231  0.1083
30073W        W45542   9.885   6.169  13.832  0.1752  0.0777  0.0593
30074W        W45543   4.454  12.164  12.988  0.0952  0.2287 -0.0710
30075W        W45544   3.346   2.706   5.335  0.0157 -0.1465  0.1013
30076W        W45545   6.825   2.273   4.992  0.0396 -0.1320 -0.0592
30077W        W45546  18.654  12.077  14.954  0.1819  0.2565 -0.2439
30078W        W45547   8.332   1.924  12.691 -0.1973 -0.2866  0.1015
30079W        W45548  15.838  15.389  11.491  0.1222 -0.1579 -0.1426
30080W        W45549   9.878   8.475   3.485  0.0047 -0.0859  0.2819
30081W        W45550   8.133   5.286  10.817 -0.0240 -0.1885  0.2749
30082W        W45551  16.539  12.465  10.851  0.2032  0.1365  0.0916
30083W        W45552  16.273   6.534   5.533  0.1839 -0.2125 -0.1228
30084W        W45553  15.448   9.861   1.896 -0.3357 -0.0468 -0.1106
30085W        W45554  11.000  10.533   0.358 -0.4102 -0.3031  0.1436
30086W        W45555  12.075  18.184  15.130  0.0794  0.0240 -0.1155
30087W        W45556   2.390  17.657   5.977  0.0040  0.3940  0.0818
30088W        W45557  10.074   4.190   3.470  0.3605  0.0522  0.2558
30089W        W45558  12.083   6.735   1.308 -0.1654 -0.0613  0.2519
30090W        W45559  14.435   7.476  15.155 -0.0031 -0.0054  0.0184
30091W        W45560   2.203   9.322   2.379  0.2660 -0.3147 -0.2995
30092W        W45561  17.174   6.728  13.884 -0.1215 -0.2626 -0.0979
30093W        W45562   1.613  12.449   4.444  0.0535  0.0591 -0.4018
30094W        W45563  18.186  14.901  13.729 -0.2146 -0.1959 -0.0392
30095W        W45564   9.027  18.502  14.104  0.0634 -0.0093  0.2862
30096W        W45565  11.077   2.413  13.176  0.0309  0.1709 -0.1154
30097W        W45566   2.115  17.982   4.450 -0.2913 -0.2207  0.0939
30098W        W45567  16.926   5.667  14.050  0.0882 -0.2914 -0.1831
30099W        W45568   5.765   5.295   1.211  0.0803 -0.2020  0.3101
30100W        W45569  12.122   0.514  13.686 -0.1572  0.0992 -0.3889
30101W        W45570   6.383  12.649   2.460 -0.1884 -0.0632  0.0040
30102W        W45571   5.872  18.064   1.887 -0.3046  0.1513  0.0653
30103W        W45572  11.808   6.972  11.674  0.1074  0.0221  0.1025
30104W        W45573   9.555   7.174  13.646  0.1743 -0.0293  0.2343
30105W        W45574  11.359   3.662   2.382 -0.1992  0.2283 -0.2616
30106W        W45575   8.686  10.028  15.245 -0.1753 -0.0316 -0.1728
30107W        W45576  16.084  18.972  12.529 -0.1224 -0.3857 -0.1265
30108W        W45577  10.606   2.560  11.261  0.2054  0.0171  0.2596
30109W        W45578  14.743   0.123  13.907 -0.0583 -0.0014  0.2159
30110W        W45579  15.056   0.380   0.970  0.4250 -0.0585  0.4021
30111W        W45580   1.424  18.621  14.926 -0.1020  0.0133  0.1537
30112W        W45581  14.907   3.598   2.189 -0.4083 -0.0310  0.1078
30113W        W45582  18.327   5.343  13.833  0.0395  0.2127 -0.4102
30114W        W45583   6.653  10.591   1.511 -0.2204 -0.0792  0.0584
30115W        W45584  18.257  15.827   0.426  0.1572 -0.1628 -0.0132
30116W        W45585   4.936   0.530   1.165  0.1115 -0.2223 -0.0163
30117W        W45586   0.764  15.599  12.684  0.3430 -0.0952  0.0267
30118W        W45587  15.690   7.119  10.990 -0.1278 -0.1339 -0.0452
30119W        W45588   9.123  14.361   2.225  0.1606 -0.1352  0.1496
30120W        W45589   2.618   5.910   0.802  0.1463  0.0097  0.3831
30121W        W45590   0.080   0.610   1.282  0.0664 -0.0223 -0.2766
30122W        W45591  18.963   9.937   2.349  0.1836 -0.0220 -0.3098
30123W        W45592  12.458  14.990  12.601  0.2811 -0.0721 -0.0755
30124W        W45593  10.787  16.083   0.579 -0.4445 -0.1265 -0.5553
30125W        W45594  10.327  10.753   3.586  0.2785  0.4810  0.1589
30126W        W45595  10.793   5.498   0.164 -0.1569 -0.0276  0.0241
30127W        W45596   0.690  15.287   2.313  0.3572 -0.0537  0.1893
30128W        W45597  15.957   8.948  14.376 -0.0862 -0.0490  0.0586
30129W        W45598  15.803  15.960   0.454 -0.0075  0.3321  0.0591
30130W        W45599  12.070   3.375   4.897 -0.2119 -0.0228  0.2209
30131W        W45600  12.859  11.501  15.110 -0.3707  0.0961  0.0061
30132W        W45601  15.908  15.043  10.559  0.1822  0.1732 -0.1376
30133W        W45602   7.344  12.323  14.966 -0.1330  0.2574  0.0090
30134W        W45603  14.610   4.780   4.825  0.1161 -0.1631 -0.0973
30135W        W45604  11.305   4.800   4.183  0.1570 -0.2335  0.3158
30136W        W45605  18.355   5.775  13.427 -0.1591  0.0464 -0.2396
30137W        W45606   1.427  14.409  10.178 -0.1593  0.2288  0.3394
30138W        W45607   9.253  11.890   4.662 -0.1581  0.2058  0.0182
30139W        W45608  14.695   1.925   1.491 -0.1871 -0.1238  0.1270
30140W        W45609   3.515  17.460  12.978  0.0965 -0.4362  0.2287
30141W        W45610   7.716  12.940   4.092  0.2319 -0.0557 -0.0139
30142W        W45611   9.284   1.949  11.290  0.1785 -0.0042 -0.1654
30143W        W45612  17.872  18.592  11.455  0.1440 -0.1969  0.0890
30144W        W45613  15.549  18.238   9.459 -0.0909 -0.0921  0.2071
30145W        W45614  13.362  12.340   4.700 -0.0084  0.0234  0.0289
30146W        W45615   0.532   5.418   0.830 -0.1060 -0.2613 -0.1281
30147W        W45616  19.015   0.668  13.900 -0.3693 -0.1081  0.0089
30148W        W45617   9.187   5.590   3.337  0.1392 -0.2404  0.0064
30149W        W45618  14.940  17.813   5.018  0.0999 -0.0422  0.2648
30150W        W45619   4.440  17.906  13.939 -0.2521 -0.2276 -0.3047
30151W        W45620   6.895   2.304   3.551  0.1264 -0.0881  0.2555
30152W        W45621  14.527  15.845   0.678  0.1714 -0.0774 -0.0773
30153W        W45622  16.940  11.594  12.771 -0.1792  0.1649 -0.2570
30154W        W45623   7.398   8.515   5.223 -0.2772  0.2617  0.1963
30155W        W45624   7.027   7.773   1.428 -0.0725 -0.0433  0.0775
30156W        W45625  12.011   1.263   4.621  0.0380 -0.3114 -0.0002
30157W        W45626  14.082  17.601  14.008 -0.0689  0.1250  0.2060
30158W        W45627  17.703   3.601   3.311 -0.1472  0.1500 -0.0950
30159W        W45628  11.821  15.625  14.554  0.2290 -0.0798 -0.0855
30160W        W45629   8.701  15.400   1.090 -0.3708 -0.3522 -0.0686
30161W        W45630  12.426   4.254   3.941 -0.1234  0.0927 -0.0148
30162W        W45631  13.548   0.758  13.727  0.0171  0.1946 -0.2913
30163W        W45632   7.244   9.222  13.452 -0.1033  0.1926  0.0221
30164W        W45633   8.937  17.994   2.649 -0.0573 -0.0943 -0.2079
30165W        W45634  17.867   0.634  12.843  0.0779 -0.1344 -0.3626
30166W        W45635  11.916   4.647  11.445  0.0605 -0.1045 -0.2956
30167W        W45636   3.442  16.350  14.412  0.0081 -0.0210 -0.1952
30168W        W45637  12.048   3.376  12.451  0.3365  0.1450 -0.0637
30169W        W45638  13.309  15.290   0.146 -0.1272  0.2613 -0.0728
30170W        W45639   8.460  15.898   2.961  0.0943  0.1573  0.2124
30171W        W45640  14.320   3.926  10.985 -0.2428  0.1605  0.0893
30172W        W45641  11.249   5.778   4.341 -0.1417  0.2860 -0.1080
30173W        W45642  15.182  18.193   5.552  0.0855 -0.1815  0.2280
30174W        W45643  12.076   7.173   0.412 -0.0195 -0.0290 -0.1543
30175W        W45644   4.552  15.429  14.729  0.0068  0.2884  0.2961
30176W        W45645   9.828   5.814   3.083 -0.5333 -0.4091  0.1799
30177W        W45646   0.162  18.665   1.672 -0.0399 -0.0767 -0.1052
30178W        W45647   5.253  18.425   0.051 -0.0829 -0.0614 -0.0115
30179W        W45648   9.004   7.864   0.023  0.1536  0.2030 -0.3961
30180W        W45649   2.293   2.566  12.763  0.0934  0.1351 -0.3087
30181W        W45650  18.166  17.502   3.040 -0.1045 -0.0138 -0.2270
30182W        W45651  10.443  16.513   5.543  0.0457  0.0386  0.0794
30183W        W45652   7.703  18.008   2.630  0.1397 -0.0241  0.2701
30184W        W45653   1.482   9.714  12.190 -0.0871  0.1764 -0.3109
30185W        W45654  17.238  17.771   4.268  0.2823  0.1730 -0.1836
30186W        W45655  15.677  17.455   4.685 -0.0333  0.3323 -0.1639
30187W        W45656   9.735   8.073   0.690 -0.3817 -0.1723  0.1243
30188W        W45657  17.729   6.236   3.510  0.0592 -0.1162  0.0790
30189W        W45658   6.171  10.659  13.546 -0.1381  0.1926  0.1908
30190W        W45659   2.859  17.897   1.059 -0.0300  0.1568  0.2943
30191W        W45660   5.815  18.151   4.830  0.2694 -0.1460  0.1959
30192W        W45661   1.067   8.144  13.444  0.0849  0.2931 -0.1435
30193W        W45662   8.553  15.324  11.621  0.1265  0.2038  0.1016
30194W        W45663  14.524  13.051   0.211 -0.4689  0.0874  0.1137
30195W        W45664  13.179   2.793   0.996 -0.1333  0.3974  0.0720
30196W        W45665  16.850   8.739  12.527 -0.0199 -0.0265  0.1931
30197W        W45666   4.103   8.288  11.707  0.1680 -0.3279 -0.3213
30198W        W45667   7.533   8.085   1.792  0.1235  0.2240  0.1382
30199W        W45668  17.368   8.075   1.254 -0.1929  0.0490  0.0594
30200W        W45669   9.920  15.827  13.798  0.0492  0.2035  0.0365
30201W        W45670   7.830   0.068   1.533  0.0052 -0.1399 -0.2950
30202W        W45671   9.707   1.538  12.082 -0.1883 -0.1468 -0.2105
30203W        W45672   1.434   4.844   0.064 -0.1267 -0.1174  0.1267
30204W        W45673  13.233   7.897  13.384 -0.0006  0.2864 -0.1770
30205W        W45674   9.869  18.155   2.873 -0.0380  0.1799  0.0718
30206W        W45675   7.167  18.334  14.416 -0.2171  0.2533  0.0132
30207W        W45676   7.657  14.964   3.799 -0.1932 -0.2491 -0.4137
30208W        W45677  12.107  18.240  14.524 -0.0787  0.1809  0.0065
30209W        W45678   4.385  15.636   5.621  0.1831  0.0402  0.1365
30210W        W45679   1.195   0.323  10.226 -0.3999  0.1521  0.0384
30211W        W45680  15.897   7.901   1.391 -0.0666  0.0191  0.2604
30212W        W45681  10.123  17.735  13.099 -0.0961 -0.0830  0.2611
30213W        W45682  13.865   5.285  14.041 -0.1654  0.1867  0.0709
30214W        W45683   1.372  10.754   5.158 -0.0738 -0.1201 -0.3229
30215W        W45684   7.282  11.281   4.679 -0.0017  0.0945  0.1719
30216W        W45685   3.580   4.810  13.032 -0.2775  0.2756 -0.2410
30217W        W45686   6.578   4.153   0.343  0.4809 -0.2069  0.3506
30218W        W45687   4.626  11.396   3.022  0.0966 -0.2082  0.1077
30219W        W45688   4.748   6.862  15.334 -0.1496  0.1778 -0.0216
30220W        W45689   1.131  13.018   1.823 -0.1196 -0.2564 -0.1546
30221W        W45690   0.711   0.992   4.812 -0.0503 -0.0198 -0.3882
30222W        W45691   8.029   8.060   0.182  0.3474  0.1303  0.0163
30223W        W45692   3.856   7.040  12.939  0.1077 -0.1460 -0.1704
30224W        W45693   6.688   6.860   3.250  0.1252 -0.2283  0.2142
30225W        W45694   6.279   0.658   1.911 -0.0886  0.0726 -0.0648
30226W        W45695  10.139   8.641  14.868 -0.1154  0.1665 -0.6010
30227W        W45696   2.186  15.305   5.339  0.0159 -0.2315 -0.0614
30228W        W45697   0.014  17.288  10.691  0.4093  0.2711  0.0218
30229W        W45698   6.285  12.650   9.642 -0.1237 -0.1490 -0.0879
30230W        W45699  14.547   9.558   3.679 -0.1809 -0.0279 -0.2369
30231W        W45700   3.760   9.322   5.138 -0.3475 -0.2466  0.1962
30232W        W45701   4.918   1.049  15.039 -0.0514  0.4328  0.1786
30233W        W45702  17.533  15.103   0.649 -0.2920  0.0116 -0.2168
30234W        W45703  15.792  13.266  13.070 -0.2258 -0.0387  0.1486
30235W        W45704   9.243  11.293   4.725 -0.6578  0.0998 -0.1567
30236W        W45705  11.646  16.003   0.456  0.1393 -0.0801 -0.1878
30237W        W45706  18.010   6.051  12.922  0.1222 -0.4362  0.1724
30238W        W45707   8.951   4.275   1.925  0.1481  0.0218  0.0618
30239W        W45708   4.207   8.399  12.899  0.1463  0.1726 -0.3797
30240W        W45709  18.482  13.468   1.417 -0.0650 -0.2391  0.1851
30241W        W45710   5.776   0.183   4.348 -0.1271  0.0558  0.0588
30242W        W45711   9.854  12.076   5.199  0.0030 -0.2872 -0.1369
30243W        W45712   6.461  15.692  12.710 -0.2207 -0.1533 -0.1916
30244W        W45713   8.117   0.457   4.097  0.0076 -0.0421  0.3008
30245W        W45714   1.847   4.814  14.899 -0.0098  0.0573 -0.1400
30246W        W45715   4.772   7.503   2.338 -0.2496  0.3242  0.1353
30247W        W45716  14.064   3.789   9.803  0.1079  0.0680  0.2249
30248W        W45717  16.409   8.993  12.150 -0.4893  0.3133  0.0802
30249W        W45718  15.814   2.758  14.525  0.1730 -0.0267  0.1091
30250W        W45719   9.661  17.093  11.719 -0.0901  0.1014  0.0016
30251W        W45720   3.829   4.929   4.033 -0.4231  0.1172  0.0376
30252W        W45721   1.268   5.018  12.117  0.0676  0.2581  0.1400
30253W        W45722   4.363  10.743   3.814 -0.1983 -0.0623  0.1055
30254W        W45723   9.613   7.563  11.084 -0.2858 -0.1916 -0.0694
30255W        W45724   8.899  14.137   0.443 -0.0094 -0.0185 -0.4210
30256W        W45725   6.276  16.006   9.782 -0.1778 -0.1023 -0.4095
30257W        W45726   6.754   8.855  12.568 -0.0050 -0.2097  0.1261
30258W        W45727  16.374  15.864  13.736  0.2822 -0.2604  0.3878
30259W        W45728   3.263   5.894   2.099  0.1486  0.1113 -0.3697
30260W        W45729  11.260   2.162   0.269 -0.3426 -0.2890  0.2322
30261W        W45730   3.091  15.655   1.340  0.0162  0.2436 -0.1553
30262W        W45731   6.696  17.543  14.543 -0.0971  0.0664  0.1050
30263W        W45732  16.498  17.268   3.996  0.1834 -0.0431 -0.0630
30264W        W45733   2.109   7.440   0.057 -0.4148 -0.1179 -0.0753
30265W        W45734   1.104  14.784  10.230  0.0330  0.0077  0.0621
30266W        W45735   8.085  13.280  14.341 -0.0462 -0.2545  0.1559
30267W        W45736   5.257  11.474  10.803  0.1535 -0.1772 -0.0212
30268W        W45737  11.053   0.073   4.205 -0.1098  0.1483 -0.0166
30269W        W45738   4.805   0.543   2.243 -0.1004  0.3845  0.2223
30270W        W45739  17.488  16.843   0.697  0.2036  0.0833  0.4097
30271W        W45740   5.900   1.859  12.002  0.2462  0.1614 -0.0500
30272W        W45741  11.757  13.921  11.782 -0.2939  0.0086 -0.2672
30273W        W45742   2.763   8.625  14.481  0.1232  0.2640  0.2171
30274W        W45743   1.133  15.207  13.509  0.2589 -0.0728  0.3018
30275W        W45744   1.245  15.776  13.609  0.0844  0.0598  0.5323
30276W        W45745   2.415  14.483   1.589 -0.1377  0.0985  0.0628
30277W        W45746   3.802  13.363  14.952  0.3995 -0.0349  0.0651
30278W        W45747  16.070  13.607  14.509  0.0205 -0.0840  0.0719
30279W        W45748   3.005  11.375  12.477 -0.2811 -0.0947  0.1544
30280W        W45749  17.879  15.178   3.116  0.2177 -0.0824  0.0724
30281W        W45750  11.020   9.539   3.514 -0.0363  0.0002 -0.1590
30282W        W45751  11.431   7.773   3.996  0.4120 -0.0021  0.2396
30283W        W45752   0.987   2.552  10.452  0.0544 -0.0554 -0.1354
30284W        W45753   6.839  14.361   5.544  0.0370 -0.1466 -0.1815
30285W        W45754   9.449  15.455  12.636  0.0766 -0.1950 -0.0826
30286W        W45755  15.537  18.559   1.678  0.0552 -0.0585 -0.0406
30287W        W45756   0.915   8.969  11.914  0.0559 -0.0072  0.0552
30288W        W45757  11.809   2.780   2.697  0.0505 -0.1339  0.1134
30289W        W45758  10.360  14.701   2.356 -0.0711  0.2927  0.3753
30290W        W45759   6.941  12.369   2.598  0.0372 -0.1800  0.0898
30291W        W45760   1.744   2.164   2.165  0.0464  0.3244 -0.1977
30292W        W45761  15.791  18.736  14.749 -0.0449 -0.2805 -0.2191
30293W        W45762  12.433   5.342   3.611  0.2326 -0.1071 -0.3402
30294W        W45763  10.888  18.742   4.448  0.0348  0.2392 -0.2212
30295W        W45764  14.411  18.082   1.045  0.1837  0.0912  0.2319
30296W        W45765   8.464   7.788  13.248 -0.2120 -0.1465 -0.0981
30297W        W45766   7.455   7.149   1.024  0.3072 -0.1758  0.2488
30298W        W45767   7.106  17.172   3.918 -0.3020 -0.0892 -0.2695
30299W        W45768   3.196  13.546   5.593  0.1094  0.2916  0.2537
30300W        W45769   7.015  14.469  10.758 -0.3103  0.3145  0.1040
30301W        W45770  17.049   9.721  14.405  0.0499  0.0329  0.0734
30302W        W45771  17.008  10.789   5.381 -0.1911 -0.2839  0.1553
30303W        W45772   5.019   8.989  10.583  0.2715 -0.1457 -0.0423
30304W        W45773  10.321   7.365  10.798  0.2100 -0.0716 -0.0891
30305W        W45774   9.020  15.567  14.597  0.2658 -0.2927 -0.1207
30306W        W45775  17.401  17.002   2.813 -0.1236  0.0273 -0.0057
30307W        W45776   1.578  15.965  10.448  0.1729  0.0280  0.1535
30308W        W45777   1.180  10.555   4.416 -0.1554 -0.4475  0.2809
30309W        W45778   1.409   9.220  11.300 -0.0708  0.0595  0.1811
30310W        W45779   5.113  10.324   2.217  0.0180 -0.1259  0.1283
30311W        W45780  13.642   7.596   3.150 -0.2698  0.1115  0.2019
30312W        W45781   2.360  17.864   1.112 -0.3441 -0.0624  0.1223
30313W        W45782  15.972  16.195  13.604  0.4353  0.1924  0.2991
30314W        W45783   7.162  12.476   1.608  0.0439 -0.0661  0.0707
30315W        W45784   7.804   6.288   1.039 -0.2554  0.1552  0.2885
30316W        W45785   6.839   4.527  12.927 -0.0534  0.1592 -0.4345
30317W        W45786   0.181   1.244   5.114  0.1806 -0.0558 -0.2689
30318W        W45787   9.567  18.248  14.737 -0.0782  0.1613 -0.4073
30319W        W45788  13.661  17.641   3.169 -0.0538  0.2162  0.1780
30320W        W45789  13.077  14.609   4.436  0.0397  0.0552 -0.2038
30321W        W45790   2.883  11.977   1.404  0.0336  0.2143  0.0461
30322W        W45791   0.966   5.692   0.271  0.1626 -0.1934 -0.1232
30323W        W45792  16.492  17.430   2.968  0.1109  0.0136  0.0825
30324W        W45793   9.367  14.653  14.720 -0.0861 -0.1588  0.3468
30325W        W45794   0.242   0.093   3.872  0.1023  0.3319 -0.1361
30326W        W45795  15.523   1.530   9.622  0.3153 -0.3442 -0.1280
30327W        W45796  13.226   2.351   1.242  0.2057 -0.1074  0.0662
30328W        W45797   7.222  12.934   4.115 -0.1143 -0.2813 -0.0790
30329W        W45798  13.106  17.168   3.661  0.5358 -0.0234 -0.1878
30330W        W45799   3.525   1.308  11.927 -0.0090 -0.0459  0.2636
30331W        W45800  14.741   9.248  14.607 -0.3830 -0.0666 -0.1454
30332W        W45801  13.724  14.056   0.197  0.0087 -0.4620  0.2189
30333W        W45802  14.854   6.481  13.182  0.1021 -0.1137 -0.1693
30334W        W45803  12.627   5.965  15.136 -0.1237 -0.0531 -0.2003
30335W        W45804   9.444  11.014   3.865  0.0756 -0.1261 -0.0050
30336W        W45805   6.750   0.179   5.243 -0.1423 -0.0887  0.2469
30337W        W45806   7.023  15.029  12.321 -0.1302 -0.2116  0.1972
30338W        W45807  15.360   6.184  11.114 -0.0562 -0.0403 -0.1356
30339W        W45808  13.755   4.098   1.231 -0.0336  0.0192  0.2700
30340W        W45809   9.125  14.068   4.047 -0.2873 -0.1898 -0.2252
30341W        W45810   7.434   8.193  14.062 -0.1785  0.3642  0.0334
30342W        W45811   4.688   8.098   4.043 -0.0900 -0.0421 -0.0481
30343W        W45812  13.304  10.527   4.339 -0.2590  0.2352  0.0429
30344W        W45813   0.330  17.320   9.854  0.3145  0.3591  0.1502
30345W        W45814   9.083   5.417   4.170 -0.2166 -0.4086 -0.0419
30346W        W45815   6.018   2.021   2.322  0.0591 -0.4074 -0.0265
30347W        W45816   4.058  12.457   3.502  0.1768 -0.0342  0.2498
30348W        W45817   8.148  15.746   1.481 -0.1529  0.2529 -0.1673
30349W        W45818  11.696   8.752  13.217  0.1066  0.2590  0.1865
30350W        W45819   1.000  12.999   4.277  0.1279 -0.1266  0.0581
30351W        W45820  17.986   3.734   0.694 -0.1702 -0.1502  0.2026
30352W        W45821   6.187  11.141  14.178  0.0679  0.3655 -0.1758
30353W        W45822  14.061  13.431   3.087 -0.1830 -0.2726 -0.1293
30354W        W45823   4.618   0.107   3.764  0.1499  0.2946  0.0739
30355W        W45824  11.971  14.222  12.242  0.1707 -0.2792 -0.1960
30356W        W45825  14.378   1.249  10.288 -0.0300 -0.3173 -0.2205
30357W        W45826   6.608  12.930  14.612 -0.3775 -0.1291 -0.1342
30358W        W45827   9.280  11.619   3.755  0.2029  0.1212 -0.0522
30359W        W45828   4.916   4.709  10.626 -0.1395 -0.0818 -0.0969
30360W        W45829   2.381  17.789   0.230 -0.1166  0.2529 -0.3568
30361W        W45830   7.085  11.126  14.929  0.0341 -0.0202 -0.0258
30362W        W45831  15.850   0.702   9.877 -0.5017 -0.0777 -0.2031
30363W        W45832  16.317   1.988  11.295  0.1451 -0.1867 -0.2634
30364W        W45833  17.243  11.776   0.589  0.1494  0.2653 -0.1073
30365W        W45834   6.950   4.956  14.877  0.1698 -0.1230 -0.2080
30366W        W45835   7.076   3.184  13.315  0.2356  0.0251 -0.2381
30367W        W45836  11.914   0.983  13.455  0.1792  0.0267 -0.0517
30368W        W45837  18.411  16.710  15.129  0.0045  0.2600 -0.2343
30369W        W45838  18.727  11.624   0.815 -0.0138  0.2850 -0.1706
30370W        W45839  18.110   3.123  15.209 -0.0615  0.1684  0.1122
30371W        W45840   3.569  17.449   0.238 -0.2020 -0.1189  0.0075
30372W        W45841   6.975   5.288   4.608 -0.2427  0.2092  0.3582
30373W        W45842  14.420   9.851   4.961  0.1339 -0.1571  0.0343
30374W        W45843   6.800   5.595  12.416 -0.1380 -0.0673  0.4114
30375W        W45844   1.472  12.250   0.126  0.0803 -0.0050  0.0662
30376W        W45845   3.446  12.142   3.992 -0.1237 -0.0285 -0.0876
30377W        W45846   6.381  17.881  14.298 -0.0755  0.2660 -0.1542
30378W        W45847  14.423   0.918   3.591  0.3719  0.1439 -0.2747
30379W        W45848   6.352  17.382  11.376  0.1214  0.1850  0.0261
30380W        W45849  15.226   6.252   1.100 -0.3687 -0.3689  0.0820
30381W        W45850  13.812   7.585   5.272 -0.2019 -0.3877 -0.1992
30382W        W45851   3.386   2.685   0.148  0.0942  0.2834 -0.0868
30383W        W45852   9.047   1.405   0.003  0.0793 -0.3826  0.1065
30384W        W45853   7.836  16.333  11.912  0.0857 -0.0352 -0.1138
30385W        W45854   0.573   4.823  14.781  0.4734 -0.4554 -0.0735
30386W        W45855   1.500  13.338   1.791  0.0028 -0.0810 -0.0036
30387W        W45856   3.917  15.254  10.033 -0.1488 -0.2661  0.1079
30388W        W45857  17.754  16.369  11.553 -0.2335  0.0903 -0.1283
30389W        W45858   9.505   5.534   2.942  0.1295 -0.1594 -0.4814
30390W        W45859  17.950  12.338  11.837 -0.2027  0.1196  0.1761
30391W        W45860  10.621   4.482   5.254 -0.2090  0.0312 -0.0517
30392W        W45861  14.295   0.745  14.319 -0.1308  0.0396  0.0172
30393W        W45862   8.264   6.027  12.157  0.0479 -0.0892  0.1931
30394W        W45863  17.380  17.250  14.689 -0.1186  0.0342  0.2651
30395W        W45864   9.692   6.097  13.365 -0.0956  0.1440  0.1141
30396W        W45865  18.427  18.732   4.216 -0.1488 -0.0474 -0.2706
30397W        W45866  11.828   9.634   2.310  0.1332  0.0190 -0.0883
30398W        W45867   7.211   7.396   9.570  0.0322 -0.4690  0.0946
30399W        W45868  12.284  11.103   5.128  0.1401  0.0395  0.0990
30400W        W45869   8.042   9.115   0.296  0.1935 -0.1929  0.0013
30401W        W45870   4.395  10.442  15.092  0.0464 -0.2181  0.1259
30402W        W45871   0.695   2.630   0.037 -0.1650 -0.3915 -0.0247
30403W        W45872  17.072  13.202   5.562  0.1529  0.0137 -0.2409
30404W        W45873   0.679   0.234  13.239  0.1048 -0.2386 -0.0305
30405W        W45874  14.044   2.805  14.684 -0.3318  0.1588  0.0200
30406W        W45875   2.108  11.700   0.453 -0.1233 -0.1451  0.0135
30407W        W45876  15.050  13.816   1.141  0.1044  0.1122 -0.1049
30408W        W45877  13.714   3.648  11.221  0.0660 -0.0289 -0.4219
30409W        W45878  10.859  14.668   1.684  0.2012 -0.1901  0.1539
30410W        W45879  10.185  15.422  13.762 -0.2805  0.1045  0.1832
30411W        W45880  10.014   2.120   6.313 -0.4821  0.2156 -0.1891
30412W        W45881   4.085   5.043  12.602 -0.5161  0.1427 -0.1095
30413W        W45882   7.708  16.594  14.217 -0.0182 -0.0042  0.1381
30414W        W45883   8.219   8.123  10.109 -0.2487 -0.0825  0.1797
30415W        W45884  14.551   9.960   5.532  0.0757 -0.1765 -0.2613
30416W        W45885   2.774   3.447   3.477  0.0648  0.1901 -0.0833
30417W        W45886   0.539   7.528  10.039  0.1208  0.0834  0.0123
30418W        W45887   7.548   4.130  13.286 -0.3270  0.0228  0.1742
30419W        W45888   3.477  11.633  12.716 -0.0535 -0.1000 -0.1306
30420W        W45889   2.860   2.957  13.457 -0.1073  0.1007  0.1741
30421W        W45890  18.245   6.680  11.628 -0.4246 -0.1550  0.1214
30422W        W45891   7.423  18.745   3.567 -0.1593  0.0509  0.4349
30423W        W45892  13.125   2.615  10.561  0.0585 -0.2081  0.0468
30424W        W45893   4.532   8.520   1.520  0.0546 -0.0972  0.0514
30425W        W45894  17.504  12.039   0.991  0.1837 -0.2548  0.0582
30426W        W45895   7.257  18.781  12.735  0.1470  0.2821  0.0482
30427W        W45896   7.939   8.782  12.880  0.0839 -0.1403  0.0888
30428W        W45897  11.298  10.809   1.122 -0.0788 -0.0187  0.3199
30429W        W45898   5.619  18.475  15.137 -0.0307  0.1658  0.0937
30430W        W45899  12.764  17.370   3.218  0.0074  0.1384 -0.3352
30431W        W45900  18.585  11.440  12.885  0.2844 -0.0834 -0.2457
30432W        W45901  18.432   0.667  11.665 -0.0863  0.4309  0.0728
30433W        W45902   3.495   5.095   1.587  0.0656  0.0935 -0.3112
30434W        W45903  14.842   3.725   9.323  0.0445  0.2538 -0.0154
30435W        W45904  10.083   5.241  11.481 -0.0967  0.2775 -0.1511
30436W        W45905   1.081   7.405  15.081  0.0573  0.2706  0.0139
30437W        W45906  14.804   4.134   4.142 -0.0401  0.0771 -0.0765
30438W        W45907   5.769  19.034  10.731  0.0354 -0.1826 -0.0641
30439W        W45908   9.430  15.607  10.617 -0.2591  0.0711 -0.0377
30440W        W45909   7.861   4.580  14.348  0.0745  0.0108 -0.0746
30441W        W45910   0.267  10.517   4.288  0.0312 -0.3084 -0.3418
30442W        W45911   2.288   1.239  13.205  0.1362  0.0938  0.2582
30443W        W45912   7.845  11.279  11.841  0.0165  0.2409  0.3683
30444W        W45913  17.786   4.357  13.079 -0.2356  0.2159  0.0595
30445W        W45914   5.058  13.747   5.303  0.1180 -0.1125 -0.3553
30446W        W45915   9.815  13.836   3.551 -0.2444  0.0832 -0.2873
30447W        W45916  15.485  10.340  14.034  0.0299  0.1088  0.0046
30448W        W45917   8.210   7.984  12.808 -0.3943  0.0942  0.0940
30449W        W45918   2.026  15.808  14.404  0.2863  0.0979 -0.0312
30450W        W45919  12.056  11.528  14.226  0.4967  0.2198  0.0841
30451W        W45920  13.585  10.687   0.692 -0.2626  0.1623 -0.2136
30452W        W45921   6.373   5.300  12.108 -0.0130  0.1182 -0.1267
30453W        W45922  12.739   7.151  13.243 -0.0582 -0.1000  0.3432
30454W        W45923  15.353   7.385   4.486  0.0595  0.0496  0.1787
30455W        W45924   1.170  18.564  13.013 -0.1467  0.0271 -0.2517
30456W        W45925   4.961  12.136  11.369  0.2204  0.0096  0.1506
30457W        W45926   4.441  12.333  11.713 -0.0725  0.1196 -0.0211
30458W        W45927   3.144  12.750  13.013 -0.0222 -0.2229  0.0555
30459W        W45928  10.850   5.211   5.144  0.2683  0.0338  0.0935
30460W        W45929  15.324   2.338  15.075  0.1280  0.1552  0.0209
30461W        W45930  17.565   4.908   0.404 -0.3848 -0.0909 -0.0705
30462W        W45931  17.165   3.788   3.462  0.0318 -0.2288 -0.1983
30463W        W45932   3.719   4.301   5.347  0.1075 -0.2809 -0.1956
30464W        W45933  18.490  15.464   3.984 -0.1157 -0.0900 -0.0917
30465W        W45934   7.237  16.078   1.504 -0.1080 -0.1549 -0.1108
30466W        W45935  16.723  16.839  10.794 -0.0150  0.1701 -0.0030
30467W        W45936  12.144  15.890   0.518  0.1843 -0.0335  0.0729
30468W        W45937   7.332   3.039  12.436 -0.3292  0.0354  0.0490
30469W        W45938  10.944   8.437   1.395 -0.2970 -0.0195  0.2948
30470W        W45939   0.640  11.806   1.028 -0.0046 -0.0320  0.3870
30471W        W45940   2.569   6.940  11.635  0.0474  0.0001 -0.0173
30472W        W45941  17.764   4.762  10.265  0.1716  0.2406 -0.4247
30473W        W45942   8.293  17.641  15.059 -0.1998 -0.1281  0.0706
30474W        W45943   2.870   5.172  12.257 -0.1275 -0.3606  0.0097
30475W        W45944   9.064   8.828  10.217 -0.1339  0.1505 -0.1763
30476W        W45945   0.205   3.027   0.658  0.0569 -0.2642 -0.4134
30477W        W45946   0.819   2.073  11.814 -0.0224 -0.1276 -0.0837
30478W        W45947  18.244   9.231   1.906  0.3861 -0.0816  0.1364
30479W        W45948   2.529   6.402  11.391 -0.1901  0.3454 -0.2905
30480W        W45949  13.791   1.386  14.347  0.2104 -0.1858  0.0001
30481W        W45950   0.434  13.219  15.105  0.2755  0.1682  0.0577
30482W        W45951  16.722   7.057   3.378 -0.1141 -0.1720 -0.0231
30483W        W45952   2.393   8.114   2.525  0.0927  0.0019  0.1536
30484W        W45953   0.887   1.468   4.785  0.1502  0.1075 -0.2333
30485W        W45954   6.816  12.209   4.596  0.2379  0.3838  0.1648
30486W        W45955   2.649  11.764  11.784  0.4712  0.2049  0.0348
30487W        W45956  12.012  10.371   0.330 -0.1244  0.2151 -0.1304
30488W        W45957   2.477  11.103  13.771 -0.0187  0.0507 -0.2454
30489W        W45958  14.851   1.852  14.363  0.0044  0.1544  0.2775
30490W        W45959   1.396  18.771  12.616 -0.2413  0.2563 -0.0612
30491W        W45960  17.423  15.641  11.422 -0.0457 -0.0269 -0.0805
30492W        W45961   5.534   6.611   2.509 -0.0480 -0.2395 -0.1811
30493W        W45962   9.516   7.638   4.991  0.0089  0.0337  0.2835
30494W        W45963  16.769  15.175   4.089 -0.0652  0.0370  0.1723
30495W        W45964  17.756  16.481   3.269  0.2324  0.3557 -0.1187
30496W        W45965   8.303   3.641   2.307  0.2191 -0.0413  0.1099
30497W        W45966  16.564  11.637  15.042  0.0921 -0.2813  0.1632
30498W        W45967  15.595   9.698   4.803  0.0017  0.2936  0.0707
30499W        W45968  15.549   5.897  14.961  0.1648  0.0346 -0.0283
30500W        W45969   3.902   6.964   3.766 -0.1138 -0.1516 -0.0486
30501W        W45970   5.998   5.825  15.151 -0.4065 -0.2914  0.0567
30502W        W45971  16.442   7.064  11.715 -0.1929  0.2548 -0.0248
30503W        W45972  12.945   7.617  14.354 -0.0551 -0.1206 -0.0745
30504W        W45973   5.108   1.540   1.603  0.1133  0.1256 -0.0931
30505W        W45974   3.999   0.085   4.439  0.4026 -0.1576  0.2083
30506W        W45975   5.780   3.635   0.049 -0.4621 -0.1068 -0.1314
30507W        W45976   6.790  13.807   4.084 -0.2831  0.3144 -0.2108
30508W        W45977   9.381   4.536  14.197  0.0867  0.0428  0.0090
30509W        W45978   5.414  11.732  15.118  0.3845 -0.3382 -0.1364
30510W        W45979   9.389  17.419   2.981 -0.1359  0.1245  0.1623
30511W        W45980   1.128  10.926   0.934  0.1857  0.1405  0.3845
30512W        W45981   6.795   6.537  12.735 -0.0151 -0.0952  0.0002
30513W        W45982  16.965   5.835   9.959  0.1087 -0.0686  0.2196
30514W        W45983   1.944   9.255  12.768  0.1278  0.1936  0.0255
30515W        W45984   3.234   9.830  12.560 -0.0182 -0.2291  0.1212
30516W        W45985  13.721  14.998   4.811  0.1155 -0.2223  0.0733
30517W        W45986   8.689  12.236  15.054  0.1625 -0.1622  0.0911
30518W        W45987  16.303   9.218   4.225  0.0112  0.0905 -0.0117
30519W        W45988   9.031   2.663  15.268 -0.1202  0.0202  0.1292
30520W        W45989  18.272   0.076   4.694  0.0184 -0.0213  0.4447
30521W        W45990   8.842  12.342  12.251 -0.1687 -0.0303  0.4060
30522W        W45991   5.879   6.519   1.145  0.0044  0.1777 -0.1134
30523W        W45992   9.712  12.206  12.522 -0.3405 -0.1239  0.0518
30524W        W45993  10.172  12.776   2.235 -0.0396 -0.1842  0.0900
30525W        W45994  15.117   7.270   2.088 -0.0715 -0.1873  0.0653
30526W        W45995   9.733  12.551  12.162 -0.0323  0.0432  0.0444
30527W        W45996   8.806  17.253  11.145 -0.1007 -0.3962  0.0612
30528W        W45997  11.459   4.641  11.729  0.1857  0.0569 -0.0062
30529W        W45998  10.651   8.186  13.121  0.0888  0.0999  0.0379
30530W        W45999   5.206  17.924   2.105  0.0943  0.1084  0.4568
30531W        W46000  17.916  10.664   3.708 -0.1467  0.0689  0.1631
30532W        W46001   5.100   2.519   5.367  0.2228 -0.0110  0.1601
30533W        W46002   7.020   7.833  13.578  0.0032 -0.1432 -0.1810
30534W        W46003   3.972   7.752  10.776  0.0243  0.0108 -0.2341
30535W        W46004  14.262  12.373   2.045 -0.0416  0.0112 -0.1820
30536W        W46005   2.945  16.778  11.834 -0.0123  0.0730 -0.3695
30537W        W46006  17.435   4.407   0.248  0.1354  0.0978  0.0686
30538W        W46007  13.423  11.938  11.710  0.4114 -0.1318 -0.0646
30539W        W46008  15.657  12.903  13.972 -0.0446 -0.1605  0.2815
30540W        W46009  17.580   8.218  14.365  0.0571 -0.1289  0.2264
30541W        W46010   4.779   8.412   4.862 -0.0580 -0.0389  0.2546
30542W        W46011  10.049   2.982   1.886 -0.1222 -0.1280 -0.2290
30543W        W46012   1.991  15.814   0.452 -0.0900 -0.1031  0.0744
30544W        W46013  11.487  14.302  15.086 -0.5358  0.1266  0.1065
30545W        W46014  13.759   4.533   0.477  0.1602  0.1063 -0.2175
30546W        W46015  11.253   3.575  12.336 -0.3229 -0.1507 -0.0197
30547W        W46016   3.758  13.273   0.539  0.0213  0.0575 -0.1281
30548W        W46017   1.552   6.072   3.833 -0.0652  0.2501 -0.2809
30549W        W46018  15.831   6.221  14.715 -0.1975 -0.0793  0.4767
30550W        W46019   0.093   3.924   2.896 -0.1455  0.0521 -0.1330
30551W        W46020  10.508   9.919   2.410  0.0577 -0.1235  0.1450
30552W        W46021   6.464  11.203   3.200  0.1268  0.0987  0.3562
30553W        W46022  12.686  12.861   4.327 -0.1082  0.2288 -0.1954
30554W        W46023  12.821  10.818  13.780 -0.2203 -0.0308 -0.0857
30555W        W46024  15.944   9.467   4.485  0.1466 -0.2494 -0.3266
30556W        W46025  13.979   6.778  10.186  0.0257  0.4496 -0.1408
30557W        W46026  14.986   4.276   1.475  0.0625 -0.1357 -0.0337
30558W        W46027   3.267  13.855  11.672 -0.1664 -0.1048  0.4455
30559W        W46028  15.943   1.330   1.258  0.0024  0.4002  0.1064
30560W        W46029  16.503  17.113  11.984  0.1033 -0.0955  0.0742
30561W        W46030   5.273  14.682  14.405 -0.1282  0.3409  0.1926
30562W        W46031  14.395   3.920   4.897  0.0037  0.1553  0.2267
30563W        W46032   7.332  17.465   0.975  0.0798 -0.0659 -0.0395
30564W        W46033   4.934  17.530   2.255  0.0443 -0.2321  0.0863
30565W        W46034  17.483   2.345  11.122 -0.3029  0.3793 -0.0304
30566W        W46035  11.304   1.651  13.616 -0.1514  0.3599  0.0711
30567W        W46036  16.836   4.513  12.831 -0.1654  0.1805 -0.0147
30568W        W46037  11.335  11.475  13.844 -0.1126  0.1826  0.3674
30569W        W46038   6.470   0.933   1.522 -0.2595  0.0278 -0.1220
30570W        W46039  13.470  14.197   0.615  0.1201  0.1117  0.1593
30571W        W46040  12.400  16.303   3.616  0.2154 -0.1227 -0.3850
30572W        W46041  17.300  17.183   1.650 -0.0592 -0.2610  0.1733
30573W        W46042   6.817   9.404  11.977 -0.0841  0.2379  0.0315
30574W        W46043   4.218  11.518  11.552 -0.0498 -0.2938  0.1131
30575W        W46044  10.608   3.636   3.488  0.2720 -0.0194  0.0285
30576W        W46045   1.558   9.343   2.775 -0.4506  0.1026 -0.1819
30577W        W46046  10.829  18.184  10.523 -0.1451  0.1343  0.1883
30578W        W46047  16.129  16.258   0.994 -0.1530  0.0060  0.1506
30579W        W46048   9.457   8.261   3.185 -0.2249  0.0303 -0.4144
30580W        W46049  12.697   5.667   0.960  0.0184 -0.0221 -0.0251
30581W        W46050  14.293  15.818  12.890 -0.1109 -0.2189 -0.0442
30582W        W46051   9.078  18.397   2.177 -0.2588  0.0499 -0.1582
30583W        W46052   0.727   3.157  10.749 -0.0123  0.1468 -0.4327
30584W        W46053   8.346  13.561  12.515  0.0870  0.0460  0.0148
30585W        W46054   2.187   2.768  12.315 -0.0023 -0.3518 -0.1714
30586W        W46055  11.108  11.279   0.391  0.1515  0.0159  0.1688
30587W        W46056   8.987   6.905  11.195 -0.3016  0.0119 -0.1342
30588W        W46057  13.208   3.743  14.901 -0.0147 -0.1468 -0.1308
30589W        W46058  12.756  12.574  10.584  0.2265 -0.0271  0.0246
30590W        W46059   0.706  17.331  14.428 -0.1577  0.0490  0.0509
30591W        W46060   8.164  10.459   0.375 -0.0142 -0.1799 -0.0645
30592W        W46061   9.936   2.407   5.400 -0.1654  0.1544 -0.0487
30593W        W46062  13.417  16.408   4.587 -0.0246 -0.0540 -0.2943
30594W        W46063   8.647   8.607  11.589  0.0630 -0.1708  0.4069
30595W        W46064  14.428  16.659   1.347 -0.0101  0.0828  0.2125
30596W        W46065  11.192  17.954   4.940  0.1102  0.0879  0.2629
30597W        W46066   9.287  10.658  12.301 -0.2197  0.1161  0.0347
30598W        W46067  13.971  12.905  13.752 -0.0718  0.1104 -0.1167
30599W        W46068   3.332   0.036  12.770 -0.4040 -0.0911  0.0254
30600W        W46069  11.911  14.528   2.217  0.2190 -0.2926 -0.4009
30601W        W46070   9.232  10.254  13.056 -0.2447 -0.2395  0.1233
30602W        W46071  17.834   5.232  12.488  0.0556 -0.1960 -0.2325
30603W        W46072   3.929  11.933  11.602 -0.1339  0.0348 -0.0344
30604W        W46073  15.379   3.004  10.606 -0.0868  0.1148 -0.2188
30605W        W46074   2.342   0.439   9.540 -0.0332  0.3342 -0.0737
30606W        W46075  18.545  11.712   2.502 -0.1620 -0.2363 -0.0723
30607W        W46076   2.693   7.506   3.917 -0.3059  0.0200  0.0947
30608W        W46077  11.032  17.970   2.076  0.0491  0.4102  0.1662
30609W        W46078   4.431  17.346   5.157 -0.0411 -0.0429  0.1710
30610W        W46079   6.223  18.638  13.354  0.2825  0.2383  0.0066
30611W        W46080   5.258  15.212   2.072  0.0808 -0.4682  0.1661
30612W        W46081   6.778   0.441   2.239  0.0617  0.0671  0.4613
30613W        W46082  17.297   2.536   4.941  0.1483  0.0003 -0.0077
30614W        W46083  16.656  18.468  15.053  0.0551 -0.4037  0.0438
30615W        W46084  16.435   2.334  12.598 -0.0829 -0.1421 -0.1388
30616W        W46085   3.452   8.377  13.907  0.4258 -0.0748  0.0992
30617W        W46086   7.270   9.658  14.236  0.0213 -0.4203 -0.0299
30618W        W46087   6.977   6.162   4.731  0.2731  0.3465  0.1610
30619W        W46088  17.747   4.604   3.197  0.2282 -0.1305 -0.1695
30620W        W46089   1.634  15.674   0.108  0.4741  0.0146  0.3480
30621W        W46090  12.373  10.630  11.220 -0.0792 -0.1851 -0.0708
30622W        W46091  17.887   2.950   3.859 -0.2221 -0.1462 -0.1088
30623W        W46092  15.748  17.001   3.518  0.2048 -0.4433  0.0749
30624W        W46093   1.900   4.590  12.307 -0.5273  0.2731  0.2779
30625W        W46094  14.952  15.957   1.104 -0.1048  0.0938 -0.1241
30626W        W46095  10.583   8.071   0.914 -0.0816  0.1477  0.0033
30627W        W46096  14.469  12.137  12.951  0.0129  0.2508 -0.1231
30628W        W46097  16.619  12.775  12.035 -0.3410 -0.1327  0.0341
30629W        W46098   4.153  10.408  10.554  0.5384 -0.3236 -0.1923
30630W        W46099   6.830  18.043   3.038  0.1096 -0.1480  0.0559
30631W        W46100  16.222   5.624   3.085 -0.0528 -0.3331  0.0818
30632W        W46101   6.119  10.115   5.385 -0.1660  0.1825 -0.1030
30633W        W46102  12.128  11.790   4.708  0.2524 -0.1745 -0.0378
30634W        W46103  14.473   9.994  12.400 -0.0988 -0.0774 -0.0266
30635W        W46104   7.309   6.564   3.726 -0.0944 -0.2102 -0.3197
30636W        W46105   3.489  16.882  12.562  0.1742 -0.2009 -0.0233
30637W        W46106  16.051   6.585  15.218 -0.1898 -0.0662  0.0098
30638W        W46107  18.856   7.140   2.068  0.2517  0.2296 -0.1209
30639W        W46108  18.005  11.290   3.203 -0.3524 -0.1787  0.2189
30640W        W46109   6.150   9.330  10.319 -0.1073  0.0531 -0.1310
30641W        W46110   3.622   9.418   3.246 -0.1333  0.1414  0.0347
30642W        W46111   7.858   5.040  11.953  0.1246 -0.1720  0.0130
30643W        W46112  10.259  17.614  11.318  0.0499 -0.0586  0.2052
30644W        W46113  10.530  17.257   4.774  0.1066 -0.2897 -0.0887
30645W        W46114  18.494   8.833  11.747  0.2013  0.0373 -0.1189
30646W        W46115   0.433  11.000   3.630  0.0339  0.1899 -0.2282
30647W        W46116  18.240   9.524   5.588 -0.1263  0.1628 -0.3330
30648W        W46117   3.661  16.959   3.363 -0.0360 -0.3801  0.1739
30649W        W46118   3.307  12.442   0.127  0.0969  0.2511 -0.2753
30650W        W46119   6.178  11.761   9.591 -0.1518 -0.0789 -0.3293
30651W        W46120   9.167   8.156   0.564 -0.1294  0.2969 -0.2353
30652W        W46121   7.619   6.056   1.922 -0.0075  0.1229 -0.0923
30653W        W46122   7.609  12.245  12.818  0.3568 -0.0446  0.3347
30654W        W46123   2.371  14.847  12.734 -0.1506  0.2551 -0.2650
30655W        W46124   8.691   2.423   0.883  0.0483  0.2576  0.0992
30656W        W46125   6.271   2.544  11.028 -0.0479 -0.0702  0.1043
30657W        W46126   6.315   9.041   1.121 -0.3909 -0.1446  0.2564
30658W        W46127  14.717   8.960  12.307  0.0733  0.2120 -0.0339
30659W        W46128  18.746  10.549  11.254  0.0483  0.2303 -0.4327
30660W        W46129  14.297  17.404   4.386 -0.1450 -0.0814 -0.0764
30661W        W46130  15.864   5.523  12.636 -0.0627  0.1296 -0.0155
30662W        W46131  15.652   2.401   5.240  0.3015  0.4375  0.2411
30663W        W46132  18.819   4.220   4.707  0.4675 -0.2446  0.2804
30664W        W46133   5.580  11.503  13.457  0.1655 -0.0362  0.1459
30665W        W46134   3.369   1.317   5.432 -0.0278  0.1623 -0.0097
30666W        W46135   5.293  16.746   4.283 -0.0969  0.4285 -0.1693
30667W        W46136   4.428   3.346   0.285 -0.2597 -0.0676  0.1373
30668W        W46137  11.727  13.325  14.004  0.1612 -0.0821  0.2511
30669W        W46138   2.499   9.618  14.695 -0.0371 -0.0518  0.1239
30670W        W46139   3.317   9.957  11.095  0.0945  0.1745 -0.1531
30671W        W46140   7.351   9.226   0.251 -0.0394 -0.0370  0.3952
30672W        W46141   1.350  13.460  11.013 -0.2987 -0.4249 -0.0126
30673W        W46142   7.140  16.890  11.087  0.1805  0.2814  0.2881
30674W        W46143  14.096   4.730   0.866  0.0629 -0.2427  0.0736
30675W        W46144   5.731   3.616  12.163 -0.2422 -0.0515 -0.0959
30676W        W46145   1.113   3.229   2.427 -0.1987 -0.0607  0.1750
30677W        W46146  10.719   9.583   3.981  0.0238  0.0058  0.1677
30678W        W46147   2.235  17.305   2.364 -0.5150  0.2597 -0.2968
30679W        W46148  16.922  16.356  12.068 -0.3765 -0.2278 -0.0619
30680W        W46149   1.894  10.459   3.776  0.1418  0.0590 -0.0187
30681W        W46150   9.298  14.445   0.237 -0.1336  0.0295 -0.2083
30682W        W46151   3.851   8.705  14.712 -0.1284  0.1991 -0.1720
30683W        W46152   1.809  15.293  14.525 -0.3167 -0.0690 -0.3451
30684W        W46153   6.985   3.636  12.966  0.0730  0.0442 -0.2105
30685W        W46154   4.624   1.191   0.144 -0.0646 -0.2406 -0.0171
30686W        W46155  14.857  10.371  12.560 -0.0281  0.0326 -0.1806
30687W        W46156  13.848  16.894  10.425 -0.4254  0.2253  0.1375
30688W        W46157   4.571  15.533   5.121 -0.2303  0.1239  0.3918
30689W        W46158  17.749   0.862   1.271 -0.1234  0.2100  0.5439
30690W        W46159  12.482  14.984   0.975  0.1927 -0.0112 -0.0982
30691W        W46160   7.380   1.855  10.302  0.1503  0.0889 -0.0972
30692W        W46161  17.821   0.157  13.010  0.0833  0.0577  0.2443
30693W        W46162  17.386   6.052   1.147  0.3060  0.1824 -0.0709
30694W        W46163   7.291   9.700  11.333 -0.0204  0.1323  0.0523
30695W        W46164   6.028  16.619   5.762 -0.0435 -0.0005 -0.0377
30696W        W46165  16.384   3.765   0.957 -0.2183  0.1402 -0.0422
30697W        W46166  11.184  17.735   0.755 -0.0314 -0.0155 -0.1189
30698W        W46167  10.898   2.542  11.703 -0.0716 -0.1691 -0.1273
30699W        W46168   3.146  12.441  14.378  0.1006  0.0085  0.3043
30700W        W46169   0.337   6.357  15.151 -0.0084 -0.2418  0.0349
30701W        W46170   2.318   3.243   0.594  0.0477 -0.1449  0.0808
30702W        W46171   6.410   9.572   1.060 -0.0073 -0.4102  0.2134
30703W        W46172   3.986  12.395   0.779  0.0877 -0.2238  0.1890
30704W        W46173  12.948   3.124   1.264  0.3078 -0.2746  0.2160
30705W        W46174   5.635   6.720   0.629 -0.2785  0.2396  0.4309
30706W        W46175   9.555   1.609  14.729  0.0843 -0.0650  0.0466
30707W        W46176   9.900  12.024   3.543 -0.0574  0.3328  0.3766
30708W        W46177  11.556   5.886  14.689 -0.1136  0.1798 -0.1270
30709W        W46178  14.974  16.184   4.254 -0.3630  0.1158 -0.2926
30710W        W46179  11.653   6.590   2.214  0.0531 -0.5073 -0.2129
30711W        W46180  12.547  16.940   9.829 -0.0395 -0.0718  0.0833
30712W        W46181  16.047   0.972   9.520 -0.0750  0.2544 -0.3606
30713W        W46182   5.309  17.539  13.311  0.1826 -0.3857 -0.0194
30714W        W46183   3.607  11.273   1.313 -0.1174  0.1832  0.1622
30715W        W46184  16.608   0.694   2.088  0.1484  0.2744 -0.1353
30716W        W46185   1.073   4.825  11.296  0.0077  0.1720 -0.2073
30717W        W46186   1.715  10.659   2.893  0.0556  0.2323 -0.0949
30718W        W46187   7.249  16.273   0.454  0.0238  0.3244  0.2260
30719W        W46188   1.070   1.977  14.089  0.1556 -0.1671 -0.1843
30720W        W46189   1.250  14.856   1.786 -0.1681 -0.2034 -0.0294
30721W        W46190  19.028   3.039  13.489 -0.1607 -0.4075 -0.2387
30722W        W46191  12.268   8.957   4.055  0.2248  0.3460 -0.0924
30723W        W46192   5.269   3.486  11.970  0.3356 -0.2623  0.3089
30724W        W46193  13.999   7.398   4.480 -0.1924 -0.1398  0.4405
30725W        W46194   9.414   8.447  13.755 -0.1803  0.1338  0.0134
30726W        W46195   1.410  12.519  12.485 -0.3549  0.3005  0.1256
30727W        W46196  13.127  14.820   0.312  0.3236  0.0842 -0.0293
30728W        W46197   9.317   3.832  14.024  0.1400  0.1744  0.2708
30729W        W46198   4.342   4.364   2.664 -0.3377  0.0012 -0.0524
30730W        W46199   0.865  15.382  14.322 -0.1421  0.0112  0.1118
30731W        W46200   4.350  16.511  14.036 -0.1037  0.2449  0.1668
30732W        W46201   4.289  17.270  15.211 -0.1818 -0.1856  0.2938
30733W        W46202   3.014   8.072   0.644 -0.1184  0.0932 -0.4343
30734W        W46203  19.032  13.910  13.130  0.0201 -0.0814  0.1900
30735W        W46204   8.318  15.398  11.148 -0.1804  0.1463 -0.3750
30736W        W46205  15.708   6.272  15.279  0.0231 -0.2503  0.0966
30737W        W46206   8.190  17.286   1.142  0.2191  0.1246  0.0949
30738W        W46207   3.707  11.847   4.336  0.1899 -0.0304 -0.1485
30739W        W46208   1.449  17.546  12.014  0.0094 -0.1963  0.1362
30740W        W46209  10.091   7.071  14.899  0.0258  0.0061  0.1142
30741W        W46210  12.952   2.506  12.740 -0.2743 -0.1425 -0.3840
30742W        W46211   8.822   4.196  11.635 -0.2637 -0.0257 -0.1724
30743W        W46212   5.487   6.193  12.550  0.1432  0.2410 -0.1356
30744W        W46213  12.782   7.226  11.303  0.1374 -0.1679  0.0720
30745W        W46214  18.511  18.391  10.546 -0.2952 -0.0720 -0.1754
30746W        W46215  16.600  13.113   4.141  0.2425  0.0605  0.0786
30747W        W46216   2.798  13.062  13.275 -0.3025  0.0472 -0.1872
30748W        W46217  18.447  15.582   0.808  0.1945 -0.0170  0.2903
30749W        W46218   8.328  12.763   5.824  0.7535  0.0852 -0.1100
30750W        W46219  13.837  16.240   4.354  0.0070  0.2869 -0.1447
30751W        W46220  13.729   5.691  12.840  0.3092  0.3413 -0.0043
30752W        W46221  16.853   9.146  12.272 -0.0306 -0.1367 -0.3872
30753W        W46222   4.656   2.666  15.033 -0.2226  0.0793  0.2673
30754W        W46223  14.291   4.925  13.383 -0.1181 -0.2155  0.0327
30755W        W46224   7.951  14.544   3.924  0.0175 -0.2332 -0.0889
30756W        W46225  16.221  15.399  13.936  0.1261 -0.2046  0.1322
30757W        W46226   0.685  16.276   4.571  0.1382  0.1140  0.0297
30758W        W46227   6.474   3.575  10.557  0.0985  0.0846 -0.1688
30759W        W46228   4.084   6.936   2.354  0.1298 -0.0133 -0.1591
30760W        W46229  16.158   1.414  12.870 -0.0262 -0.0539  0.0586
30761W        W46230   1.905   2.768  13.217 -0.1358 -0.0424 -0.0976
30762W        W46231  10.487   0.570  14.029 -0.2488 -0.2369  0.1631
30763W        W46232   8.612   1.572  11.594 -0.1243 -0.2143 -0.0527
30764W        W46233   2.048  15.846   4.986 -0.1273  0.0284 -0.0844
30765W        W46234  16.944   1.772  11.522  0.4483 -0.3877 -0.1909
30766W        W46235   5.956   0.707   4.389 -0.0209  0.2165 -0.2647
30767W        W46236  10.374  11.258  10.009 -0.1319  0.1462 -0.0153
30768W        W46237   9.513   7.303   0.155  0.0226  0.2560  0.1265
30769W        W46238  16.083  17.274  13.026 -0.0281  0.2683  0.1629
30770W        W46239   0.342   7.358   1.243 -0.0102 -0.0564  0.2335
30771W        W46240   8.139  13.781   3.627  0.3548 -0.0005  0.4941
30772W        W46241   2.203   0.528   3.425  0.1661 -0.3077  0.3836
30773W        W46242  14.296   7.912  12.509  0.0006  0.0392  0.0520
30774W        W46243   9.474  14.738  12.299 -0.0295  0.2704 -0.1983
30775W        W46244  13.237  11.834   4.655 -0.2601 -0.2364 -0.2529
30776W        W46245   3.256   2.527   1.971 -0.0667  0.1360  0.1000
30777W        W46246  18.572  17.703   2.829 -0.2852 -0.1307  0.1273
30778W        W46247  13.730   1.674  14.813 -0.0641  0.3220  0.0027
30779W        W46248   9.386   4.130   4.611  0.0619 -0.0504 -0.0001
30780W        W46249  14.928   4.368  13.763  0.2412 -0.0339  0.1031
30781W        W46250   6.189  11.095   2.270 -0.2337 -0.1630  0.1558
30782W        W46251   6.636   3.156  13.094 -0.0858  0.2475 -0.0894
30783W        W46252   5.464   8.213   3.501  0.2196  0.2114  0.2248
30784W        W46253   4.350   5.027   2.683  0.1346  0.1341 -0.3905
30785W        W46254   4.069  18.138  14.220  0.0723  0.3413 -0.1757
30786W        W46255  18.807  13.728   4.376 -0.0581 -0.1941 -0.0034
30787W        W46256   3.954   7.542  11.727 -0.0079 -0.0947 -0.1003
30788W        W46257   6.366  10.521   4.570 -0.0991  0.0067  0.1098
30789W        W46258   6.927  16.657  13.694 -0.1678  0.1500  0.2212
30790W        W46259  16.812  17.099   1.807 -0.4733 -0.1170 -0.1040
30791W        W46260  11.862  12.894   3.842 -0.1705 -0.1181  0.0297
30792W        W46261  15.263  17.611  13.947  0.3967 -0.7761  0.3488
30793W        W46262  10.333   2.468   3.437  0.0657 -0.2252 -0.0732
30794W        W46263   6.082   2.181  10.572  0.0095 -0.0867  0.4482
30795W        W46264   6.249   6.420  10.015 -0.0076  0.1996 -0.2722
30796W        W46265  18.863   4.680   1.289 -0.2673  0.0853 -0.0578
30797W        W46266   3.355   1.718   0.714  0.0401  0.3259  0.1838
30798W        W46267  16.210  18.602  14.093 -0.0008 -0.0167 -0.1125
30799W        W46268   2.974  16.994   4.876  0.0206 -0.0681 -0.1710
30800W        W46269  12.916   0.948   4.680  0.0024 -0.1056 -0.0892
30801W        W46270  14.936   7.733  15.055 -0.0516  0.3286 -0.2537
30802W        W46271  11.516  17.853   2.220 -0.1585 -0.4109  0.0954
30803W        W46272   7.464   4.534   1.129 -0.2381 -0.3031 -0.0175
30804W        W46273   2.153  11.918   4.806  0.0948  0.0520 -0.3374
30805W        W46274   6.904  14.061   3.509 -0.2915 -0.1927 -0.0369
30806W        W46275  13.926  11.856  11.693  0.2748  0.1019 -0.1850
30807W        W46276  12.382   0.799   2.494 -0.1026  0.2071  0.1862
30808W        W46277   5.933   5.664   1.547  0.3381  0.1390  0.0686
30809W        W46278   9.471  10.011   9.948 -0.2408  0.1493 -0.0064
30810W        W46279   2.796  14.048   2.838  0.1190 -0.2658  0.1713
30811W        W46280  14.005   6.840  12.823 -0.0144 -0.0490  0.1891
30812W        W46281   0.975  10.518   1.191  0.3192  0.3838  0.1090
30813W        W46282   6.468  16.476   2.055  0.3496  0.1464  0.1242
30814W        W46283   3.711  17.934   2.275  0.1495  0.0809  0.0016
30815W        W46284  12.156   8.511  14.870 -0.1861  0.4283 -0.4473
30816W        W46285  15.886   4.697   3.610  0.0941  0.0688  0.0285
30817W        W46286   1.914   3.307  13.580 -0.1593 -0.1951  0.0519
30818W        W46287   8.737  15.794  11.683 -0.4485  0.2178  0.2048
30819W        W46288   2.790  17.803   3.979 -0.0642 -0.1719 -0.0673
30820W        W46289   0.923   0.729   4.375  0.0255  0.1809  0.0764
30821W        W46290   5.420   8.706   5.134 -0.0632 -0.1400  0.3321
30822W        W46291   0.481  18.312   2.870 -0.0789  0.0862  0.1700
30823W        W46292   6.864   6.575  13.954 -0.0063  0.0057  0.0497
30824W        W46293  15.773  11.381   2.401 -0.0231 -0.0423  0.0494
30825W        W46294   2.703  18.671  10.629  0.1816 -0.1076 -0.0295
30826W        W46295  16.891   5.401   0.472  0.0307  0.5203 -0.2690
30827W        W46296   4.015   5.580   3.325 -0.1881  0.3715  0.0892
30828W        W46297  15.717   5.952   4.231  0.2393  0.1553 -0.1064
30829W        W46298   6.377   2.886   0.443 -0.2530  0.0646  0.1955
30830W        W46299  13.966  13.138   3.685  0.0320  0.2766 -0.2509
30831W        W46300  18.669   4.451   3.324 -0.3521 -0.0654  0.0740
30832W        W46301  17.923   3.517  13.709 -0.0684  0.0485  0.0272
30833W        W46302  17.962  18.382  11.026  0.0699  0.2891 -0.0677
30834W        W46303   9.899  10.223  11.070  0.1098  0.1915 -0.1880
30835W        W46304  11.613  17.048  12.828  0.1871  0.1718 -0.0145
30836W        W46305   9.925   8.105   3.085 -0.2097  0.0325 -0.1902
30837W        W46306  13.005   4.205   3.363 -0.1507 -0.0261 -0.0691
30838W        W46307  18.139   7.643  13.600 -0.0159  0.3183 -0.5196
30839W        W46308  11.439  15.921  15.239 -0.0811  0.0005 -0.1895
30840W        W46309   2.119   0.229  10.173 -0.0311  0.2240 -0.0746
30841W        W46310   6.215  11.625  10.324  0.0482  0.4217 -0.1716
30842W        W46311  18.551  18.355  13.940 -0.4515  0.0896  0.3137
30843W        W46312  10.588  11.854  13.674  0.0873 -0.1400 -0.5771
30844W        W46313  16.695   9.738   9.918  0.0284 -0.4158  0.1614
30845W        W46314  16.246   5.110   3.113  0.0019  0.2791 -0.0345
30846W        W46315   1.229   9.251   3.299  0.1242  0.0061 -0.2493
30847W        W46316   3.057   4.273  11.903  0.5346 -0.1100  0.1787
30848W        W46317   2.513  18.984   1.484  0.1725 -0.3253  0.0463
30849W        W46318  15.062  13.210   3.059 -0.2010  0.0893  0.2665
30850W        W46319   3.667   2.492   2.980  0.0948 -0.0964 -0.0517
30851W        W46320   0.813   8.418  14.941 -0.4172  0.0442 -0.1092
30852W        W46321  17.982   2.450  11.090  0.1434 -0.0875  0.0334
30853W        W46322   6.350   4.211   2.642  0.0232 -0.2587  0.0491
30854W        W46323   3.738   1.623  14.025 -0.1580  0.3334  0.0425
30855W        W46324   7.864   4.212   1.245  0.0120  0.2567 -0.0905
30856W        W46325  12.689  11.309   0.764  0.0688  0.0325 -0.3197
30857W        W46326   2.858  10.836   1.228  0.1346  0.0908  0.1907
30858W        W46327  17.128   0.722   0.053  0.2221  0.1748 -0.0224
30859W        W46328  17.411  15.380   3.384  0.0689 -0.5183  0.3005
30860W        W46329   4.603   6.555  10.158  0.0669 -0.2291 -0.1553
30861W        W46330   5.080  16.554  13.293  0.3296 -0.0863  0.1584
30862W        W46331   1.700   7.591   4.845 -0.0319 -0.2140  0.3516
30863W        W46332  14.224  14.524  12.597 -0.4507 -0.0699  0.0412
30864W        W46333  15.034  11.833  11.044 -0.1339 -0.1185  0.0041
30865W        W46334  10.588  12.868   5.179  0.1102 -0.0454  0.0230
30866W        W46335   0.637   5.977  13.211 -0.2080  0.0304  0.1344
30867W        W46336   0.702   6.813  11.140  0.3393  0.2290  0.0651
30868W        W46337   0.453  13.231  12.431 -0.2455 -0.0551 -0.2027
30869W        W46338  10.281   8.348  14.125 -0.2322 -0.2468  0.1773
30870W        W46339  13.188   2.195  13.719 -0.5276 -0.3878 -0.0641
30871W        W46340   7.841  13.482   4.980  0.2630  0.2791  0.3262
30872W        W46341  12.274  11.676   1.859  0.0140  0.0743 -0.1408
30873W        W46342   4.380  14.814  12.831 -0.0830 -0.0926 -0.0583
30874W        W46343  10.127  18.721  14.188 -0.1107 -0.1115 -0.0999
30875W        W46344  15.928  13.674  13.334  0.0536  0.0021  0.0531
30876W        W46345   8.139  10.345   2.195  0.1009 -0.1548  0.4486
30877W        W46346  10.174   1.491   5.351 -0.1023  0.2222  0.0232
30878W        W46347  18.343   6.872   4.673 -0.1934  0.1715  0.2008
30879W        W46348  16.877   7.236   2.479  0.0743  0.2496 -0.0114
30880W        W46349  11.565   5.675  15.308 -0.2960 -0.1606 -0.0081
30881W        W46350   6.847   2.897  11.989  0.1971  0.1024  0.1947
30882W        W46351  12.000   0.596  13.106  0.0919  0.0099 -0.0800
30883W        W46352  14.437   7.665   4.423  0.2093 -0.0339 -0.1004
30884W        W46353  15.373  13.605   3.718 -0.0374  0.2989 -0.4460
30885W        W46354   5.322  16.969   5.161 -0.2723  0.0729  0.1661
30886W        W46355  13.985   3.594   1.924  0.3194  0.3300 -0.2046
30887W        W46356   9.004   0.308   2.405  0.4029  0.1128 -0.2226
30888W        W46357   6.979   2.445  15.145  0.2557  0.3073 -0.2476
30889W        W46358  15.398  12.024  12.814 -0.0580 -0.1653 -0.0310
30890W        W46359  14.962  13.586   3.368 -0.1582  0.1037 -0.2328
30891W        W46360  13.356   6.512  13.284 -0.0437 -0.2696  0.2621
30892W        W46361  16.977   1.353   1.627 -0.2918 -0.2022  0.0030
30893W        W46362  15.320   5.972   0.123  0.1340  0.1254 -0.1120
30894W        W46363  15.595  10.909   2.325 -0.4392  0.1877 -0.2513
30895W        W46364   7.674   3.900  12.277  0.1392  0.2552 -0.2248
30896W        W46365   6.066   0.811   2.861  0.1842  0.2421  0.3417
30897W        W46366  11.087  15.360  12.557  0.2398 -0.1423  0.2380
30898W        W46367   9.974  11.655   0.116  0.0577  0.1475 -0.3177
30899W        W46368   2.206   6.959  13.559  0.5252  0.2106  0.1873
30900W        W46369   4.097  10.394   4.343 -0.0570  0.0873 -0.0326
30901W        W46370   1.616   3.831  10.593  0.0437 -0.1076 -0.0702
30902W        W46371   2.175   6.218  14.333 -0.0064  0.1208 -0.0292
30903W        W46372  13.290   5.085   3.253 -0.4597 -0.0412  0.3862
30904W        W46373  15.608  13.218   3.891  0.0056  0.0917 -0.0781
30905W        W46374  18.854  18.580  14.763 -0.0453  0.0003 -0.0233
30906W        W46375  11.553   0.881  15.307 -0.2115 -0.1538  0.3698
30907W        W46376  13.685  17.537   4.896  0.2019  0.1804  0.1918
30908W        W46377  14.801  17.881   0.687  0.0538  0.0507 -0.0196
30909W        W46378  18.392   6.384   4.960  0.4007 -0.1871  0.1785
30910W        W46379  14.052  14.068   4.839 -0.0189 -0.1216  0.0614
30911W        W46380   6.297  18.073   0.417  0.1136  0.3472 -0.2642
30912W        W46381   1.770  11.898   2.567  0.2495  0.1239 -0.0518
30913W        W46382   8.050   5.317   0.517  0.1083  0.3253 -0.1158
30914W        W46383  15.379  16.479  10.482  0.1818  0.2068 -0.1720
30915W        W46384   9.961  14.450   4.530 -0.0963 -0.0228 -0.1463
30916W        W46385  16.793  17.951  13.748  0.1951  0.2547 -0.1975
30917W        W46386  11.863   0.221   3.802 -0.1972 -0.0228 -0.2485
30918W        W46387  16.882   7.685   2.660 -0.1941  0.1961 -0.0478
30919W        W46388   5.295   0.121   3.826 -0.2116 -0.3192 -0.1051
30920W        W46389  13.993   3.130   2.219  0.0739 -0.2806 -0.0621
30921W        W46390   7.737   2.279   0.711 -0.0573 -0.0766  0.1818
30922W        W46391  11.141   6.319   0.554 -0.0224 -0.2545 -0.0172
30923W        W46392  11.881  12.800  10.812  0.1077  0.0978 -0.1905
30924W        W46393   7.882  10.626   4.762  0.0973  0.0937  0.2101
30925W        W46394   7.029   3.138   2.420 -0.1546 -0.0662  0.2019
30926W        W46395  15.966  15.010   1.842  0.1908 -0.0671  0.0782
30927W        W46396   7.516   7.274  15.272 -0.2218 -0.2058  0.0546
30928W        W46397   8.956   7.620   5.125  0.0402 -0.1805  0.1402
30929W        W46398   2.651   9.461   5.574 -0.0537  0.2821  0.0658
30930W        W46399  16.436   0.565  10.447 -0.0527 -0.1562 -0.1020
30931W        W46400   1.869   0.523   1.364  0.1496 -0.3581  0.3185
30932W        W46401   2.997  18.957  13.154  0.2210 -0.0093 -0.1721
30933W        W46402  11.629   2.311  11.508  0.1868 -0.0677 -0.6095
30934W        W46403   0.246   6.020  12.649 -0.0341  0.1194  0.0958
30935W        W46404  18.785   8.168  14.646 -0.1309 -0.0478  0.3323
30936W        W46405  10.287   2.083   5.548 -0.2009 -0.0997 -0.1715
30937W        W46406   5.557   5.595   3.862 -0.1880  0.1562 -0.2793
30938W        W46407   5.797  10.965   5.729 -0.4127 -0.4619 -0.2793
30939W        W46408  16.586  18.408   4.933  0.2908 -0.0615 -0.1304
30940W        W46409  12.751   0.194  12.799  0.0385 -0.2143  0.1372
30941W        W46410   6.711   3.957   4.690 -0.1037  0.3421  0.1475
30942W        W46411   4.709   1.417   5.171 -0.0770  0.0510 -0.2043
30943W        W46412   0.982  10.335  11.701 -0.4527  0.1178  0.0107
30944W        W46413   6.875  11.862   4.125 -0.0563  0.1199  0.0021
30945W        W46414   2.626  15.959  10.000 -0.2309 -0.0911 -0.0777
30946W        W46415  13.948   8.236   0.024  0.2678  0.2749 -0.1535
30947W        W46416  18.057  16.428  10.365  0.1600 -0.0437 -0.0826
30948W        W46417  15.352   5.077   5.456 -0.3068 -0.3605  0.0695
30949W        W46418  15.752   6.691  10.335 -0.2364 -0.1063 -0.1350
30950W        W46419   2.329   5.298   3.900  0.4349  0.0346 -0.2613
30951W        W46420  17.515  13.373  13.863  0.2817 -0.1437 -0.0558
30952W        W46421   9.885  15.443   4.621  0.0432  0.0115 -0.2937
30953W        W46422   1.831  10.805  12.954 -0.2522  0.0078 -0.1217
30954W        W46423   4.450  18.153   0.554 -0.0577  0.0881 -0.0063
30955W        W46424   7.915  11.250   4.150 -0.1360  0.1331  0.1588
30956W        W46425  18.008  13.983  12.444 -0.0583  0.2099  0.0164
30957W        W46426  13.222  16.999   4.159  0.1453 -0.1489  0.1420
30958W        W46427  12.479  12.315  10.264  0.1408 -0.0898 -0.0893
30959W        W46428   7.464   1.764  10.833 -0.0628 -0.3373 -0.0454
30960W        W46429  14.210  10.157  10.284  0.0450 -0.1888 -0.6638
30961W        W46430  14.858  18.416   0.862 -0.0190 -0.1411 -0.2019
30962W        W46431  16.693   5.818   2.269 -0.1029 -0.1200 -0.3317
30963W        W46432  15.493  10.363  14.559 -0.3417  0.0510  0.2316
30964W        W46433  16.152   5.557   1.452 -0.0498  0.1673  0.1110
30965W        W46434  14.995   6.721   1.308  0.3105  0.1090 -0.2228
30966W        W46435  10.285  18.856  10.929  0.2742  0.1185 -0.0939
30967W        W46436   0.271  11.558   0.294  0.0709 -0.1073 -0.2260
30968W        W46437   0.620  17.733  13.024 -0.1012 -0.0795  0.3416
30969W        W46438   9.002   6.144  12.116 -0.0361  0.0170 -0.0610
30970W        W46439   6.904  18.558  11.037 -0.1581 -0.0139  0.1270
30971W        W46440   2.683  14.531  12.337  0.0200 -0.2011  0.1132
30972W        W46441   6.986  18.013  11.132 -0.2302 -0.5467  0.1490
30973W        W46442   9.367  17.245  15.334 -0.0158  0.4465 -0.0736
30974W        W46443  10.832  17.787   2.888 -0.2342  0.0809  0.0549
30975W        W46444   8.545  16.584   2.340 -0.1021  0.1008 -0.0223
30976W        W46445  10.889  13.166  11.887 -0.1045  0.0364 -0.0504
30977W        W46446   5.363   6.578  10.383  0.0207 -0.1332  0.2469
30978W        W46447   7.499   5.831  14.993 -0.5122  0.2421 -0.1702
30979W        W46448   9.981  11.380  14.903  0.0212  0.1924  0.1162
30980W        W46449  14.955   4.758   1.151  0.1143  0.4346 -0.2517
30981W        W46450  13.061  17.227  15.332 -0.1506  0.1610  0.1241
30982W        W46451   3.576  15.679   4.858 -0.0778  0.1634  0.0636
30983W        W46452   0.324   5.223  12.735 -0.0674  0.0004 -0.0932
30984W        W46453   0.522   9.918   2.855 -0.5712 -0.1983  0.0729
30985W        W46454  10.937   9.340  11.047  0.0063  0.0931 -0.2122
30986W        W46455  13.095  12.009   5.086  0.2838 -0.0243  0.3360
30987W        W46456  16.106   8.638   2.684  0.1356 -0.1922  0.2451
30988W        W46457  14.115  12.250  13.398 -0.1328 -0.0086  0.1814
30989W        W46458   0.986  17.630  14.750  0.3556 -0.1847 -0.0128
30990W        W46459   5.977   3.148   5.500  0.1002 -0.2202  0.0799
30991W        W46460   1.905  14.600   4.205 -0.5183 -0.0860 -0.1812
30992W        W46461   0.504   1.037   2.848  0.0321 -0.4017  0.1175
30993W        W46462  15.363  14.805  10.142 -0.2196 -0.2509 -0.1541
30994W        W46463  13.374  15.653  12.921  0.0482 -0.1458  0.0542
30995W        W46464  12.479   1.295  13.234 -0.2112  0.2188  0.1786
30996W        W46465  12.365  17.262   0.650 -0.0154 -0.1835  0.3574
30997W        W46466  14.546   9.828   3.191 -0.1629 -0.0823 -0.4350
30998W        W46467  15.189   0.596   3.497 -0.5743  0.0680 -0.0416
30999W        W46468   5.197   3.514  14.850 -0.0010  0.2901  0.1723
31000W        W46469  13.129  15.298   3.185 -0.0052 -0.0276 -0.0222
31001W        W46470   8.803  17.308   1.006 -0.0293 -0.0749 -0.0695
31002W        W46471   7.860  16.627   1.979 -0.3932 -0.0642 -0.0164
31003W        W46472  14.869   7.534   1.134  0.3437 -0.0888 -0.3224
31004W        W46473  10.213   6.662  13.841  0.4391 -0.0397  0.0263
31005W        W46474   4.844  16.186  13.645 -0.0271 -0.0659  0.1103
31006W        W46475  17.622  17.245  10.006  0.2065  0.1370 -0.1765
31007W        W46476   5.647   4.541  13.954  0.1020 -0.0213 -0.0101
31008W        W46477   9.713   1.832   6.017 -0.0876 -0.1192 -0.1245
31009W        W46478   3.833  18.468   3.856  0.1449  0.0032  0.0617
31010W        W46479  15.105  11.012  15.154  0.2981  0.2631 -0.1848
31011W        W46480   3.554  16.756   6.800  0.1405 -0.3535  0.0661
31012W        W46481   4.894   6.354  12.327 -0.0847  0.1624 -0.0681
31013W        W46482   9.303   9.612   2.587  0.1414 -0.2096  0.1061
31014W        W46483   7.536   1.700   6.214  0.0495  0.3019 -0.2014
31015W        W46484  16.564   2.443  14.504 -0.3064  0.1542  0.1548
31016W        W46485  13.964   9.955  14.437 -0.2090  0.0444 -0.2254
31017W        W46486   4.069   9.842  13.846 -0.1121  0.4075  0.2551
31018W        W46487   5.422   0.416  12.405  0.2418 -0.2367  0.1873
31019W        W46488   3.738   0.233   3.052  0.0263 -0.1834 -0.1975
31020W        W46489   9.634   6.519   0.240  0.1287  0.2787 -0.0575
31021W        W46490   0.764   3.002   5.655  0.0995  0.0083  0.3191
31022W        W46491   3.702  18.384  14.565  0.1104 -0.2300  0.1534
31023W        W46492  14.212  12.889  10.430 -0.1082  0.1072  0.0391
31024W        W46493   4.781   9.303   2.218 -0.3991  0.1891 -0.3110
31025W        W46494   4.542   2.794   0.270 -0.0217  0.1054  0.0203
31026W        W46495   4.316  15.464  15.177  0.0426  0.2448  0.0479
31027W        W46496   0.563   5.758   4.008  0.1373 -0.4933  0.0530
31028W        W46497  15.437  13.163   2.395  0.0950 -0.0271 -0.1844
31029W        W46498   1.332   4.616   1.959  0.0140 -0.0429  0.1259
31030W        W46499   3.406  11.056  13.035  0.2447  0.1118  0.0160
31031W        W46500  12.773   7.661   0.435 -0.2582  0.0202  0.0004
31032W        W46501  11.322   4.476   1.120 -0.1958 -0.1736 -0.1025
31033W        W46502   2.860  10.598  11.933  0.0390 -0.3111  0.0398
31034W        W46503  10.455  10.142   1.961  0.0843 -0.1922  0.1285
31035W        W46504   0.950  15.474  10.771 -0.0448  0.2777  0.2853
31036W        W46505   3.776   5.476  14.507  0.1928  0.3336 -0.1100
31037W        W46506   2.016   8.427   0.064 -0.0800 -0.2930  0.2200
31038W        W46507  10.240   2.283   9.954  0.1394 -0.3029 -0.0372
31039W        W46508  17.583   0.422   2.621  0.1863 -0.2493  0.1583
31040W        W46509  14.904  17.090   2.227  0.2959 -0.4953 -0.1618
31041W        W46510   5.171   9.107  12.480 -0.0953 -0.1637 -0.1774
31042W        W46511   1.008   2.085   4.000  0.2964 -0.0129 -0.2183
31043W        W46512  13.956  13.914   3.012  0.0733 -0.1331  0.3433
31044W        W46513   7.191   2.390   4.447 -0.0495  0.0357 -0.0078
31045W        W46514   1.474   7.257   3.868  0.1300 -0.3939  0.1087
31046W        W46515   1.744  13.700   3.166 -0.4106  0.0380  0.0640
31047W        W46516   8.205   6.557   0.928 -0.0764 -0.1169 -0.0219
31048W        W46517   5.483   2.603   4.913 -0.1772  0.0965  0.0399
31049W        W46518   6.602   5.966  14.042 -0.1269 -0.1730  0.2839
31050W        W46519  11.009  11.239   1.658 -0.0406 -0.1337  0.1066
31051W        W46520  15.039  14.083   0.168  0.2856 -0.2068 -0.1644
31052W        W46521  17.473  17.343  13.733 -0.0846  0.0441  0.0132
31053W        W46522   6.509  18.559  11.358  0.1101 -0.1057 -0.0065
31054W        W46523   8.497  16.460  14.850 -0.2359  0.2055 -0.1261
31055W        W46524  10.411  14.943  14.915  0.3209  0.2325  0.0907
31056W        W46525   6.797   2.277   1.727  0.0644 -0.1341 -0.2574
31057W        W46526   4.451   3.827  14.336  0.0818 -0.2448 -0.0940
31058W        W46527   7.309   9.674   2.904  0.3013  0.2161  0.3860
31059W        W46528  12.629  13.369   0.200 -0.3774  0.2881  0.0481
31060W        W46529  11.129   5.810  13.838  0.3641 -0.0772  0.1297
31061W        W46530   4.203   9.848   4.478  0.0107  0.1196  0.2505
31062W        W46531   3.368   1.223  13.446  0.5041 -0.1646 -0.1568
31063W        W46532   9.756  17.736   5.836 -0.1082  0.2759  0.2216
31064W        W46533   5.052   9.959   3.118  0.1099  0.0836  0.1603
31065W        W46534  17.299  11.883   1.761  0.0771  0.0473  0.0237
31066W        W46535   4.790  14.991   0.342  0.1077 -0.0549  0.0140
31067W        W46536  18.958  12.712  12.937 -0.0614  0.2211 -0.3785
31068W        W46537   7.903   7.043  13.125 -0.2267 -0.2849 -0.0968
31069W        W46538  10.465   0.395   4.984  0.2221  0.1929 -0.0323
31070W        W46539   5.397  16.482   0.362  0.2379 -0.2829  0.1308
31071W        W46540  11.866   2.171   2.190 -0.1339 -0.0132 -0.0207
31072W        W46541  10.455  10.365  14.410 -0.0295 -0.0666  0.2160
31073W        W46542  18.426  13.065  13.728  0.4610 -0.2055  0.0394
31074W        W46543  12.977  17.859   1.941 -0.3905 -0.3104 -0.1220
31075W        W46544   7.975  13.391   3.288  0.0797 -0.4721  0.2086
31076W        W46545   4.402   0.986  13.655 -0.0214  0.3877  0.1292
31077W        W46546   5.595   3.691   1.024 -0.0368 -0.2576 -0.0874
31078W        W46547   9.296  12.450  10.936  0.2357  0.0622 -0.1092
31079W        W46548   2.518  17.233   4.113  0.1311  0.1807  0.3440
31080W        W46549   4.769   1.067  12.563  0.0144  0.0750  0.0625
31081W        W46550   3.073  13.607   4.544  0.0454 -0.1848  0.2644
31082W        W46551   6.485  10.804   2.576 -0.0716  0.2358 -0.0223
31083W        W46552  11.027  16.770   2.966 -0.0778 -0.3392 -0.0206
31084W        W46553   7.017   3.477   5.771  0.1726 -0.2066 -0.1918
31085W        W46554  13.271   9.968  15.022  0.3555 -0.0424  0.1269
31086W        W46555  14.316  10.778   3.086 -0.1072  0.0236 -0.1323
31087W        W46556   5.586   6.256   2.143  0.0925  0.1512  0.0632
31088W        W46557   0.217  16.034  12.108  0.4240  0.1918  0.3348
31089W        W46558   7.387  15.123   1.049  0.0196  0.2276 -0.0620
31090W        W46559   1.211   7.548   3.150 -0.0174  0.3776  0.3657
31091W        W46560   0.555  10.238   1.084  0.0232 -0.0545  0.1501
31092W        W46561   8.236  13.709  14.724  0.0295  0.1507 -0.1491
31093W        W46562  11.810  11.643   0.574 -0.3089 -0.0339  0.0393
31094W        W46563  12.852  14.466  10.657  0.0666 -0.0300 -0.2880
31095W        W46564   4.820   7.483  10.380 -0.2612  0.2701  0.1362
31096W        W46565   9.877   6.380   3.685 -0.0176 -0.0104  0.0175
31097W        W46566  13.004  19.009  10.281 -0.1977  0.3809  0.0619
31098W        W46567  12.740   0.345  10.624  0.3187 -0.2121  0.2606
31099W        W46568  15.198   6.542   0.381 -0.2000 -0.0144  0.3302
31100W        W46569  17.831   6.216  13.910  0.4269  0.2762 -0.2435
31101W        W46570   9.011  13.458   2.793 -0.0140  0.0594  0.0123
31102W        W46571  14.423  14.599  10.798 -0.0701  0.1160 -0.0157
31103W        W46572   3.622   7.519   0.297  0.0359  0.0803  0.0230
31104W        W46573  14.030   2.856  14.111 -0.1380 -0.1942 -0.1105
31105W        W46574  16.028   7.684   3.443 -0.1397 -0.1325  0.3210
31106W        W46575   0.088  16.582  12.992 -0.4432 -0.0450 -0.1827
31107W        W46576  15.892   2.601   2.253 -0.0566  0.1753  0.1292
31108W        W46577   6.595  17.457   3.106 -0.3502 -0.1373 -0.3949
31109W        W46578  15.286  17.720   5.526 -0.0536  0.0691 -0.0713
31110W        W46579  16.063  15.489   0.399  0.1546 -0.0992 -0.1345
31111W        W46580  16.251   7.226   3.458  0.0926 -0.0618 -0.1692
31112W        W46581  12.167   3.609  13.008 -0.0140  0.0883 -0.0210
31113W        W46582   3.506  17.295   5.986  0.1406 -0.3411 -0.3145
31114W        W46583   6.710  13.025  13.858 -0.2946 -0.3337  0.1712
31115W        W46584  14.023   8.594  14.610 -0.0812 -0.2477 -0.1605
31116W        W46585   6.778  19.008   2.533 -0.2389 -0.0208 -0.1984
31117W        W46586  18.609   7.023  11.882 -0.1593  0.0674  0.0549
31118W        W46587   0.852  16.319   9.528  0.0127 -0.0763 -0.0169
31119W        W46588   0.170   5.022  10.723 -0.3626  0.5944  0.3026
31120W        W46589  12.061   2.028   0.738 -0.1553  0.1568 -0.1103
31121W        W46590  12.158   9.428   1.876  0.2251  0.1847 -0.2352
31122W        W46591   0.511   5.710   0.373  0.0915 -0.0748 -0.0097
31123W        W46592   5.835   8.366   9.693  0.0015 -0.0223  0.1140
31124W        W46593  14.144  12.345  10.611 -0.0734 -0.0416  0.0585
31125W        W46594  14.936  12.036   0.567  0.0625 -0.2453 -0.2781
31126W        W46595  16.372  16.581   2.268  0.2480 -0.1033 -0.2003
31127W        W46596   0.441   9.155  12.044  0.0249 -0.0584 -0.0827
31128W        W46597  11.305   1.228  12.368  0.1214  0.0320 -0.0267
31129W        W46598   1.136   3.659  11.221 -0.0867 -0.2271  0.1040
31130W        W46599  16.131   8.332   1.765  0.0466 -0.3368 -0.1341
31131W        W46600  13.314  11.808   1.911 -0.0748 -0.2249 -0.2197
31132W        W46601   3.108   7.601   0.281 -0.1449 -0.4544  0.1411
31133W        W46602   0.782   1.363   1.972 -0.1248 -0.0104 -0.0349
31134W        W46603   3.449  13.615   2.075 -0.0004 -0.1601 -0.1236
31135W        W46604  17.842  18.029   4.096  0.1824 -0.0602 -0.4331
31136W        W46605  17.045  10.439  15.195  0.3796 -0.1635 -0.1688
31137W        W46606   8.855   1.899  13.993  0.0606  0.5313 -0.1682
31138W        W46607   9.782  17.072   5.122  0.2018  0.1262 -0.1478
31139W        W46608   7.052   5.874  12.057  0.0338  0.0619  0.0920
31140W        W46609   4.373   3.454  13.560  0.4123  0.2109 -0.1498
31141W        W46610   1.852   7.409   4.250  0.3676  0.0164  0.4467
31142W        W46611  17.633  10.857  14.628  0.1752  0.0907 -0.1312
31143W        W46612   4.730  11.456   4.972 -0.1239  0.2571  0.0679
31144W        W46613  12.602  16.934   0.012  0.2752  0.2321 -0.0535
31145W        W46614  14.709  13.130  14.935 -0.2911  0.0859  0.1164
31146W        W46615  17.958   5.079  15.123 -0.0882 -0.3383  0.0066
31147W        W46616  17.652   3.469   4.711 -0.1241 -0.1485 -0.2702
31148W        W46617  10.508  15.219   0.635 -0.0146 -0.1741  0.0333
31149W        W46618   8.531  18.468  11.211 -0.0390  0.1035  0.1943
31150W        W46619  17.902  14.566  14.827  0.1347 -0.0276 -0.0717
31151W        W46620  14.668  18.844  10.219  0.2074 -0.1589  0.3576
31152W        W46621  13.476   1.250   0.536  0.0504  0.2352  0.0146
31153W        W46622  15.099   0.075  13.477 -0.0399 -0.0233 -0.1814
31154W        W46623  13.930   6.137   4.019 -0.0930 -0.0334 -0.0713
31155W        W46624   9.374   3.506   1.619 -0.3170 -0.2963 -0.1801
31156W        W46625  11.576  16.561   1.873  0.2772  0.2647 -0.0858
31157W        W46626   7.450  15.912  13.725  0.3316 -0.0273 -0.3149
31158W        W46627  10.977   1.810  15.120 -0.1307 -0.1507 -0.3231
31159W        W46628  16.113   8.990  10.936  0.0177 -0.0113 -0.2955
31160W        W46629   0.903  14.825   3.961  0.1062  0.2936 -0.1678
31161W        W46630  12.914   2.951  12.325  0.3660 -0.0944 -0.0404
31162W        W46631   3.081   0.749  14.732  0.0752 -0.1693  0.1174
31163W        W46632   3.665   8.307   2.528  0.2933 -0.2586  0.0831
31164W        W46633   7.178   1.182   0.066 -0.0878 -0.0382  0.1911
31165W        W46634  13.640   0.335  12.441 -0.1924 -0.0590  0.0085
31166W        W46635   5.116  18.726   2.024  0.0130  0.1311  0.2210
31167W        W46636   0.986   2.746  10.888 -0.3551 -0.2293 -0.3451
31168W        W46637  17.417   6.364   2.022  0.2773  0.4992 -0.1226
31169W        W46638  14.805  14.220  13.130 -0.0561  0.1425  0.1657
31170W        W46639  18.557  17.157  15.316  0.2366  0.1619  0.0513
31171W        W46640  16.851  10.555   1.687  0.2054 -0.1481 -0.0240
31172W        W46641   4.111  14.652  14.554  0.1117  0.0810 -0.0859
31173W        W46642  14.744  17.134  14.814  0.1240 -0.1200 -0.0169
31174W        W46643   7.062   2.918   1.014  0.0190 -0.1456  0.0128
31175W        W46644   4.245  14.500   1.694 -0.1916 -0.2501 -0.1206
31176W        W46645   6.335   0.361   5.422  0.4204 -0.0447 -0.2405
31177W        W46646   5.956  13.301   3.511 -0.2789 -0.5236 -0.0357
31178W        W46647   4.555  16.023  12.721  0.0259  0.2894  0.1279
31179W        W46648   7.375  10.862   5.597  0.1026  0.1224 -0.0217
31180W        W46649   1.020   7.332  14.139  0.0949 -0.1961 -0.1228
31181W        W46650  14.840   4.361   0.032 -0.1511 -0.1904 -0.0983
31182W        W46651  18.996   0.480  10.551 -0.0032  0.0493  0.0181
31183W        W46652   9.613  17.890   4.837  0.0084  0.0753  0.0894
31184W        W46653  16.308   0.321  10.960  0.1485  0.0344  0.3705
31185W        W46654   8.553   1.911   4.592 -0.1568  0.0407 -0.1109
31186W        W46655  17.650  13.138   2.874  0.1040 -0.0789 -0.0352
31187W        W46656  15.545  15.629   4.638  0.1538  0.1215  0.0939
31188W        W46657   7.963   4.250  12.558 -0.0090  0.0676 -0.1308
31189W        W46658  12.748   8.978   1.492  0.1139  0.0516  0.2054
31190W        W46659  10.079  12.706   1.775 -0.1872 -0.1178 -0.0757
31191W        W46660   4.966   6.351   1.762  0.2448  0.0391 -0.1505
31192W        W46661   0.210   8.218  13.181 -0.1628 -0.0487 -0.0695
31193W        W46662   6.997  18.297   4.226 -0.0475 -0.2768 -0.2231
31194W        W46663  11.911  16.295  14.147 -0.1865  0.0158 -0.0783
31195W        W46664   2.958  15.896  15.270  0.3580  0.3305  0.1392
31196W        W46665   7.912   0.446   3.580 -0.0305 -0.0426  0.2148
31197W        W46666   9.543   9.235   5.211  0.2121  0.0498 -0.5514
31198W        W46667   5.087   9.735   2.265  0.0496 -0.0825 -0.1514
31199W        W46668  14.711   4.872  13.676  0.2000  0.0275 -0.1349
31200W        W46669  13.777   4.845  10.372  0.1058 -0.2087 -0.2665
31201W        W46670  18.274  10.327  14.394 -0.0184  0.2465  0.0397
31202W        W46671  13.328   0.407   1.815  0.0925  0.0036 -0.0019
31203W        W46672   3.421   5.128   5.231 -0.0063 -0.0531  0.0773
31204W        W46673   3.401  14.901  13.870 -0.1573 -0.1468  0.0382
31205W        W46674   1.018   5.908  14.139  0.0668  0.0756  0.1044
31206W        W46675  14.474   8.218  11.974  0.0216 -0.1717 -0.1460
31207W        W46676   4.424   3.448   2.480 -0.0174  0.2666  0.1190
31208W        W46677   0.517  12.117  14.060  0.2330 -0.1012 -0.2093
31209W        W46678   3.354  18.134  14.177 -0.2306  0.1173  0.1719
31210W        W46679   2.229  18.082  15.033  0.1561  0.0085 -0.2438
31211W        W46680   5.842   8.849   0.982 -0.2731  0.2098  0.0204
31212W        W46681   3.312   4.976  11.285  0.4539  0.0565  0.0196
31213W        W46682  14.633   2.737  11.832  0.2053  0.1459 -0.0598
31214W        W46683   0.963  15.479  11.759  0.1995  0.0590  0.1768
31215W        W46684   3.367  12.367  12.063  0.0301  0.4073  0.1998
31216W        W46685   8.198  11.112   3.733  0.1155 -0.2346 -0.0397
31217W        W46686   1.104  17.171   1.444  0.1099 -0.3675 -0.2261
31218W        W46687   1.048   5.327   1.260  0.1614  0.1437  0.1175
31219W        W46688   5.502  13.832   0.324  0.3917  0.0311 -0.3286
31220W        W46689  17.711   5.503  12.100 -0.0969 -0.1490 -0.1286
31221W        W46690   8.376   9.080   0.625  0.0214  0.0365 -0.2919
31222W        W46691  10.852   8.012  13.899  0.0159 -0.1649  0.1159
31223W        W46692   9.741   8.828   4.961  0.2100 -0.0464  0.0100
31224W        W46693  16.808  11.956  11.507  0.0011 -0.2416  0.1162
31225W        W46694   8.858   6.122   0.564 -0.0481  0.0739  0.0542
31226W        W46695  17.221   6.650   0.696  0.2669 -0.0899 -0.1037
31227W        W46696   6.537   9.347   2.101  0.0024  0.2038  0.0080
31228W        W46697  10.271   5.842   2.646 -0.0707 -0.3481 -0.1934
31229W        W46698  18.502   7.760   1.512  0.1273 -0.0406  0.0015
31230W        W46699   0.018  18.503  11.628 -0.4290  0.4580  0.2265
31231W        W46700  13.740  13.245  11.803 -0.0254 -0.1072  0.1076
31232W        W46701   0.862  18.902  12.740 -0.1384  0.2521 -0.1841
31233W        W46702   2.647  18.278  12.481 -0.1661 -0.3728  0.2211
31234W        W46703  11.892   8.849   3.688  0.2348  0.0194  0.0399
31235W        W46704  12.013   8.787   2.098  0.1802 -0.3148 -0.2221
31236W        W46705  12.280   9.138   3.552  0.0586  0.0396 -0.2221
31237W        W46706  13.087   3.511  11.251 -0.5214 -0.1310  0.2485
31238W        W46707  17.990  18.900  13.473  0.0348 -0.4441 -0.1893
31239W        W46708  13.232   2.324   3.198 -0.1072 -0.1077 -0.1985
31240W        W46709   4.205   2.938   1.323 -0.4518  0.2650  0.3089
31241W        W46710   1.984  10.022   4.091 -0.1039  0.0450  0.1409
31242W        W46711   4.764  10.981  14.735 -0.0098 -0.1917  0.0540
31243W        W46712   3.944  13.408   2.787 -0.1273  0.1577 -0.1371
31244W        W46713  13.303   5.857   0.287  0.1170  0.0343  0.4293
31245W        W46714   4.225  13.136   1.644 -0.0976 -0.3348 -0.1878
31246W        W46715   6.361   5.810  12.938  0.1979  0.0983 -0.2664
31247W        W46716   8.982  18.681  12.240  0.2503 -0.0430 -0.1471
31248W        W46717  17.280   7.118  13.590  0.0688  0.1481  0.2578
31249W        W46718  17.114   2.991   3.009  0.1737 -0.1195  0.0267
31250W        W46719   0.429   8.343   3.897  0.1888  0.0363  0.0400
31251W        W46720   9.078   7.815  14.107 -0.0174  0.1179 -0.0712
31252W        W46721   6.979   3.081   1.659  0.1337 -0.3327  0.1236
31253W        W46722   6.448   4.298  14.378  0.0058 -0.0527  0.1438
31254W        W46723   7.328   4.112   0.285  0.3293 -0.0526  0.2856
31255W        W46724   7.229   1.165  12.426 -0.2542 -0.0502 -0.4004
31256W        W46725  14.266  12.038   1.629  0.1864  0.1820 -0.1345
31257W        W46726  17.341   8.149  11.808 -0.0861  0.1041  0.1449
31258W        W46727  16.184   6.876  10.952 -0.3785  0.1890 -0.2529
31259W        W46728  18.425   0.479   0.128 -0.4158  0.1545 -0.6709
31260W        W46729  18.565  16.483  10.356  0.2604 -0.3275 -0.1461
31261W        W46730  12.768  12.828  14.569  0.0775  0.1427 -0.3148
31262W        W46731  17.157   0.126  10.922  0.3281  0.1384 -0.1652
31263W        W46732   4.622  12.912   0.188  0.0792  0.0378  0.1786
31264W        W46733   6.627  13.724  12.695 -0.1075 -0.1158 -0.0749
31265W        W46734  11.026  10.057   2.275  0.2660 -0.0398 -0.0314
31266W        W46735   5.433  12.902  10.649  0.1934 -0.1388 -0.3553
31267W        W46736   4.413  11.888   4.805  0.0634  0.2870  0.3302
31268W        W46737  16.069   0.782  11.571  0.4251 -0.4677 -0.2019
31269W        W46738   2.289   3.734   0.403 -0.1114 -0.0855  0.2567
31270W        W46739  12.945   7.580  11.749  0.1967 -0.2076 -0.1163
31271W        W46740   9.033   0.236  15.130 -0.0987 -0.1898 -0.0425
31272W        W46741   4.716  13.600  12.215  0.0211  0.1033 -0.1080
31273W        W46742  13.219  14.588   3.006  0.2395  0.1272  0.0478
31274W        W46743  13.659   8.953  10.394  0.0527 -0.0814 -0.0936
31275W        W46744   8.937   2.334  11.353 -0.0047 -0.0299 -0.4138
31276W        W46745  13.358  12.437  11.420  0.1424  0.0985  0.1677
31277W        W46746  18.364  12.240   3.819  0.2568 -0.2845  0.1836
31278W        W46747  10.868  12.576   1.247 -0.0811 -0.1137 -0.1139
31279W        W46748   8.156  11.070  13.292  0.4438  0.0409 -0.1438
31280W        W46749  18.088  18.201   1.265  0.1056 -0.2185  0.1799
31281W        W46750   9.557   9.540  13.680 -0.1438 -0.2345  0.1045
31282W        W46751   0.353  14.340  10.495 -0.0454 -0.0329 -0.0582
31283W        W46752  13.664  16.108   0.613  0.1754 -0.0137 -0.1447
31284W        W46753   5.003   2.988   2.011 -0.0872  0.1258  0.0396
31285W        W46754   3.399  15.274   4.105  0.0518 -0.0811  0.2272
31286W        W46755  15.826  15.392  14.839 -0.0138  0.2157  0.1220
31287W        W46756  17.342   8.480  15.263 -0.1787 -0.1950  0.1254
31288W        W46757  10.759  17.655  11.060 -0.1323 -0.2348 -0.0794
31289W        W46758   8.182   2.855   4.085  0.1405  0.3476 -0.1406
31290W        W46759   4.562  12.868  14.057  0.1087  0.1992  0.4003
31291W        W46760   7.759   7.184   4.719 -0.2455  0.0116  0.2120
31292W        W46761   8.525  16.986   2.903 -0.0701  0.1007 -0.0871
31293W        W46762   7.592  13.674   2.344  0.2390  0.0307  0.1944
31294W        W46763  15.218  15.584  10.375 -0.0705 -0.1680 -0.0124
31295W        W46764  13.985   7.760  14.612 -0.0064 -0.0152 -0.1201
31296W        W46765  13.300  11.436   4.254 -0.0096 -0.3040  0.3194
31297W        W46766   4.099   7.685   2.690 -0.0587 -0.1620 -0.2931
31298W        W46767   2.309  15.185   2.426  0.1141 -0.0909 -0.0845
31299W        W46768  11.485  15.772   3.946 -0.0644  0.0224  0.0223
31300W        W46769  13.185   8.893   4.004 -0.1156 -0.1443 -0.1975
31301W        W46770  14.336   1.337  10.740 -0.0160 -0.0770  0.0217
31302W        W46771   8.838  16.846  14.895  0.0517  0.1785  0.1128
31303W        W46772  15.838  18.570  13.776 -0.1614  0.2986  0.1985
31304W        W46773  14.072  17.934   1.391  0.0143 -0.2308  0.0054
31305W        W46774   2.955  13.729  10.686 -0.0899  0.1937  0.1330
31306W        W46775  10.407   0.611  12.146 -0.0625 -0.0382  0.4055
31307W        W46776   2.172   0.949   2.740 -0.1974  0.1064  0.0971
31308W        W46777   7.541   7.221  14.133 -0.0458  0.2458 -0.0250
31309W        W46778   7.765  15.585  14.262 -0.3668 -0.1143  0.2089
31310W        W46779  18.042  16.681  14.058  0.4199  0.0457  0.4395
31311W        W46780   5.542  15.199   0.748 -0.0339  0.1320  0.0081
31312W        W46781   4.641  16.470   1.414  0.0853  0.0809  0.2774
31313W        W46782  10.064  10.992  11.668 -0.1498  0.0094  0.2351
31314W        W46783   8.463   2.137   2.667 -0.0771 -0.0774  0.2720
31315W        W46784   9.245   3.777   3.393  0.0000  0.2530  0.1753
31316W        W46785   8.087  18.298  11.308  0.0017 -0.1208 -0.2822
31317W        W46786  16.304   7.838   1.029  0.2842 -0.1685  0.2991
31318W        W46787  18.932   0.249  12.831 -0.3606  0.2168  0.3470
31319W        W46788   2.835  17.563  13.575 -0.1376  0.1408  0.3417
31320W        W46789   8.671  16.302  11.370 -0.5791 -0.2581 -0.2030
31321W        W46790   6.409  12.508   0.845 -0.0994  0.4281  0.3148
31322W        W46791   4.706   1.576  14.170  0.2616 -0.0399  0.2047
31323W        W46792  14.217   9.190   0.892 -0.0133  0.0001  0.1015
31324W        W46793   0.595  12.312  10.522 -0.0428  0.1712 -0.0169
31325W        W46794   5.664   9.112  12.112 -0.2182 -0.1234  0.2386
31326W        W46795  14.895  13.047  14.311 -0.2976  0.2190 -0.3756
31327W        W46796   5.064  14.181   4.819  0.1199  0.0240 -0.2254
31328W        W46797   7.036   8.157  10.470 -0.0252  0.0114  0.0752
31329W        W46798  15.279   5.184   2.644  0.0814  0.2145  0.0699
31330W        W46799   5.550  15.523  10.876 -0.5618  0.1057 -0.1783
31331W        W46800  13.427  11.805   5.687  0.1035 -0.2335 -0.1957
31332W        W46801  12.694   7.626   3.195  0.0135 -0.0707 -0.0500
31333W        W46802  12.314  14.248   2.361  0.2846 -0.3395  0.0357
31334W        W46803  13.051   9.634  13.824  0.1209 -0.1312 -0.1519
31335W        W46804   3.657   1.399   0.048  0.1506  0.1042 -0.0529
31336W        W46805  18.664  11.710  11.491  0.0530  0.2641  0.2453
31337W        W46806   5.387  16.253  13.730 -0.1499  0.4391 -0.1610
31338W        W46807  12.164  17.169  12.099  0.3859 -0.0841 -0.0723
31339W        W46808  12.573  12.549   9.686  0.2340 -0.1617 -0.0014
31340W        W46809   1.294  16.799  10.259  0.2389  0.0306  0.1385
31341W        W46810  11.722   0.529  13.932  0.1502  0.3129  0.1675
31342W        W46811   4.066   3.523   2.151 -0.1360  0.0286  0.2779
31343W        W46812   0.105  14.530  13.151  0.3003 -0.0011 -0.2843
31344W        W46813   9.388   3.681  13.500 -0.0702 -0.3390  0.0981
31345W        W46814   0.722  12.376   4.269 -0.4489 -0.0745 -0.2439
31346W        W46815   2.149   6.807  14.618 -0.1430  0.0387 -0.0131
31347W        W46816   9.875  12.118   0.434 -0.2700 -0.1204  0.1549
31348W        W46817  17.819  17.482  14.648  0.0657 -0.3644 -0.1400
31349W        W46818  15.515  16.638   4.914  0.0769 -0.0270  0.0205
31350W        W46819  10.792   4.984   3.670 -0.0747 -0.0314  0.0346
31351W        W46820  14.070  12.027  12.158 -0.0323  0.2248  0.2032
31352W        W46821  16.454   6.057  11.059  0.0354  0.0341 -0.4675
31353W        W46822  16.571  14.901  11.085  0.2175 -0.3250  0.0658
31354W        W46823  18.378  18.788   0.610 -0.1979 -0.3969 -0.1467
31355W        W46824   6.980  18.816   1.368  0.0960  0.0070 -0.4267
31356W        W46825   5.920  17.453   2.437  0.0658 -0.0279 -0.3339
31357W        W46826  16.474   4.256   2.034  0.0932  0.2427 -0.0337
31358W        W46827  12.754   0.696   1.145 -0.1511  0.1377 -0.1647
31359W        W46828   6.823   7.678   1.832  0.0231  0.1795 -0.0845
31360W        W46829  11.791  13.220   2.385 -0.1526  0.1465  0.1257
31361W        W46830  10.235  11.161   3.964  0.2773  0.2027  0.0318
31362W        W46831  14.842   2.100   4.439  0.2262  0.1273  0.0059
31363W        W46832  16.879   5.832   3.112 -0.3361 -0.1809 -0.0428
31364W        W46833   6.923  12.250   0.559 -0.2229 -0.0828  0.2804
31365W        W46834  17.048   5.169  14.042  0.1193  0.0237 -0.2497
31366W        W46835   5.679   5.318   4.354 -0.0471  0.2945  0.2797
31367W        W46836   7.263   4.310  12.496  0.2578  0.1477  0.5739
31368W        W46837  15.297  18.288   3.233  0.1131  0.2375  0.0897
31369W        W46838  16.401  16.310  13.258  0.0255  0.0781  0.0696
31370W        W46839   6.574   2.176  12.768 -0.2004 -0.3127 -0.1587
31371W        W46840   7.868  14.905   1.056 -0.1226  0.0384  0.1521
31372W        W46841  10.559   9.487  11.446 -0.0078  0.3071 -0.0528
31373W        W46842  15.206   7.288   4.952 -0.2766 -0.1195  0.1037
31374W        W46843   0.806  16.081  15.060 -0.4561  0.1244 -0.2329
31375W        W46844   4.564  10.606   0.983  0.0391  0.1906 -0.1817
31376W        W46845   2.921   2.158   4.534  0.3156  0.2455  0.0336
31377W        W46846   6.001  10.600   5.176  0.1596 -0.1761 -0.0589
31378W        W46847  11.383  10.851  10.361  0.0105 -0.1158  0.2504
31379W        W46848   3.983  14.935  11.355 -0.0799 -0.1788  0.1987
31380W        W46849  14.234  16.945   3.523 -0.2957  0.0748  0.0394
31381W        W46850   6.840  13.515   5.104 -0.1070  0.2342  0.0820
31382W        W46851  14.640   4.876   4.292 -0.2565 -0.2120  0.1983
31383W        W46852   2.345  11.296   1.564  0.3330 -0.0875  0.0550
31384W        W46853  18.047   0.143  14.813 -0.1154 -0.3881  0.4203
31385W        W46854  12.741   9.482  12.635  0.0296  0.0114 -0.0642
31386W        W46855  10.585  11.617   1.283 -0.2865  0.0117  0.2647
31387W        W46856   0.725  14.890  10.551 -0.1126 -0.1101 -0.0617
31388W        W46857  12.836  15.023   4.688 -0.0589 -0.0120 -0.0404
31389W        W46858  17.600  12.764  12.264 -0.0978 -0.0895  0.0961
31390W        W46859  18.214   5.523   4.687  0.2255 -0.1045  0.3077
31391W        W46860   1.627  16.248  11.573 -0.1371  0.0997  0.2227
31392W        W46861  18.682   8.331   5.398  0.0159  0.2457  0.0997
31393W        W46862   1.505   3.715  13.701 -0.3403 -0.1098  0.2085
31394W        W46863  18.064  10.670   2.266 -0.0890  0.1162  0.0628
31395W        W46864   5.773   4.165  11.642 -0.0780  0.1832  0.1107
31396W        W46865  15.677  14.532  10.749  0.0924  0.0101 -0.0151
31397W        W46866  18.248  13.843  11.195  0.0939 -0.3723  0.1985
31398W        W46867   8.240   0.501   4.762  0.0712  0.0796 -0.0875
31399W        W46868  11.621   8.015   2.212  0.0162  0.1363 -0.2827
31400W        W46869  14.189  10.505   4.166 -0.3994  0.1824 -0.0845
31401W        W46870  18.770   1.420  13.096 -0.0765  0.1017 -0.0056
31402W        W46871   5.037   1.005   5.119  0.0232 -0.1762 -0.0815
31403W        W46872   4.915  15.043  14.454 -0.0733  0.0380 -0.3049
31404W        W46873   6.867  18.209   2.503  0.2242 -0.3862 -0.1545
31405W        W46874   1.824   7.870   0.020  0.0456 -0.2629 -0.3593
31406W        W46875  11.999   8.880   5.220  0.0865 -0.2961  0.0256
31407W        W46876   1.822   5.343   3.674 -0.0490 -0.1421 -0.0490
31408W        W46877   0.721   8.380  10.309  0.3176  0.2907  0.0583
31409W        W46878  17.202  12.370   1.921 -0.0178 -0.0302 -0.0454
31410W        W46879  17.094   4.232  10.449 -0.0014 -0.0084 -0.1186
31411W        W46880  17.652  17.519  12.778 -0.0532  0.0980  0.1372
31412W        W46881   4.569  13.547  10.691 -0.2419 -0.2161 -0.2637
31413W        W46882   5.813  13.506  14.383  0.2262  0.0669 -0.1828
31414W        W46883   6.198   6.079   3.127  0.1594  0.1161 -0.0038
31415W        W46884   7.939   2.183  11.940 -0.5435 -0.1767  0.0273
31416W        W46885   2.210   2.643   5.156  0.1429  0.1186  0.2484
31417W        W46886   1.688  12.035   0.537  0.1456  0.0575 -0.0612
31418W        W46887  13.475  15.122  12.883 -0.0403  0.2272 -0.0718
31419W        W46888  16.277   0.392  12.812  0.1117  0.0303 -0.1391
31420W        W46889  16.919   3.667  12.943 -0.2859  0.0081  0.0200
31421W        W46890   9.797   8.619  10.760  0.0218  0.0661 -0.0735
31422W        W46891  11.266   8.628   0.633 -0.2049  0.0554  0.1539
31423W        W46892   4.218   5.121   3.686 -0.1920  0.0709  0.1897
31424W        W46893   7.569   0.240  10.501 -0.0974  0.1437 -0.0671
31425W        W46894   1.770  18.874   3.150  0.1592 -0.1277  0.0460
31426W        W46895  17.514  11.814   4.105 -0.3567 -0.3347  0.1870
31427W        W46896   5.403  15.899   1.826  0.0147  0.1149 -0.3948
31428W        W46897  16.180   2.540   3.233  0.0020 -0.0035 -0.2496
31429W        W46898   8.912  12.094  14.611  0.0669  0.0841 -0.5212
31430W        W46899   3.541   8.077   3.422  0.1484  0.1000  0.4266
31431W        W46900   8.924  18.976   0.436  0.0419  0.1170 -0.1841
31432W        W46901   1.272  17.718   1.606  0.1056 -0.3078 -0.2081
31433W        W46902   5.402  18.631   3.831  0.0033 -0.1001  0.2397
31434W        W46903  16.861  18.719   0.450  0.2603  0.1976  0.0614
31435W        W46904  18.239  13.169  12.832  0.2040 -0.4959 -0.0766
31436W        W46905   7.303   4.213  13.801  0.1879 -0.0314 -0.1250
31437W        W46906  14.193   4.230   3.185  0.5477 -0.0692  0.0579
31438W        W46907  17.525   0.492  13.217  0.1400 -0.1599 -0.3914
31439W        W46908   9.497   7.836  12.657 -0.0085 -0.1319 -0.2538
31440W        W46909   7.678   5.670   2.220  0.2728 -0.0135 -0.2030
31441W        W46910  18.142  12.322   1.573  0.1289  0.1004 -0.0450
31442W        W46911   2.453  13.540   0.552  0.0193 -0.2126  0.1218
31443W        W46912  10.688   8.599   0.141 -0.1205  0.0260 -0.3601
31444W        W46913  10.100   6.198   4.513 -0.2949 -0.1059  0.1816
31445W        W46914  16.903  13.198  12.138 -0.0446 -0.1877 -0.0368
31446W        W46915   5.278   2.180   0.169  0.0433 -0.0895  0.1328
31447W        W46916   7.372   3.690  15.290  0.0424  0.0341  0.0312
31448W        W46917  18.173   4.647  13.130  0.1193 -0.0786  0.0233
31449W        W46918  12.906  16.910   1.576 -0.3702  0.2162  0.0966
31450W        W46919   9.734   1.253  13.248  0.2889 -0.2588  0.0153
31451W        W46920  15.391  18.689  10.258 -0.1700 -0.0883 -0.2532
31452W        W46921  18.196  10.128   0.869 -0.3353  0.0160 -0.1701
31453W        W46922   2.428   6.842   0.953 -0.2227  0.4661 -0.0219
31454W        W46923   5.195  10.565   3.034  0.2121 -0.0169 -0.1943
31455W        W46924  12.635  18.486   3.687 -0.0642 -0.1899  0.1547
31456W        W46925   0.249   3.289   4.941  0.0162 -0.2003  0.1369
31457W        W46926  11.300   3.755  12.861 -0.1665 -0.0124  0.1090
31458W        W46927  16.088   6.088   2.841 -0.2320 -0.0519  0.0970
31459W        W46928   7.756  16.235   2.320  0.2746  0.0711  0.0091
31460W        W46929   3.516   3.198   3.672 -0.1731  0.2434  0.5544
31461W        W46930   8.033   1.786   4.612  0.0361  0.2729  0.1521
31462W        W46931   9.644  16.972   1.026 -0.0413  0.3018  0.1912
31463W        W46932   8.018  15.684   4.654 -0.0676  0.0896 -0.0661
31464W        W46933  14.401  15.676   2.560  0.0228  0.2286 -0.3150
31465W        W46934  17.011   8.838   1.715  0.2160  0.0927  0.3341
31466W        W46935   8.328  12.978   3.780 -0.1593  0.2090  0.0106
31467W        W46936  12.556   4.356   4.728 -0.2595 -0.1422  0.0763
31468W        W46937  17.205   7.560   0.983 -0.0137 -0.3399 -0.0593
31469W        W46938  16.713  14.556   0.453  0.3164 -0.1445 -0.0947
31470W        W46939  17.085   0.267   0.284 -0.0728  0.0231  0.0158
31471W        W46940   6.301   3.244   0.870  0.0871  0.0410 -0.3248
31472W        W46941   1.169  15.323  10.276  0.0196 -0.0799 -0.1275
31473W        W46942   0.067  13.082  12.127  0.0230  0.4532 -0.1162
31474W        W46943  14.257   6.180   4.557  0.1016  0.3710 -0.0492
31475W        W46944  17.522   7.231  12.064 -0.1395 -0.0981 -0.0360
31476W        W46945  17.639  16.076  12.611 -0.1162  0.1413 -0.1050
31477W        W46946   2.327   2.640   2.539  0.1315  0.0151 -0.0773
31478W        W46947   5.106   6.151   2.285 -0.1588 -0.2190  0.1294
31479W        W46948   6.273  14.087   0.681 -0.0031  0.0350 -0.3449
31480W        W46949   9.861  18.416   5.893 -0.0018 -0.0705  0.1664
31481W        W46950  16.189  18.249   0.416  0.1685  0.2118 -0.1606
31482W        W46951   8.005  17.010   2.276 -0.3427 -0.1595 -0.1723
31483W        W46952  14.789   0.644  15.184  0.1508 -0.1181 -0.3315
31484W        W46953  10.669   1.202   3.249 -0.1725  0.1377  0.0140
31485W        W46954   3.147   0.819  13.709 -0.1021 -0.1995 -0.1667
31486W        W46955  17.131  11.699   2.584 -0.1387 -0.0442  0.0931
31487W        W46956   0.895  17.345  11.091  0.0122 -0.0716 -0.2909
31488W        W46957   6.727  15.888  12.340 -0.1284 -0.1755  0.0710
31489W        W46958   5.516   0.555  11.410  0.2175 -0.0001 -0.2424
31490W        W46959  12.050   4.458   5.403 -0.0282 -0.2505  0.0932
31491W        W46960   3.648  12.622   5.105 -0.2109  0.2281 -0.0576
31492W        W46961   7.016   1.860   1.914 -0.0735  0.1329 -0.1424
31493W        W46962   6.957  13.451  10.527 -0.1573 -0.2147  0.1020
31494W        W46963   0.021   9.823   1.860 -0.2163 -0.2622 -0.1102
31495W        W46964  10.112  18.731   2.632  0.1177  0.2290 -0.1238
31496W        W46965  15.742   6.643  13.469 -0.2154  0.0816 -0.2099
31497W        W46966  13.024   6.797  10.500  0.0872  0.0917  0.2910
31498W        W46967   2.085   7.639  10.999  0.3186 -0.1085  0.0089
31499W        W46968  12.884  11.259   9.963 -0.2664 -0.2175 -0.2868
31500W        W46969   8.034  11.892   0.376 -0.0723  0.0169  0.0245
31501W        W46970  16.481   9.065   1.963 -0.1111  0.1206  0.0305
31502W        W46971  17.420   4.957   3.088 -0.0706  0.1121  0.2315
31503W        W46972  11.967  14.880   1.367  0.0156  0.0594 -0.1946
31504W        W46973  11.045  10.741   4.119 -0.4037  0.1576 -0.0326
31505W        W46974  15.881   7.120  10.453 -0.2794  0.0346 -0.0198
31506W        W46975   9.935  11.404  14.122  0.0441  0.2355 -0.2151
31507W        W46976  16.835  17.602   1.953 -0.0489 -0.2343 -0.1086
31508W        W46977   5.610  12.158   4.539 -0.4170 -0.1245 -0.1741
31509W        W46978  13.797  10.248   4.426  0.2462  0.1805 -0.3537
31510W        W46979  15.533  12.400  15.310 -0.0546 -0.2076  0.1458
31511W        W46980  14.845  11.182   4.503  0.1929  0.0014 -0.0593
31512W        W46981  18.029  16.991   9.665  0.2081  0.0271  0.3864
31513W        W46982  17.497   9.149  15.283  0.2655  0.2027 -0.0329
31514W        W46983   9.245  17.973  13.444  0.0555 -0.0981 -0.2007
31515W        W46984   4.506   5.978  12.379  0.2021  0.1631 -0.3721
31516W        W46985   0.352   3.151   3.626 -0.1102 -0.1731  0.1069
31517W        W46986   9.449  13.945   2.173  0.0124  0.3146  0.3206
31518W        W46987  18.138  14.250   2.138 -0.2030 -0.1046 -0.1305
31519W        W46988  13.831   5.928  13.271 -0.3813 -0.1797 -0.2503
31520W        W46989   8.695   8.739   1.726 -0.1165 -0.2379 -0.2226
31521W        W46990  18.107   7.980   1.965 -0.0978  0.2244  0.3232
31522W        W46991  13.501  11.787  10.419 -0.3871 -0.0708 -0.2885
31523W        W46992   9.427  13.702   3.815 -0.2198 -0.1513 -0.0906
31524W        W46993   0.249  16.933   0.964 -0.3743 -0.1401  0.0539
31525W        W46994  14.137  15.817   4.500  0.0305 -0.0191  0.2569
31526W        W46995  15.631   8.810  12.840  0.0027 -0.0164 -0.4361
31527W        W46996  10.798   3.993   1.606  0.2685 -0.0190 -0.4641
31528W        W46997   7.874  18.891   1.028 -0.1719 -0.0637  0.1219
31529W        W46998   2.822   9.765   3.564 -0.0171 -0.3461  0.4475
31530W        W46999   2.666  18.775   0.465 -0.3007 -0.0162 -0.0735
31531W        W47000   2.160  18.405  12.415  0.2000  0.3368  0.5610
31532W        W47001   4.808   3.175   2.706 -0.3265 -0.1476  0.0795
31533W        W47002  11.789   2.938   3.617  0.3236  0.1598  0.2153
31534W        W47003   2.433  17.267  12.855  0.2295 -0.3176  0.0304
31535W        W47004   9.033   6.351   2.174 -0.2849 -0.1210  0.1730
31536W        W47005  12.204   3.092  11.541 -0.0149  0.0494  0.0794
31537W        W47006   6.217  16.507   3.018  0.0361 -0.0311 -0.0805
31538W        W47007  12.490   0.279   6.303 -0.1355  0.1993  0.3141
31539W        W47008  12.372  17.091  11.579  0.2764 -0.1468 -0.2462
31540W        W47009  12.652   4.946  12.877 -0.0338  0.0947  0.3490
31541W        W47010   7.385   5.030  12.124 -0.2051  0.1017 -0.1251
31542W        W47011  18.269   2.271  11.439 -0.2150 -0.1219  0.0289
31543W        W47012   9.913  19.015   4.157 -0.0422 -0.0036 -0.1879
31544W        W47013  17.651  12.700  14.111 -0.2270  0.1219  0.3827
31545W        W47014   1.825  15.271   9.728  0.1033  0.3221 -0.1327
31546W        W47015   7.088   6.040   0.654 -0.0740  0.1074 -0.0154
31547W        W47016   8.539  15.399  12.100 -0.0404  0.3024 -0.1664
31548W        W47017  11.992  17.219   4.985  0.0744 -0.0727 -0.0555
31549W        W47018   1.429   7.474  13.845 -0.2503  0.3311  0.3293
31550W        W47019  13.901  16.478  10.006  0.2760 -0.3812  0.1907
31551W        W47020   6.381   9.514  13.905  0.1963  0.1415  0.4077
31552W        W47021   7.333  17.094   5.907  0.2011 -0.0533  0.2745
31553W        W47022   9.057   1.529   1.388 -0.5608 -0.1651  0.2207
31554W        W47023  13.742   9.783  12.466 -0.2001 -0.0071 -0.1914
31555W        W47024  13.481   2.884   3.804  0.1744 -0.1457 -0.1767
31556W        W47025  12.328  15.536  12.625  0.3775 -0.0189  0.0016
31557W        W47026   8.098  18.846   2.913  0.0140 -0.1798 -0.0497
31558W        W47027   4.459  11.166   0.902  0.4154 -0.1521 -0.0077
31559W        W47028   7.742  11.261  14.326 -0.1619 -0.5516  0.0859
31560W        W47029   1.236   0.669   0.569 -0.0160 -0.0774  0.1122
31561W        W47030   3.390   0.634  13.332 -0.1522 -0.0457 -0.1665
31562W        W47031  15.410   5.092  11.431 -0.2777 -0.0011  0.2137
31563W        W47032   5.092   4.575   1.376 -0.0927 -0.0278  0.3708
31564W        W47033   6.963   0.093   0.955 -0.2615  0.0903 -0.4833
31565W        W47034  15.828   0.112   9.770 -0.0062  0.0414 -0.1266
31566W        W47035  10.673   4.612   2.905  0.0710  0.3866  0.2423
31567W        W47036  16.091  12.876  12.096 -0.0397 -0.2610  0.0292
31568W        W47037  18.716  15.561   2.747  0.1011  0.2450  0.0928
31569W        W47038   1.402  12.110   0.971 -0.1974 -0.0176  0.0386
31570W        W47039   9.776   3.918   0.316  0.2920  0.0611  0.2574
31571W        W47040   5.614  13.209  12.081 -0.0442 -0.2759  0.1880
31572W        W47041   2.396   1.681   1.074  0.2846 -0.0255 -0.0619
31573W        W47042   9.569  11.049  15.090 -0.0640  0.1472 -0.2246
31574W        W47043  11.229  18.466  12.462  0.0471  0.0222 -0.0094
31575W        W47044  16.214   4.545  14.821  0.3814 -0.1912  0.1426
31576W        W47045  15.181  14.297  13.437  0.3466  0.2017  0.2645
31577W        W47046   8.914  16.602  13.420 -0.1592  0.2524  0.0178
31578W        W47047   3.619   0.977  14.744 -0.0847 -0.2172  0.1944
31579W        W47048   7.183   6.361  11.923  0.0901 -0.1286  0.0021
31580W        W47049  13.423   9.066   2.158 -0.0983 -0.0152 -0.2868
31581W        W47050   2.136  16.305  12.017 -0.1061 -0.0140 -0.0509
31582W        W47051   9.371   7.387   2.754 -0.2576 -0.3625 -0.1527
31583W        W47052   2.750   6.034   2.177 -0.3437 -0.2073  0.1630
31584W        W47053  16.607  15.527  14.930 -0.1364 -0.1851  0.0912
31585W        W47054  14.209  13.823   2.555  0.0077 -0.0056  0.1316
31586W        W47055  11.198  15.581  11.981 -0.0472 -0.1570 -0.5200
31587W        W47056   8.630  17.326  13.851 -0.0129 -0.2014 -0.0992
31588W        W47057  15.639  18.839  12.279 -0.0849 -0.1884  0.0983
31589W        W47058  13.807   0.848   5.226 -0.3171  0.1813  0.2144
31590W        W47059   7.707   9.101  13.615 -0.4122  0.1163 -0.3695
31591W        W47060   6.744  16.472   2.534  0.2281  0.0023  0.2387
31592W        W47061   7.920  11.725  11.474 -0.0585  0.0788  0.1603
31593W        W47062   6.316   6.414  13.609  0.0089  0.1397  0.1167
31594W        W47063   5.043  11.247   3.620  0.2487  0.0308 -0.4386
31595W        W47064  13.206  14.430  12.798 -0.1379 -0.1956 -0.2265
31596W        W47065   7.460  14.006   2.660 -0.0375  0.0745 -0.2080
31597W        W47066   6.183   0.453   1.362 -0.0611 -0.1327 -0.1787
31598W        W47067   6.802  12.679  13.488  0.2004 -0.4018 -0.0069
31599W        W47068   8.917  16.715   3.045  0.1520 -0.0280  0.1099
31600W        W47069  11.256   5.073  14.242  0.1330  0.1372  0.0385
31601W        W47070   9.405  18.453  12.159  0.0854  0.1207  0.2131
31602W        W47071  13.716   2.564  10.496  0.0555  0.1652  0.5169
31603W        W47072  14.358  14.388  13.181 -0.2157 -0.0746  0.0741
31604W        W47073   9.385  10.602   1.717 -0.0378  0.4003  0.1999
31605W        W47074   7.036  18.465   3.193 -0.0200 -0.1016  0.2883
31606W        W47075  14.895  16.657   0.902  0.2841  0.0751  0.2538
31607W        W47076  13.087   7.615   4.650 -0.1856  0.1128  0.0469
31608W        W47077   8.727   5.992   3.326  0.1647  0.0261 -0.0281
31609W        W47078   1.331  11.390   3.363  0.1106 -0.1440 -0.0003
31610W        W47079  14.651  10.869   1.100  0.4066 -0.1279  0.1893
31611W        W47080   4.367  15.554   1.941 -0.3374 -0.3377 -0.0090
31612W        W47081  12.073   3.218   4.435  0.0910 -0.0126  0.1537
31613W        W47082  16.011   3.833  13.737 -0.3067 -0.0954  0.0697
31614W        W47083  14.423   9.409   4.703 -0.0259  0.0101  0.0101
31615W        W47084  10.957  13.469   0.443  0.0707 -0.0282  0.1812
31616W        W47085   1.360   2.840  14.093 -0.0398  0.3547  0.3124
31617W        W47086   0.447  12.723  14.771 -0.0090  0.1108 -0.1574
31618W        W47087  12.208  12.251  11.770  0.1791  0.1363 -0.0324
31619W        W47088   5.544   6.517  12.058  0.1136  0.1776  0.1936
31620W        W47089  10.834  11.153   1.047 -0.1376  0.0640 -0.1196
31621W        W47090   0.894  10.808   0.348 -0.0476 -0.0908 -0.1725
31622W        W47091   6.795  15.872   4.580  0.0715 -0.4030  0.0571
31623W        W47092   8.212   5.729   2.241 -0.5077  0.0675  0.2706
31624W        W47093   9.131   5.342  11.884  0.1333  0.0709  0.1181
31625W        W47094   8.211  17.995   0.531 -0.1875  0.1572 -0.1322
31626W        W47095   3.113  10.405   5.010 -0.0189 -0.1054 -0.0726
31627W        W47096  14.447   4.966   3.858  0.0090  0.0318 -0.2656
31628W        W47097  10.730  13.536   1.078 -0.2562 -0.0177  0.1382
31629W        W47098   4.704  12.739   1.574  0.1147 -0.0326  0.1520
31630W        W47099  12.397  13.043   9.625 -0.0201 -0.1056 -0.2381
31631W        W47100   2.711   5.535   5.432 -0.0374  0.2696  0.0557
31632W        W47101   0.736   8.678   0.922 -0.0636  0.1608 -0.1541
31633W        W47102  18.794   0.361   3.303 -0.3726  0.1035  0.3653
31634W        W47103  17.537   0.828  12.288 -0.1521  0.2367 -0.3156
31635W        W47104   3.610  17.333  10.704 -0.0183 -0.1286  0.2146
31636W        W47105  18.654   3.985  11.802  0.2740 -0.1625 -0.1202
31637W        W47106   0.716  12.802  15.177  0.2045 -0.2266 -0.2179
31638W        W47107   6.683  18.163   1.391  0.0975  0.1040  0.2514
31639W        W47108  18.489   1.729   2.820  0.2032  0.0420 -0.0317
31640W        W47109  13.538  11.050   2.027 -0.0345 -0.0451 -0.1199
31641W        W47110  14.664  14.682  14.131 -0.2570  0.0376 -0.3237
31642W        W47111   4.910  18.262   4.791  0.2971 -0.0768  0.0661
31643W        W47112  12.052   5.932  13.726 -0.0067  0.2891 -0.2159
31644W        W47113  17.578   4.515  15.085  0.0314  0.3804 -0.2093
31645W        W47114   3.829  16.464  12.126 -0.0310  0.0138 -0.1501
31646W        W47115   8.874   4.997  10.606  0.1904  0.0123  0.1247
31647W        W47116  17.626  10.458  12.697  0.1448 -0.0186  0.3357
31648W        W47117  17.616  17.142   4.736 -0.0525 -0.3895  0.0365
31649W        W47118   8.649   3.056   2.895  0.0673 -0.0751 -0.0329
31650W        W47119   9.155   0.440  13.479 -0.1515  0.0135  0.0418
31651W        W47120   5.213   5.488  13.135  0.0403 -0.0029  0.0306
31652W        W47121   2.250  18.213  11.769 -0.3274 -0.4807  0.0449
31653W        W47122   8.364   7.000   2.180  0.1145 -0.0404 -0.0157
31654W        W47123   5.228   1.745   0.419  0.2622 -0.0077  0.2115
31655W        W47124   1.394   3.105  14.987  0.1680 -0.2536 -0.0684
31656W        W47125  10.307  16.706  13.577 -0.2518 -0.0009 -0.2578
31657W        W47126   5.756   6.239   0.748 -0.3034 -0.2482 -0.3769
31658W        W47127   3.839  10.635  14.439  0.1016  0.2400 -0.2429
31659W        W47128  10.620   8.134   0.008  0.0644  0.0246 -0.1417
31660W        W47129  12.243  17.577   5.785  0.0677  0.1033 -0.0840
31661W        W47130   5.330   1.079   4.564  0.1703 -0.0255  0.2135
31662W        W47131   7.981  17.408  13.028  0.4240 -0.0582  0.3273
31663W        W47132   1.270   1.261   2.229 -0.1702 -0.0910  0.1025
31664W        W47133   4.995   1.930  12.228  0.3116 -0.3990  0.0052
31665W        W47134  11.483   7.263   0.696 -0.1015  0.1984  0.0609
31666W        W47135   0.635   3.427  11.253  0.1047  0.0434  0.0942
31667W        W47136  18.128  12.173  13.829 -0.1406  0.0263 -0.2835
31668W        W47137  18.159  14.489  15.274 -0.0754 -0.1667  0.1788
31669W        W47138  14.107  17.798  12.980 -0.1311  0.5036 -0.1391
31670W        W47139   2.994  17.306  15.212 -0.2680  0.1412  0.2785
31671W        W47140  12.216   8.737  11.262  0.0982  0.0379 -0.1752
31672W        W47141  14.026   6.141   0.105 -0.1497  0.1719  0.0142
31673W        W47142  15.334  11.922   4.271  0.2199  0.2192  0.2232
31674W        W47143   3.609   2.901   4.426 -0.2739  0.0338 -0.4363
31675W        W47144  14.784   0.872  12.543 -0.3127 -0.0804 -0.2009
31676W        W47145  17.709   9.301   2.640 -0.0202  0.2828  0.1664
31677W        W47146   2.119  16.694  12.941  0.1130 -0.1810 -0.0327
31678W        W47147   9.995   3.441   3.001  0.1812 -0.1646  0.2440
31679W        W47148  15.404   8.311   0.044 -0.1486 -0.4091 -0.2015
31680W        W47149  18.059  14.079  15.016  0.0982 -0.2328 -0.1356
31681W        W47150   5.669  13.787   3.634 -0.3981  0.0062 -0.0515
31682W        W47151  14.936  10.036  11.637 -0.1556 -0.0271  0.2687
31683W        W47152  12.210   3.233   3.735  0.1075  0.0118  0.3139
31684W        W47153   6.319   1.766   4.014  0.0440 -0.0782  0.1357
31685W        W47154  14.538  10.121  14.694  0.0536 -0.1490 -0.0248
31686W        W47155   7.947  12.039   1.182  0.0267 -0.2564  0.1006
31687W        W47156   0.436  17.802   0.660  0.0135  0.0064  0.0766
31688W        W47157  14.414  11.880   0.744 -0.0537  0.0645 -0.1704
31689W        W47158  12.560   6.863  10.915 -0.1724 -0.0325 -0.0286
31690W        W47159  11.524  10.285  15.079  0.1604  0.1320 -0.2505
31691W        W47160  15.914  10.763  11.974  0.2932 -0.2023  0.0182
31692W        W47161   5.483  14.318  13.421 -0.1293  0.0742 -0.0519
31693W        W47162   0.441  14.549  10.911  0.0475 -0.4164 -0.2271
31694W        W47163   7.918  13.644   1.763  0.0831 -0.2816 -0.1263
31695W        W47164   5.380  16.911   0.956  0.1695 -0.2296 -0.2888
31696W        W47165   3.058  18.677  12.688  0.0393 -0.1363 -0.1838
31697W        W47166   7.240   8.388   3.811  0.0302  0.0025 -0.1193
31698W        W47167  12.841   0.720  12.627 -0.1129 -0.1223 -0.1830
31699W        W47168   6.403  14.657   2.577  0.0880 -0.0404  0.1045
31700W        W47169   1.599   3.331   2.321  0.4572 -0.0084  0.1598
31701W        W47170  14.283  17.030   2.253 -0.0697  0.0916 -0.3376
31702W        W47171   2.350  16.503  13.349 -0.2373 -0.0602 -0.0633
31703W        W47172  10.335   9.269  10.858  0.1250  0.1211  0.2708
31704W        W47173  11.077   6.581  10.046  0.2640  0.0296 -0.0396
31705W        W47174   9.768  10.808  12.266  0.2443  0.2273  0.1813
31706W        W47175  16.948   7.360  10.714 -0.0573 -0.2407  0.0456
31707W        W47176   7.934   6.690   4.451  0.0666 -0.0045  0.0114
31708W        W47177  16.425  14.346   3.310  0.0594 -0.0218 -0.0013
31709W        W47178   3.422   7.069  12.842  0.1403  0.2031 -0.1446
31710W        W47179   4.531   2.111   2.866 -0.1882 -0.0006 -0.2446
31711W        W47180  12.479  14.044  15.089 -0.0169  0.1183 -0.0143
31712W        W47181   8.744   1.636  13.205  0.1962 -0.0457 -0.0533
31713W        W47182  15.283  16.662  15.046 -0.2964  0.1754 -0.1413
31714W        W47183   4.609   6.839   0.485  0.1530 -0.3030  0.1478
31715W        W47184   4.755  15.271   2.951  0.2755  0.4401  0.0700
31716W        W47185  12.085  13.608  11.524  0.1404  0.2329 -0.1741
31717W        W47186  15.705   3.954   2.593  0.2066  0.0671  0.1962
31718W        W47187  13.872  14.905  11.442 -0.0285 -0.3128  0.0824
31719W        W47188   3.976   5.253   1.730 -0.0719  0.0928  0.0577
31720W        W47189   6.475   6.749  13.104 -0.0540  0.2054 -0.1896
31721W        W47190  13.845   5.073  13.545  0.0426  0.0842  0.3254
31722W        W47191  12.249  17.419   3.061  0.5540 -0.0800 -0.1520
31723W        W47192   0.141   1.242   3.181  0.0701  0.1259  0.0412
31724W        W47193  11.009  10.822   4.899 -0.1372 -0.1471 -0.1412
31725W        W47194   5.482   5.045  11.846 -0.0491  0.0038 -0.2207
31726W        W47195   8.178  15.984   0.448  0.2616  0.1555 -0.0530
31727W        W47196   8.237   4.279  14.159  0.2617 -0.1086  0.1410
31728W        W47197  16.900   4.779  14.354  0.5127  0.1248  0.0863
31729W        W47198  11.198  14.023   4.342  0.1840 -0.1649 -0.0171
31730W        W47199   3.248   9.004  10.902  0.0333  0.0362 -0.1231
31731W        W47200   1.413   1.991  13.299 -0.1981 -0.0948  0.0757
31732W        W47201  15.485  12.404   3.146 -0.3248 -0.2362 -0.2209
31733W        W47202  12.241  17.683  11.933  0.0101  0.3156 -0.2776
31734W        W47203  13.455  18.045  10.579  0.3119  0.2592 -0.0260
31735W        W47204   1.105   9.479   2.736 -0.1919 -0.2206 -0.3906
31736W        W47205   7.125  14.859  10.428 -0.1438  0.0692  0.1417
31737W        W47206   9.959   2.523   3.039  0.1584  0.2207  0.3081
31738W        W47207   5.604   9.067   1.777  0.4130  0.0109 -0.1737
31739W        W47208  13.328   5.975  11.553 -0.0076 -0.1803 -0.2427
31740W        W47209  16.790   8.604  14.412 -0.1004  0.1948  0.0367
31741W        W47210  14.200   1.018  11.204 -0.1540  0.1307 -0.2237
31742W        W47211   4.136   9.028  14.990  0.1566 -0.1221 -0.1692
31743W        W47212  15.357  12.527  12.005  0.1500  0.0055  0.0122
31744W        W47213  16.656  13.674  12.094 -0.1953  0.0254 -0.1678
31745W        W47214   7.400  15.339   0.365  0.3851  0.0771  0.1658
31746W        W47215  11.790  15.126  12.819 -0.0216 -0.1231 -0.0844
31747W        W47216   3.474   8.436  10.838  0.3022 -0.3251  0.0722
31748W        W47217  17.062   5.166   9.529 -0.0850 -0.1061 -0.2025
31749W        W47218  15.934   2.744  12.437 -0.0978  0.0905  0.0627
31750W        W47219  14.041   6.677   1.514  0.2216 -0.2146  0.2450
31751W        W47220  14.618  17.912   1.593 -0.2410 -0.1409  0.2679
31752W        W47221  16.068  11.835  14.959  0.0648  0.4430 -0.0924
31753W        W47222  13.569   7.148   1.906  0.5399 -0.1307 -0.2418
31754W        W47223   4.941   3.766   0.824 -0.0813 -0.4631 -0.1542
31755W        W47224  14.085  12.930   5.006  0.2675 -0.0492  0.0680
31756W        W47225   6.687  11.808   2.234  0.4231 -0.0557  0.1825
31757W        W47226  11.290   6.020   3.361  0.2972 -0.0233 -0.2293
31758W        W47227   8.869   5.277   1.176 -0.1649 -0.0111 -0.1918
31759W        W47228  14.085  16.912  11.784  0.0461 -0.2853  0.1077
31760W        W47229  17.965   0.734  11.857  0.3505 -0.0823 -0.0964
31761W        W47230  17.360   2.763  14.758 -0.0994 -0.2761 -0.1824
31762W        W47231  16.589  17.134  13.949  0.2153  0.2626 -0.3916
31763W        W47232   4.091   1.306  13.816 -0.0161 -0.4079 -0.0696
31764W        W47233   0.626  12.272   6.090 -0.0012 -0.1181  0.0361
31765W        W47234   7.734  18.588  11.770 -0.0524  0.0201  0.2564
31766W        W47235   1.787  16.224   3.729 -0.0831  0.0679  0.0816
31767W        W47236   1.290   2.488  13.200  0.0979 -0.0834 -0.1535
31768W        W47237  12.737  18.986   3.469  0.1171 -0.2005 -0.2757
31769W        W47238  12.445  16.753   1.395  0.1869  0.0492 -0.0089
31770W        W47239   1.676   5.590   4.115 -0.0729 -0.1463  0.4933
31771W        W47240  17.719   5.518  15.199 -0.1903 -0.0017  0.1512
31772W        W47241   2.880   2.722  12.982 -0.0675 -0.3379 -0.0972
31773W        W47242  12.046   7.953   5.314  0.0944  0.2851  0.1433
31774W        W47243   5.433   0.756   1.321  0.2301  0.0339 -0.1438
31775W        W47244   7.231  15.912   2.826 -0.1886 -0.3591  0.2545
31776W        W47245   7.214  10.808   1.531  0.1289  0.1532  0.0473
31777W        W47246   2.448  18.693   3.863  0.3015 -0.1262 -0.1371
31778W        W47247   3.546   0.873  11.446 -0.2997  0.1486 -0.3002
31779W        W47248   9.958   0.941  15.004  0.1148  0.1397  0.1191
31780W        W47249   4.414  18.251   3.272 -0.0217 -0.1339  0.2386
31781W        W47250   6.382   9.787   3.337 -0.0580  0.1239  0.0473
31782W        W47251   6.087  16.937  11.010  0.1770  0.0640 -0.1256
31783W        W47252  15.913   7.250  14.156  0.1712  0.0577  0.2189
31784W        W47253   9.434  15.090   4.007 -0.0584  0.0792  0.0687
31785W        W47254   0.359   4.668   1.084 -0.2422 -0.2245 -0.1152
31786W        W47255  13.128   8.613  14.142 -0.0677 -0.2497  0.1430
31787W        W47256  12.740  18.724   1.479  0.0360  0.3903 -0.0922
31788W        W47257  11.103  11.710   0.632 -0.2073 -0.0044 -0.0286
31789W        W47258  14.716  12.889  10.322  0.0249 -0.0727 -0.0558
31790W        W47259  17.358   8.845  12.661 -0.1031  0.0706 -0.1597
31791W        W47260  10.805   9.724  13.499 -0.2580 -0.1244 -0.0408
31792W        W47261   6.370   9.479  11.191  0.0808 -0.1030 -0.0370
31793W        W47262   0.021  13.225   0.130  0.3343  0.2832  0.4453
31794W        W47263  13.864  15.136   1.404 -0.1614 -0.0613  0.1400
31795W        W47264   4.126  15.435   3.414 -0.0706  0.2383 -0.1730
31796W        W47265  14.610  17.864  11.162 -0.4601  0.1831 -0.2083
31797W        W47266   2.419   1.378  13.616  0.0382  0.0698  0.0112
31798W        W47267  17.675  15.060   5.728  0.0627  0.1430  0.1178
31799W        W47268   7.267  15.450   3.921  0.1776 -0.1607  0.1439
31800W        W47269  11.718   9.546   0.550 -0.3233  0.0916  0.1523
31801W        W47270  12.083   7.460   9.624  0.0349 -0.0460 -0.1799
31802W        W47271  16.016  16.699  13.468  0.0720 -0.0873  0.0860
31803W        W47272   6.583   3.126  13.691  0.3331  0.0023  0.1055
31804W        W47273   3.478   9.856   3.547  0.1280  0.1921  0.3470
31805W        W47274   8.840  15.213  14.913  0.2776 -0.4109 -0.1112
31806W        W47275   2.370   5.143  10.735  0.2133 -0.5263 -0.3821
31807W        W47276  10.436   8.256   2.773 -0.1726  0.2884  0.3205
31808W        W47277  16.057  14.737   3.537  0.1493  0.1941 -0.4014
31809W        W47278   8.398   9.009  11.995 -0.1333 -0.1190  0.0844
31810W        W47279   0.417  16.079  13.998  0.2243  0.2633 -0.1554
31811W        W47280  17.232   7.598   0.458  0.2803 -0.1110 -0.1025
31812W        W47281   7.199  13.908  14.642  0.0198  0.1701  0.1647
31813W        W47282   1.460   7.843  12.625 -0.3552  0.0887 -0.0103
31814W        W47283   0.341   6.852   0.952 -0.1677  0.0275  0.1608
31815W        W47284   0.145  10.603  14.138 -0.0693 -0.1535  0.1492
31816W        W47285   7.289   5.474   1.228  0.0142  0.2993  0.0506
31817W        W47286  16.391  18.417  11.287 -0.1522  0.2551  0.1159
31818W        W47287   4.472   3.928   2.229  0.2120  0.0485  0.1255
31819W        W47288   2.597  14.647  13.707  0.0495  0.0505 -0.1395
31820W        W47289  17.912   0.509  14.493 -0.0167  0.3089  0.0657
31821W        W47290   7.403  10.407   4.883  0.1148 -0.2280  0.2593
31822W        W47291   1.190  13.876  13.818 -0.4459 -0.4191 -0.2330
31823W        W47292   6.828   0.690   1.797  0.1201 -0.2284 -0.1918
31824W        W47293  14.051  18.675  14.873 -0.2049 -0.4062  0.1847
31825W        W47294   9.241   8.360  12.268  0.0171 -0.3062  0.0676
31826W        W47295   5.560  16.876  15.361 -0.0868 -0.1109 -0.0324
31827W        W47296   9.952  13.702   2.114  0.1801 -0.0358  0.1404
31828W        W47297  17.583   4.013  10.217 -0.0529  0.2951 -0.1186
31829W        W47298   6.107  18.889   4.603 -0.1251 -0.3047 -0.2040
31830W        W47299   0.181   9.648  14.447  0.1279  0.1615  0.1405
31831W        W47300  18.952  13.050   3.945  0.2589 -0.0269  0.0865
31832W        W47301   0.514  15.232  11.706 -0.0410 -0.2802  0.0646
31833W        W47302   0.449  10.496  12.572  0.1635 -0.0848  0.1400
31834W        W47303   8.869  12.700  12.895  0.2426  0.0366  0.0360
31835W        W47304  15.500   6.323   3.169  0.3341  0.0966 -0.1887
31836W        W47305   5.368   6.941   5.734 -0.0261  0.1288  0.1125
31837W        W47306  11.610  15.501   2.127 -0.0570  0.3073 -0.0464
31838W        W47307  14.039   5.060   3.030 -0.1007 -0.1793 -0.0851
31839W        W47308   4.166  17.894   2.547  0.0849 -0.0338 -0.1773
31840W        W47309   6.068  19.023  13.030  0.1393 -0.3488 -0.0546
31841W        W47310  18.378   0.275  14.377 -0.0883 -0.0508 -0.1269
31842W        W47311   6.088   0.244  11.702  0.2194  0.1438  0.1725
31843W        W47312  13.126   6.158   3.570  0.1222  0.0283 -0.0065
31844W        W47313   0.974   0.851   2.107  0.0881 -0.1695  0.1147
31845W        W47314   7.970  17.859  11.583 -0.2061  0.4068  0.2001
31846W        W47315   5.430  14.365   2.510 -0.2225 -0.0747 -0.1651
31847W        W47316  11.828  18.653  12.741  0.0651  0.1748  0.1591
31848W        W47317  13.454  13.211  10.781 -0.0911 -0.0865  0.2376
31849W        W47318   1.370  14.121  13.418  0.1285  0.1602  0.1471
31850W        W47319  13.892   4.207   3.597  0.2403  0.0978  0.2259
31851W        W47320  15.261   2.108   4.666 -0.3368  0.0157  0.0162
31852W        W47321   3.398  11.546   3.303  0.4361  0.2321 -0.2763
31853W        W47322  13.382   3.945   3.774 -0.0110 -0.1261 -0.0193
31854W        W47323   3.188   8.939  13.679  0.2204  0.1717  0.2929
31855W        W47324   0.863  16.042  13.682 -0.1730 -0.0788 -0.1044
31856W        W47325   8.448  11.188   2.229  0.2408 -0.1856  0.0519
31857W        W47326   1.052  16.812  13.236  0.0026 -0.0423 -0.1188
31858W        W47327  14.089  10.242   0.683 -0.1078 -0.4673 -0.0489
31859W        W47328  17.629  18.889  10.609  0.0254  0.2161 -0.0556
31860W        W47329   3.362  13.168   1.017  0.0015 -0.1446  0.0472
31861W        W47330  13.346  17.227   0.530 -0.0859  0.0645 -0.1274
31862W        W47331   1.094  12.555   2.661  0.0371 -0.1203 -0.0320
31863W        W47332   6.762  18.607   0.791  0.2193 -0.1410 -0.1921
31864W        W47333  13.787   5.582   1.024 -0.0911  0.0128 -0.1250
31865W        W47334  12.511  15.886   0.998 -0.0095  0.0607  0.0299
31866W        W47335   3.973  12.388   2.494  0.0548 -0.2179  0.3900
31867W        W47336  16.725   0.406  14.662 -0.2090  0.0448  0.1621
31868W        W47337  17.924   6.115   1.095 -0.1406 -0.0139  0.2074
31869W        W47338  14.490  17.055  12.786  0.2033  0.0707 -0.0630
31870W        W47339   5.768  17.121   2.908 -0.1580 -0.1087 -0.1648
31871W        W47340   3.545  10.296   1.341  0.0900 -0.0835  0.0528
31872W        W47341  16.089   5.879  15.066 -0.0380  0.4758 -0.0160
31873W        W47342  17.439  18.505  14.489 -0.2218  0.3134  0.1025
31874W        W47343   2.775  13.768   1.245  0.4345 -0.0282  0.0010
31875W        W47344  10.795  14.364   5.139 -0.3028  0.0825 -0.1047
31876W        W47345  14.124  18.532   3.662  0.1271 -0.1086  0.0020
31877W        W47346   0.390   7.563  11.479  0.1930 -0.1641 -0.0383
31878W        W47347   7.569  15.456  10.430  0.0501 -0.2169 -0.0724
31879W        W47348   1.370   8.912   3.721 -0.0764  0.1722  0.1476
31880W        W47349   3.191   4.431  14.811 -0.1311  0.1086 -0.1156
31881W        W47350  10.752   9.900   3.148 -0.0703 -0.2436  0.3719
31882W        W47351  10.580  15.058   1.877  0.3184 -0.4111  0.0750
31883W        W47352   4.763   0.332   2.772  0.4710 -0.1800 -0.3335
31884W        W47353   8.083   7.059  12.667 -0.1001  0.2125  0.3447
31885W        W47354   2.068  16.126   2.113 -0.1591 -0.0708  0.0917
31886W        W47355  17.785  13.886  11.799  0.0270  0.0493 -0.1421
31887W        W47356  13.527   3.196  11.192  0.0375 -0.0386 -0.1584
31888W        W47357  13.270  13.507   9.488  0.3114  0.2880 -0.1146
31889W        W47358  15.961   0.768   4.997  0.1250 -0.1838 -0.0460
31890W        W47359   6.746  10.385   2.301 -0.0126 -0.2871 -0.0776
31891W        W47360   5.638   8.476  13.032 -0.0567 -0.3267  0.1514
31892W        W47361   6.170   5.955   0.665  0.1340 -0.3475 -0.1001
31893W        W47362   7.410  12.726   0.479  0.2058  0.0709 -0.0014
31894W        W47363  12.212   4.833  11.882 -0.4702 -0.0772  0.0522
31895W        W47364   9.592   6.762   3.530 -0.2263  0.0665  0.1431
31896W        W47365  12.162   1.992  13.854  0.0703 -0.2326  0.4215
31897W        W47366   1.700  13.003  15.159 -0.0309 -0.0911 -0.1384
31898W        W47367   2.026  10.874  13.862 -0.3880  0.2739  0.0041
31899W        W47368  13.847   0.219   1.728  0.2946  0.1534  0.2197
31900W        W47369  17.421   2.379  10.091  0.1161  0.3035  0.2161
31901W        W47370   9.631   1.302   4.067 -0.1190 -0.0253  0.2235
31902W        W47371  12.365   2.953  14.898 -0.3785  0.2090 -0.0946
31903W        W47372   3.815  18.438  13.931  0.4919 -0.0435  0.1406
31904W        W47373  13.419   8.526   1.261 -0.3017  0.1904 -0.2671
31905W        W47374   1.022   5.090   4.954  0.4830 -0.2461  0.0349
31906W        W47375  17.685  16.774  10.739  0.0916  0.1514  0.2421
31907W        W47376  11.296   7.920   0.033  0.0775 -0.0489  0.0930
31908W        W47377   4.685   9.084   3.176 -0.1287 -0.4596  0.0974
31909W        W47378   7.701  11.814   3.957 -0.1471  0.0324  0.1967
31910W        W47379  10.095   9.207   4.183  0.1649  0.1040  0.0111
31911W        W47380  13.843  17.554  12.132  0.2115 -0.0565 -0.1151
31912W        W47381  18.396   4.474   4.806  0.2566  0.3618 -0.0564
31913W        W47382   3.183  14.879   5.025 -0.1488  0.0624  0.2313
31914W        W47383  17.530   7.902  11.274  0.1708 -0.2147  0.0376
31915W        W47384   8.028  14.433   4.364 -0.1324 -0.2087 -0.0091
31916W        W47385  14.482  18.727   1.899  0.2038 -0.2161 -0.2017
31917W        W47386   1.523  15.815   4.956 -0.4486 -0.4504  0.1526
31918W        W47387   7.592  13.791   0.793  0.1384  0.0843 -0.1833
31919W        W47388  15.577  16.638   0.316  0.1271  0.0891 -0.0075
31920W        W47389  17.450   9.092  13.945  0.2644  0.2538  0.2473
31921W        W47390  10.396  11.786  12.816 -0.2241 -0.2987  0.0566
31922W        W47391   0.444   7.629  10.503 -0.2215 -0.2362 -0.0337
31923W        W47392  14.783   1.005  14.790  0.1289 -0.0212  0.0652
31924W        W47393  15.363  17.484   4.216 -0.0047 -0.0086 -0.2916
31925W        W47394   9.230   5.894  13.392 -0.2383  0.1399  0.3712
31926W        W47395  18.721   9.976   3.607  0.2006 -0.0105 -0.3435
31927W        W47396  11.118  13.382  13.975  0.4403  0.5422  0.0605
31928W        W47397   7.658  17.333   2.022 -0.0273 -0.2998 -0.2443
31929W        W47398   7.560  17.497   9.911  0.2750 -0.1927  0.4155
31930W        W47399  16.126   5.249  10.489 -0.0056 -0.2341 -0.0842
31931W        W47400  16.687  14.727   5.342  0.1815  0.1167 -0.2094
31932W        W47401   4.268   5.978   0.019 -0.1082 -0.1318  0.1523
31933W        W47402   6.246   9.539   4.833  0.2659 -0.1820  0.0129
31934W        W47403   4.016  12.744  10.599 -0.0683  0.1822 -0.2538
31935W        W47404  10.958  16.522   2.491  0.0665 -0.3007 -0.0776
31936W        W47405  13.790  17.833   0.389  0.0920  0.0369  0.3537
31937W        W47406  18.597  18.953  11.124 -0.1004  0.0258 -0.1162
31938W        W47407   9.314   1.983   1.482 -0.1496  0.0701  0.0330
31939W        W47408   7.232  17.790   3.804 -0.1210 -0.2852 -0.1163
31940W        W47409   7.348   6.980   4.478 -0.2113 -0.2294  0.1196
31941W        W47410   2.196  17.358   0.966 -0.2059 -0.1168  0.2483
31942W        W47411  17.633  12.170   4.436 -0.0465 -0.1558  0.0654
31943W        W47412   2.684  16.890  12.958 -0.1627  0.2422 -0.3776
31944W        W47413  14.193  10.063  14.054 -0.2024 -0.0271 -0.0767
31945W        W47414   6.351   7.581  14.950  0.1865 -0.0890  0.1994
31946W        W47415  14.366  13.315   4.734  0.0248 -0.2684 -0.1307
31947W        W47416  13.951  16.176   1.059  0.0442  0.1959  0.1761
31948W        W47417   4.799   4.109   1.184  0.1921 -0.2796  0.0228
31949W        W47418   3.905  13.867  13.852  0.1297 -0.1720  0.2079
31950W        W47419   8.480  12.777   9.969 -0.2264  0.0286  0.0196
31951W        W47420   0.991  14.544   5.131 -0.0531  0.3093  0.0692
31952W        W47421  11.956  18.600   0.024  0.2030  0.0408  0.0653
31953W        W47422  18.438  18.606  14.404  0.0297 -0.5557 -0.1438
31954W        W47423  14.529   6.575  14.341  0.0396 -0.1990  0.1647
31955W        W47424  15.045  17.058   4.218  0.0658 -0.3418  0.0417
31956W        W47425  12.274   3.704   4.029 -0.0055  0.0135  0.1309
31957W        W47426   6.730  12.776   2.829 -0.1931 -0.3481  0.0329
31958W        W47427   6.918  14.027  13.039  0.0835 -0.2934 -0.0344
31959W        W47428  11.104  17.283  10.833  0.2961 -0.1792 -0.1539
31960W        W47429  18.645   4.131  12.893  0.2071  0.2881 -0.0459
31961W        W47430  10.326   4.769  10.871 -0.2410 -0.3903  0.2025
31962W        W47431   8.373   0.076  13.679 -0.1640  0.1039 -0.0896
31963W        W47432  14.216  13.363   0.587 -0.1446 -0.2990  0.1128
31964W        W47433   5.045   3.113  12.707  0.0120  0.4342 -0.1791
31965W        W47434   7.968   7.673   4.223 -0.0465  0.1103 -0.0370
31966W        W47435   7.490   7.833  15.305 -0.1137  0.1660  0.1119
31967W        W47436  14.165   8.800   5.074  0.1490 -0.0481  0.2685
31968W        W47437   0.942   4.712  13.044 -0.0080  0.1027  0.0699
31969W        W47438   5.972  19.002   0.463 -0.2442  0.4093 -0.1447
31970W        W47439   4.360  12.194   5.547 -0.1359  0.1385  0.0018
31971W        W47440  13.686  13.940  14.169  0.3077  0.3026  0.3090
31972W        W47441   5.506  15.712   4.104 -0.1025 -0.2906 -0.1938
31973W        W47442  13.291  17.898  11.429 -0.1632 -0.3417  0.1211
31974W        W47443   7.699  11.011  13.103 -0.1414 -0.0264 -0.0935
31975W        W47444  12.325  15.359   3.769  0.1666  0.1302 -0.1263
31976W        W47445   7.673  18.126   5.552  0.2725 -0.2228  0.2088
31977W        W47446   0.469   7.720  12.927  0.2970 -0.3003  0.0701
31978W        W47447  11.700   1.658   0.715  0.0155 -0.1534 -0.2420
31979W        W47448   0.287  16.599  14.981  0.0767  0.0345 -0.2125
31980W        W47449   6.845   9.522   4.480 -0.0448  0.4197 -0.0225
31981W        W47450  18.953  12.274  10.960 -0.1976  0.2576 -0.0260
31982W        W47451   7.765   5.580   1.392 -0.4053 -0.0351  0.0277
31983W        W47452   7.012   3.345  12.167 -0.2294  0.2622 -0.1057
31984W        W47453  17.200   8.617  11.715 -0.3366 -0.1247 -0.1692
31985W        W47454   1.280  16.698   3.256 -0.0565  0.1498  0.0169
31986W        W47455   8.137   6.896  14.761  0.2276  0.0696 -0.0016
31987W        W47456  16.493   9.309  14.932 -0.2791 -0.0002  0.3387
31988W        W47457   3.088  18.946   0.781 -0.2041 -0.1176 -0.0053
31989W        W47458  14.983   2.812   4.704 -0.3125 -0.1169 -0.1282
31990W        W47459  12.749  16.025   5.746  0.0338 -0.0528  0.3902
31991W        W47460  12.432   2.166   2.051 -0.1883  0.0854 -0.0543
31992W        W47461   6.349  16.112   3.742 -0.0027  0.1967 -0.1303
31993W        W47462   0.192   0.585  14.625 -0.0671  0.0736 -0.3536
31994W        W47463   1.869  14.022   1.022  0.2523 -0.1999  0.0850
31995W        W47464   2.634  11.575   1.302 -0.0716  0.0284 -0.4125
31996W        W47465  15.483   9.398   4.116  0.1083  0.2154 -0.1146
31997W        W47466  13.292  18.013   2.314 -0.1440 -0.1038  0.0777
31998W        W47467  11.790  10.443   4.738  0.1956 -0.0843  0.1344
31999W        W47468  12.472   0.345  13.220  0.0122  0.1737  0.1396
32000W        W47469  16.759  14.409  13.946  0.2671  0.3406 -0.0145
32001W        W47470  10.846  15.199   3.544 -0.0439 -0.1592 -0.0598
32002W        W47471  15.004   8.329  13.049 -0.0692 -0.1981  0.0217
32003W        W47472   4.311   7.617   4.520  0.1664 -0.1061 -0.1092
32004W        W47473   8.027  11.436   2.419 -0.0967  0.3802 -0.0304
32005W        W47474  16.830  10.839   0.036 -0.2696  0.1200 -0.1173
32006W        W47475   5.685  14.640  11.170  0.2365 -0.0832  0.1987
32007W        W47476   9.102  15.920   4.691 -0.1947 -0.1772  0.2306
32008W        W47477  14.886  14.151  12.135  0.0910  0.1420  0.2519
32009W        W47478  10.240  10.615   4.450  0.1474  0.4727 -0.1126
32010W        W47479  14.112  17.143   9.986  0.0692  0.4158 -0.0136
32011W        W47480  17.787   4.108  15.360 -0.0905 -0.0853 -0.1528
32012W        W47481  14.559  16.816   2.645 -0.1031 -0.0579  0.1593
32013W        W47482   8.154  13.063   4.206 -0.2089 -0.1796 -0.0762
32014W        W47483   0.541   5.036   2.749  0.0381  0.0340 -0.2384
32015W        W47484  15.872   0.498  15.168  0.0898 -0.2812  0.0476
32016W        W47485   8.799  17.640  14.165 -0.0848 -0.2848  0.1303
32017W        W47486   6.455   1.038   3.745 -0.1032 -0.2209  0.1521
32018W        W47487   7.965   1.941   4.137 -0.1446  0.0944 -0.2794
32019W        W47488   0.200   0.067   4.392 -0.2312  0.0809 -0.0555
32020W        W47489  11.766  14.721  14.409 -0.2452 -0.2014  0.2242
32021W        W47490  18.933  14.925   1.595 -0.2289  0.3461 -0.1234
32022W        W47491   4.999   1.667   3.624  0.2625 -0.0187 -0.1972
32023W        W47492  18.094   0.215   1.394 -0.0622  0.2325 -0.2483
32024W        W47493   4.794   2.270   5.079  0.0585 -0.2369  0.2557
32025W        W47494  11.385  15.814  12.441  0.0376  0.1807 -0.0448
32026W        W47495   4.554   4.613   1.432  0.1554 -0.2834  0.0075
32027W        W47496  15.995  18.055   3.909 -0.1960  0.0819 -0.1906
32028W        W47497  11.481  13.855   0.001  0.4508 -0.3853 -0.1971
32029W        W47498   4.653   3.241   1.603 -0.1280 -0.1272 -0.3116
32030W        W47499  10.000  14.112  13.488  0.0597 -0.3261 -0.0740
32031W        W47500  11.405   8.005   2.659  0.1932 -0.0037 -0.2634
32032W        W47501   0.730   8.956  14.759 -0.0798  0.1865 -0.0158
32033W        W47502   1.363   8.700   0.711  0.2298 -0.2267 -0.1673
32034W        W47503  18.053   9.420  10.665 -0.3602 -0.0887 -0.1195
32035W        W47504  16.574  16.400  10.599 -0.0737 -0.1901  0.2159
32036W        W47505  15.874  18.350   5.219  0.2842  0.0909 -0.0499
32037W        W47506  18.627   1.411  11.610  0.1976  0.0868 -0.1170
32038W        W47507   8.948   0.041   3.339 -0.2679 -0.3439 -0.1313
32039W        W47508   4.290  11.948  11.969  0.3045  0.1061  0.0035
32040W        W47509   3.763   3.108  11.268 -0.2677 -0.0731 -0.0940
32041W        W47510  18.649  14.300  11.950  0.0478  0.3446  0.0827
32042W        W47511   7.392  14.832   2.806  0.0049 -0.1995  0.1179
32043W        W47512  13.449   2.937  11.770 -0.1275 -0.0292 -0.1166
32044W        W47513  12.862   6.363   5.052  0.0756  0.2770  0.2166
32045W        W47514   3.927   8.364  13.826  0.0303  0.0537 -0.1224
32046W        W47515  12.294  13.488   3.014 -0.0123  0.0511 -0.2025
32047W        W47516   0.227  17.510  10.303  0.0581  0.5234  0.2207
32048W        W47517   8.003   8.012  12.293 -0.1007  0.4874 -0.1286
32049W        W47518   6.210   8.129  10.205  0.1560 -0.0399  0.2141
32050W        W47519   7.474   3.941   3.397  0.3276 -0.1094  0.1593
32051W        W47520   1.854  14.033   4.494 -0.2479 -0.0579  0.0297
32052W        W47521   2.496   0.016  13.156  0.2366  0.0026  0.3444
32053W        W47522  10.569   0.328   2.056  0.2240 -0.1471 -0.1053
32054W        W47523  16.529  13.947  12.543 -0.1230 -0.1188 -0.2269
32055W        W47524   9.767   9.823  12.831  0.1664  0.0675 -0.1061
32056W        W47525  12.955   4.199  14.724  0.0826  0.0743 -0.2865
32057W        W47526  13.855   6.811  13.490 -0.0192  0.0389  0.0664
32058W        W47527   5.590   9.004  14.974  0.1981 -0.1184 -0.0598
32059W        W47528   9.351   9.386  14.273 -0.1956 -0.1809 -0.2659
32060W        W47529   6.870  12.804  10.818  0.1600  0.3207  0.2162
32061W        W47530  15.224  15.457  12.200  0.1403 -0.4074  0.1467
32062W        W47531   0.537  13.951  14.443 -0.1900  0.1609 -0.2244
32063W        W47532   0.720  17.406  10.210 -0.3050  0.1480  0.1198
32064W        W47533  17.128  12.101  12.889  0.3132 -0.1451 -0.0429
32065W        W47534   1.907  11.785   3.179 -0.0334  0.1314  0.0851
32066W        W47535  10.900   5.792  13.121  0.3644 -0.3242 -0.0124
32067W        W47536  13.533   8.275  11.082  0.2954  0.5013  0.1735
32068W        W47537  10.577  15.909   3.927 -0.1470  0.1628  0.0928
32069W        W47538  18.677  10.276   0.786  0.0587 -0.0274 -0.2161
32070W        W47539   8.791  18.356   1.390  0.0125  0.2563  0.1794
32071W        W47540   8.300   5.727  11.037  0.0684 -0.1903 -0.0300
32072W        W47541  11.598  18.168   1.833  0.0178 -0.3453 -0.1665
32073W        W47542  18.781  12.851   3.444 -0.0156 -0.2316 -0.0921
32074W        W47543  17.937  12.394  12.408 -0.2836 -0.1063  0.2886
32075W        W47544   7.342   9.325   4.862 -0.0599  0.0033  0.0664
32076W        W47545   9.129   7.306  13.309 -0.0978  0.0382  0.0841
32077W        W47546   1.642  16.122  15.284  0.1021 -0.0617  0.0173
32078W        W47547  18.456  12.148   0.811  0.0732  0.4150  0.0832
32079W        W47548  11.382   7.825  13.112 -0.3446 -0.1098 -0.0443
32080W        W47549   8.988   4.081   4.934 -0.1134  0.2012  0.1474
32081W        W47550  15.940   3.762  12.541  0.0044  0.3545  0.2073
32082W        W47551   6.612   8.436  11.110  0.1272 -0.1272 -0.0377
32083W        W47552   1.339   7.373  11.789  0.0245 -0.1729  0.1008
32084W        W47553  18.142  13.860   2.594  0.0275  0.0063 -0.1195
32085W        W47554  12.706   9.921  14.032 -0.4433 -0.4283  0.1397
32086W        W47555  14.291   9.219  13.357 -0.1036 -0.0587 -0.1314
32087W        W47556  16.552   0.202   4.377  0.3245 -0.1257 -0.0579
32088W        W47557   7.027   9.276  12.536  0.2547 -0.0568  0.0483
32089W        W47558   5.076   2.353   1.098  0.0631 -0.0570 -0.1630
32090W        W47559   2.543   2.206  13.820  0.0515  0.1914  0.1764
32091W        W47560   3.558  16.166  12.740 -0.0788 -0.0553  0.3596
32092W        W47561   1.391  12.954   9.615 -0.0987  0.3656  0.0303
32093W        W47562  12.540   3.751   1.743  0.4401  0.1225 -0.2371
32094W        W47563   6.435  16.563  14.692 -0.1098  0.1137 -0.0176
32095W        W47564   6.194   5.328  15.282 -0.0278 -0.3692 -0.2096
32096W        W47565   8.584   6.537  14.596 -0.1459  0.1490 -0.0167
32097W        W47566  11.346   6.106   5.009 -0.0382 -0.3678  0.0344
32098W        W47567   5.696   9.526  13.171  0.4600 -0.2146  0.1380
32099W        W47568   5.253  11.844   1.406 -0.0093 -0.1733 -0.1718
32100W        W47569  14.065   0.055   2.126 -0.2126  0.0724 -0.0749
32101W        W47570   7.415  12.418   2.308 -0.1978  0.0309 -0.0001
32102W        W47571  15.894  12.910   2.431  0.1013  0.0429  0.0451
32103W        W47572   5.976  17.665   1.004 -0.0110 -0.0905  0.4687
32104W        W47573   4.515  14.958   4.886 -0.1765 -0.3008 -0.0233
32105W        W47574   9.037   6.127   1.082  0.2524  0.0612 -0.0267
32106W        W47575  10.462   8.322   5.337 -0.0402 -0.0093  0.0294
32107W        W47576   2.507   1.678   3.484  0.0227 -0.0985 -0.1318
32108W        W47577  10.485   5.760   5.025  0.2567 -0.2046 -0.3900
32109W        W47578  11.411  10.282   1.049  0.1788 -0.0909  0.1564
32110W        W47579   1.422   1.821  14.396  0.2554 -0.2027 -0.0646
32111W        W47580  16.990  17.786   3.570  0.2204 -0.0400  0.0287
32112W        W47581  18.464   6.825  10.673 -0.1750 -0.0431  0.0965
32113W        W47582  12.992  15.970  11.602 -0.2824  0.0363  0.1888
32114W        W47583   9.964   9.200  13.679  0.2210  0.3905 -0.1750
32115W        W47584  14.730   2.143  11.847 -0.2091  0.0770  0.3291
32116W        W47585   4.622  11.606   3.506 -0.1488 -0.0076  0.2917
32117W        W47586  17.151   3.316  10.987 -0.1636  0.2768  0.0707
32118W        W47587  14.383   8.291   1.369 -0.0966 -0.0312 -0.0745
32119W        W47588   8.430  16.762  15.240  0.1607 -0.0994 -0.0353
32120W        W47589  12.293  10.230  13.347 -0.1645  0.3000  0.0360
32121W        W47590   3.645   6.238   4.440  0.2205 -0.3264  0.0397
32122W        W47591   2.054   5.594   1.249  0.0547 -0.0073 -0.1514
32123W        W47592  14.155  15.467   4.117  0.2170  0.0342 -0.0379
32124W        W47593  17.054  12.258  14.725 -0.0780  0.2158 -0.1020
32125W        W47594  11.832  17.976  11.605 -0.0268 -0.0602 -0.0217
32126W        W47595   8.240  12.192  10.999  0.2461  0.1018  0.3434
32127W        W47596   6.313  16.296   6.053 -0.2842  0.4613  0.0967
32128W        W47597   2.112   4.241   4.361  0.2257  0.0331  0.0219
32129W        W47598   7.776  14.857  12.129 -0.0698 -0.0421  0.2245
32130W        W47599   9.612   0.818   4.890 -0.0342 -0.1159 -0.0105
32131W        W47600   2.696   3.825   3.881  0.1536 -0.1211  0.4057
32132W        W47601   1.441  10.117   4.132  0.1382 -0.0612  0.0379
32133W        W47602  16.780   6.226   2.816  0.0332 -0.1555 -0.0111
32134W        W47603   2.626  15.898   2.060 -0.0278  0.1159  0.0521
32135W        W47604   9.595  12.153   2.624  0.1107  0.0024 -0.1527
32136W        W47605   6.376  13.878  10.619  0.1206 -0.1256  0.0136
32137W        W47606   8.046   4.050  10.334 -0.1747 -0.4075 -0.1478
32138W        W47607   7.241  18.899  10.827  0.1253  0.1258 -0.1846
32139W        W47608   3.614   2.670  11.993 -0.0006 -0.1471 -0.4010
32140W        W47609   6.228   7.529  14.051 -0.0223  0.5099  0.2779
32141W        W47610  18.927   6.475  11.908  0.0730  0.0061  0.0029
32142W        W47611   4.953  18.431  12.037 -0.1047  0.0344 -0.2337
32143W        W47612   3.836   6.557   0.503  0.1089 -0.1776 -0.2320
32144W        W47613   4.582   4.030   0.513 -0.1840  0.0570  0.0612
32145W        W47614   8.418   3.053   5.081  0.0559 -0.0860  0.1582
32146W        W47615   0.057  15.507   4.145 -0.3202  0.1059 -0.1779
32147W        W47616  16.954  16.764  11.239 -0.0656  0.0433 -0.1254
32148W        W47617   1.179  11.132  13.399 -0.3108  0.0221 -0.3224
32149W        W47618  12.113   1.925   3.521  0.1304 -0.1212  0.1938
32150W        W47619  10.396  13.095  12.011  0.0811  0.1500  0.1105
32151W        W47620  15.401   6.158  14.399  0.0604  0.4437  0.0279
32152W        W47621   1.309  10.435  15.109  0.3284 -0.0057 -0.0218
32153W        W47622   6.361  10.093   0.995  0.0996  0.4800  0.3051
32154W        W47623  17.888   9.885  10.557  0.0348  0.0008 -0.2866
32155W        W47624   5.768  14.959  12.315  0.0590  0.2352 -0.0333
32156W        W47625   7.940  14.328   9.824 -0.0368 -0.0937  0.0453
32157W        W47626   0.839   5.941   5.062  0.0490 -0.1649 -0.2939
32158W        W47627   6.307  14.463   4.243  0.2046  0.1194 -0.0457
32159W        W47628   8.161   6.953  12.039 -0.1976  0.0415 -0.2217
32160W        W47629  16.381  14.892  14.742 -0.2360 -0.1125  0.1664
32161W        W47630  12.540   8.294  13.613  0.2418  0.0311  0.4610
32162W        W47631   8.943  15.503   2.286  0.0422 -0.0506 -0.1475
32163W        W47632   0.931   3.198  15.271 -0.2201  0.0568  0.0154
32164W        W47633  16.076  15.226  11.048  0.3005  0.1031 -0.0010
32165W        W47634   9.297  18.204   3.549  0.3076 -0.0407  0.3211
32166W        W47635   2.228  17.754   4.029 -0.0425 -0.3660  0.1530
32167W        W47636  14.585  14.139  14.635 -0.0581  0.4526 -0.1190
32168W        W47637  14.511   1.177   9.815 -0.1542  0.0254 -0.2096
32169W        W47638  13.229   0.764   1.352 -0.2456 -0.0946  0.0314
32170W        W47639  11.533  18.221   3.957 -0.2744 -0.2566 -0.0446
32171W        W47640   8.662  13.113  15.036  0.0797  0.1318  0.3016
32172W        W47641   7.371  13.045   4.627 -0.0942  0.2766 -0.1127
32173W        W47642   9.538   4.300  10.473 -0.1732 -0.1715 -0.2086
32174W        W47643   0.729  13.610  13.872 -0.2135 -0.0893 -0.0649
32175W        W47644  14.654   6.380  14.896 -0.0280 -0.1637 -0.4926
32176W        W47645  17.841  10.131   4.989  0.3072  0.3022  0.2174
32177W        W47646  18.953  10.271  13.765 -0.0662  0.1206 -0.1325
32178W        W47647  11.008  15.011  11.454  0.1432 -0.0191 -0.1814
32179W        W47648  14.194  10.476  12.498 -0.0259 -0.0391  0.2816
32180W        W47649   7.407   1.039   5.706  0.2667 -0.2893 -0.1203
32181W        W47650  17.142  11.376  15.247 -0.0316  0.2447  0.3799
32182W        W47651   1.662   6.339   0.797 -0.0608 -0.0487  0.0849
32183W        W47652  17.182   9.723   0.020 -0.1523  0.0637  0.1483
32184W        W47653  10.012  14.529  11.137 -0.1432 -0.0446  0.2506
32185W        W47654   9.333   9.936  12.556  0.0210 -0.3940  0.1132
32186W        W47655   1.263   2.404  14.440 -0.2209  0.2718  0.2006
32187W        W47656  17.630   9.216   4.465 -0.0387  0.3104  0.0073
32188W        W47657  11.886  13.182   2.958 -0.1728 -0.0040  0.2785
32189W        W47658  11.928  17.526   0.242  0.2676 -0.1761 -0.0607
32190W        W47659   7.827  16.333  12.755  0.2556 -0.2479 -0.0023
32191W        W47660   7.141  14.603   0.979  0.0763  0.1650  0.1303
32192W        W47661   2.380   9.673   4.911 -0.0351 -0.3148 -0.0398
32193W        W47662   7.849  10.839  14.574  0.4182  0.2183  0.3397
32194W        W47663   1.649   5.582   9.518 -0.1153 -0.1462  0.0149
32195W        W47664   9.976   7.752  13.552 -0.0189 -0.0739 -0.3169
32196W        W47665   6.343  17.887   3.132  0.3897  0.1158  0.0614
32197W        W47666  12.172  15.275   0.545  0.0938 -0.0347 -0.2301
32198W        W47667  12.673  12.034  13.285  0.2328 -0.0077  0.2016
32199W        W47668  10.506   2.201   0.827  0.0535 -0.1339 -0.1726
32200W        W47669   4.658  10.444  13.345 -0.0946  0.1718 -0.0799
32201W        W47670   8.577   7.184   3.366 -0.0610  0.0225  0.0337
32202W        W47671   1.966   9.563  13.306 -0.0900  0.0261  0.4023
32203W        W47672  11.646  16.012   2.970 -0.1853 -0.0353 -0.3219
32204W        W47673  11.815   0.759   1.840  0.0243  0.0542 -0.0463
32205W        W47674  10.615  14.090  10.676  0.3120  0.0068 -0.3083
32206W        W47675  11.791   5.283  12.636  0.0184 -0.0513 -0.1761
32207W        W47676   5.219  17.941   5.053 -0.0309  0.3378  0.0824
32208W        W47677   2.366  17.466  13.466 -0.0604  0.0844 -0.0010
32209W        W47678  13.851  10.444  14.187 -0.3887  0.0893  0.4307
32210W        W47679  11.159  16.228  12.645 -0.1425 -0.0880 -0.1457
32211W        W47680   5.996  16.368  13.668  0.2635  0.0630 -0.0115
32212W        W47681  13.211  10.679   3.736  0.0447  0.1051  0.2261
32213W        W47682  11.586  18.170   5.056 -0.1456 -0.4641  0.1429
32214W        W47683  12.935   8.384  11.083  0.4838  0.1058  0.0930
32215W        W47684  10.548  11.010   3.183 -0.0171  0.2042  0.3357
32216W        W47685   2.822  15.188  13.139 -0.3133 -0.0295 -0.2707
32217W        W47686   1.363  11.862  10.841 -0.1731 -0.0911  0.0813
32218W        W47687   9.666  18.709   2.890  0.1220  0.2289 -0.2567
32219W        W47688  18.024   7.373   2.485  0.0321 -0.0863  0.0806
32220W        W47689   6.572   1.595  13.570 -0.0388 -0.2228 -0.1032
32221W        W47690  10.909  18.296   3.922 -0.1937  0.0372  0.0483
32222W        W47691  12.086  13.347  12.966 -0.0470  0.2261  0.0401
32223W        W47692   4.896   2.431  13.882 -0.2141  0.3748 -0.1261
32224W        W47693  17.552  17.509   0.644  0.0270 -0.2804 -0.0282
32225W        W47694  15.638   5.383   2.299  0.0729 -0.2960 -0.1586
32226W        W47695   2.832   4.208  12.815  0.2925  0.0329  0.0335
32227W        W47696   3.666   6.937  12.414 -0.2996  0.1302 -0.1396
32228W        W47697  13.824  17.851  14.364  0.1698  0.1087 -0.0300
32229W        W47698   2.061  16.282   4.260 -0.1422  0.1145 -0.2495
32230W        W47699  10.087   5.663   3.591 -0.3248 -0.0980  0.2092
32231W        W47700   7.586  18.717  13.089 -0.1013 -0.0622 -0.1366
32232W        W47701   2.514   3.598   0.894 -0.0054  0.1734  0.1587
32233W        W47702   8.389   3.932  11.673 -0.0951 -0.0483  0.0984
32234W        W47703  13.600  12.697  12.874  0.1822  0.1774 -0.4633
32235W        W47704  18.960  17.965  13.797  0.5573 -0.1291 -0.0533
32236W        W47705   3.705  16.057  14.770  0.1904  0.1349  0.1401
32237W        W47706   0.946   3.268  11.703 -0.1285 -0.3129  0.0116
32238W        W47707   1.536  10.507   4.739  0.1083  0.0244 -0.1684
32239W        W47708   4.336  12.410   0.362 -0.1070 -0.3329 -0.3230
32240W        W47709  15.421   2.674  12.431 -0.3616  0.1186  0.2161
32241W        W47710   5.635  16.032  13.299  0.2273 -0.1111  0.1067
32242W        W47711   0.674   6.316   4.629 -0.0334  0.1826 -0.1353
32243W        W47712   8.426   1.140   2.822  0.1908 -0.1295 -0.1451
32244W        W47713   4.545  17.080   2.053  0.0768 -0.1264 -0.0017
32245W        W47714  11.221  10.952  13.783 -0.0257  0.2823  0.4394
32246W        W47715  18.904   7.991  12.799 -0.2664  0.0924 -0.0753
32247W        W47716   5.219  16.948   9.813  0.1754 -0.2362  0.3013
32248W        W47717  16.296  12.052   4.670  0.1835 -0.0940  0.1996
32249W        W47718   3.440   9.954   3.074  0.0197  0.2830 -0.1694
32250W        W47719   8.055   4.789  12.660  0.1435  0.2662 -0.4697
32251W        W47720  13.550  16.142  12.768  0.0924  0.1944  0.2496
32252W        W47721   2.884   6.560  11.922 -0.1306  0.1103  0.1379
32253W        W47722  15.872  12.439   1.894 -0.0176  0.3010  0.0571
32254W        W47723   5.963  13.017  10.854  0.0133 -0.0304  0.0508
32255W        W47724   0.832   1.481  15.025 -0.0710 -0.1959  0.0128
32256W        W47725   6.993   2.105  12.554  0.1736  0.0120 -0.1014
32257W        W47726   0.522  11.743  13.602 -0.2891  0.5010 -0.0214
32258W        W47727  17.704  14.370   3.894  0.1599 -0.0411  0.4072
32259W        W47728   8.320   1.961   6.308  0.0745 -0.0394  0.0096
32260W        W47729  11.418  10.659  11.974  0.0651 -0.0883  0.1152
32261W        W47730  11.823   3.146  15.020 -0.0222 -0.1450 -0.2633
32262W        W47731   8.600   9.389   3.063  0.1939  0.2736 -0.2866
32263W        W47732  19.025   0.143   2.489  0.0922 -0.1706 -0.0517
32264W        W47733  10.072   7.860   4.190 -0.0765  0.0512  0.1519
32265W        W47734   5.504   3.400   4.164  0.0252 -0.0270  0.3689
32266W        W47735  10.261  18.971   2.261  0.0116 -0.1162  0.0679
32267W        W47736  16.199   1.968   2.309 -0.2408 -0.1668 -0.0584
32268W        W47737  12.391   4.974  13.274 -0.2229  0.1420 -0.0068
32269W        W47738   0.082   9.629   4.225 -0.2643 -0.1282  0.0137
32270W        W47739  12.208  16.326  13.199  0.2009 -0.3568  0.0499
32271W        W47740  16.137   4.544  11.659 -0.3210 -0.1030 -0.1661
32272W        W47741   0.794   7.916   4.186  0.1984 -0.2518  0.1946
32273W        W47742  10.488  16.546  11.016 -0.0073  0.3484  0.1641
32274W        W47743   1.669   2.244   1.270  0.0438 -0.0265  0.1191
32275W        W47744  10.087  14.334   2.671  0.0006  0.2668 -0.2971
32276W        W47745  15.946   3.762   5.158  0.0771  0.1986  0.1037
32277W        W47746   2.146   3.877   2.726  0.1910  0.2632 -0.1240
32278W        W47747  13.431   9.261   1.193  0.0253 -0.1698  0.2270
32279W        W47748  12.075  18.338   2.072 -0.1754  0.0179 -0.0457
32280W        W47749   1.725   0.399  14.130  0.3377 -0.0446 -0.0005
32281W        W47750   0.139   3.077   1.614  0.0422  0.1138  0.1060
32282W        W47751  10.912  13.393   2.008 -0.2509  0.1858  0.0764
32283W        W47752  14.243  17.518   0.210 -0.2765 -0.0151 -0.0056
32284W        W47753  11.867   0.573   5.157 -0.0423 -0.0467  0.0947
32285W        W47754   1.122   7.313   1.758 -0.1344  0.1348 -0.2904
32286W        W47755   3.761   7.685  12.227 -0.0291  0.0805 -0.0575
32287W        W47756   5.203  10.347   3.497 -0.0197  0.3491  0.2161
32288W        W47757   9.932   5.619  12.987  0.5235  0.0218 -0.0789
32289W        W47758  13.495  17.586  14.113  0.1556 -0.1193  0.2252
32290W        W47759   6.274   4.458   1.441  0.0078 -0.0330 -0.0057
32291W        W47760   2.234  10.061  14.460 -0.2950  0.2546  0.0942
32292W        W47761  14.943  10.715   0.661 -0.1670  0.0417 -0.0090
32293W        W47762   5.229   1.621  14.363 -0.1728 -0.0955 -0.2230
32294W        W47763  10.397  18.942   3.475 -0.2042  0.3419  0.0507
32295W        W47764   1.208  11.216  13.922  0.1672  0.2810  0.0513
32296W        W47765   1.935   5.077   2.859  0.0076  0.1140  0.0301
32297W        W47766   1.355  16.118  11.202 -0.0232 -0.2281 -0.2937
32298W        W47767   8.555  17.199  13.013 -0.0396  0.1502  0.2847
32299W        W47768  12.517  14.283   1.879  0.1693  0.3788 -0.1812
32300W        W47769   2.968  10.360  10.907 -0.3203 -0.3024  0.0324
32301W        W47770  17.020  10.423  14.231  0.2582 -0.0389  0.1668
32302W        W47771  15.984  16.929   1.444 -0.2162 -0.1460 -0.0632
32303W        W47772  14.558  14.517   3.673  0.0992 -0.0173 -0.2397
32304W        W47773   7.664   7.966   4.562 -0.4412 -0.1029 -0.0007
32305W        W47774   8.776  15.418  14.058  0.0514  0.2769 -0.0572
32306W        W47775   8.485   0.458   5.617  0.0138  0.0783 -0.3114
32307W        W47776  18.417  14.034   1.737 -0.1493 -0.0762 -0.2359
32308W        W47777  15.811  12.805  11.229  0.3002 -0.0147 -0.2816
32309W        W47778  10.455   0.250  15.051 -0.1170  0.0882 -0.4231
32310W        W47779  11.509   6.429  13.175 -0.0382  0.0520 -0.2928
32311W        W47780   5.214   3.935   4.100  0.1344  0.2560 -0.0363
32312W        W47781   5.632  15.144  13.594  0.1146 -0.1498 -0.1700
32313W        W47782   8.562   8.216  14.797 -0.0612  0.1271 -0.0166
32314W        W47783   7.070   1.741   5.095  0.3203 -0.0362  0.0779
32315W        W47784   1.227   6.108  11.229  0.0864  0.3833  0.0192
32316W        W47785  11.914  10.470  14.732  0.2235 -0.0376  0.3675
32317W        W47786   3.264  16.697   5.769  0.3462  0.0851 -0.0930
32318W        W47787  12.337   9.645   3.478 -0.4283  0.0686 -0.1152
32319W        W47788   1.565   9.636   0.597  0.4832  0.1934  0.2649
32320W        W47789  11.461  14.878  13.320  0.1719 -0.2965 -0.0752
32321W        W47790   4.307   0.155  14.322  0.0909  0.1561 -0.0254
32322W        W47791  10.023   0.322   3.528  0.2196  0.2153 -0.0323
32323W        W47792   7.355  17.036  12.297 -0.1284  0.2929  0.2436
32324W        W47793  15.018   6.375   3.382  0.0703  0.0232 -0.0249
32325W        W47794   7.622   8.506   1.469  0.1771 -0.2044  0.2530
32326W        W47795   9.479   7.729  10.611  0.0487 -0.1008  0.1079
32327W        W47796   2.581  17.558   0.629 -0.2697  0.0695  0.3464
32328W        W47797   0.797   5.130  12.505 -0.0839  0.0454  0.0083
32329W        W47798  10.984   1.744   1.156 -0.3722 -0.0366 -0.1511
32330W        W47799  16.577   9.725  14.677 -0.0381  0.0840 -0.3024
32331W        W47800   0.485  11.545  15.186 -0.1444  0.0042  0.0734
32332W        W47801  16.658  12.246  13.197  0.0868  0.1362 -0.1472
32333W        W47802   8.937   3.210  11.834  0.0359 -0.2410  0.0663
32334W        W47803   8.911   0.358   0.714  0.1290 -0.1912 -0.2629
32335W        W47804   8.280  18.640  12.765  0.2781 -0.0232  0.1753
32336W        W47805   7.386   1.579   2.677  0.0356  0.0129 -0.0957
32337W        W47806   6.692   1.416   5.216 -0.2361  0.0873  0.2995
32338W        W47807   5.668  15.500  13.180 -0.0629 -0.0925 -0.2680
32339W        W47808   0.917   5.678   1.563 -0.4840 -0.1150  0.0452
32340W        W47809   2.912  13.191  10.933 -0.1761  0.0699  0.1057
32341W        W47810  17.223  11.299   5.216  0.2953 -0.0575 -0.1001
32342W        W47811   5.864   6.959   2.823  0.5188  0.2660  0.3368
32343W        W47812  17.434  11.426  14.306  0.1585  0.1092 -0.1619
32344W        W47813   0.473  10.015   2.103 -0.2286 -0.1172 -0.0286
32345W        W47814  10.227   1.315  10.646 -0.0659  0.3104 -0.0099
32346W        W47815  13.152   7.280  10.684  0.1611 -0.0413  0.0456
32347W        W47816   7.696  17.533  14.271  0.0591 -0.2039 -0.0086
32348W        W47817   0.323   8.873   4.827 -0.0183 -0.3205  0.1220
32349W        W47818   2.615   3.572  14.564  0.1488  0.1363  0.1720
32350W        W47819   8.402   2.629   2.868  0.1210 -0.0754 -0.2455
32351W        W47820   7.590  15.339   2.866 -0.1465 -0.1449  0.1313
32352W        W47821  10.787  13.036   4.759 -0.0293  0.1533 -0.0327
32353W        W47822   5.936  16.476   0.251 -0.2172  0.0424 -0.0677
32354W        W47823   6.902   8.782  13.447 -0.0183  0.0829  0.1014
32355W        W47824   2.035  18.266  13.744 -0.4482  0.0483 -0.1581
32356W        W47825  18.328   7.454  14.038  0.2102 -0.0243 -0.3106
32357W        W47826  14.782  14.620   0.233 -0.0599 -0.1904  0.0724
32358W        W47827   4.805   3.584  12.619  0.2003  0.1044  0.0106
32359W        W47828   7.163   0.565   1.012 -0.2847  0.1139 -0.3851
32360W        W47829  15.032   4.852  11.048  0.1367 -0.0415 -0.0801
32361W        W47830   9.890  12.131  15.285 -0.2323 -0.6001 -0.0857
32362W        W47831  10.031  16.719   0.577 -0.1166  0.1952  0.2567
32363W        W47832  13.754   4.025   2.721 -0.0398  0.0663  0.1581
32364W        W47833   0.670  16.238   0.526 -0.0858  0.5675  0.1121
32365W        W47834  16.463   6.238  11.696 -0.0112 -0.0588 -0.0806
32366W        W47835  14.096  11.241   0.382 -0.2922  0.1691 -0.1977
32367W        W47836  12.534   3.415  11.753  0.1561  0.1508  0.3622
32368W        W47837   1.526  11.235   1.073  0.0714 -0.3081 -0.0954
32369W        W47838  10.690  10.165  12.418 -0.1302  0.0182 -0.2116
32370W        W47839   4.607  15.567  12.402  0.1529 -0.2566  0.3996
32371W        W47840   3.024   6.191   4.561 -0.0058  0.1440  0.0311
32372W        W47841  16.382  18.484   2.411 -0.0501  0.0221 -0.2104
32373W        W47842  15.831  12.165   9.756  0.0752 -0.2911  0.2380
32374W        W47843   0.965   8.547   1.656 -0.2730  0.1433 -0.1677
32375W        W47844   8.510   1.743   2.027 -0.0979 -0.1396 -0.1378
32376W        W47845  15.265  12.297  10.887  0.0907  0.1650  0.3804
32377W        W47846   4.585   2.668   5.368  0.0826  0.0447 -0.0488
32378W        W47847   7.716  16.959  12.757 -0.1312 -0.1024  0.1228
32379W        W47848   2.444   9.747  12.266  0.0079  0.1658  0.1576
32380W        W47849  17.408  16.245   0.210 -0.0821 -0.1041 -0.0858
32381W        W47850   0.843   4.071   5.757  0.3195  0.0054  0.1613
32382W        W47851  18.453   1.348   4.587  0.1057 -0.1138  0.1630
32383W        W47852   3.088   3.560   4.704  0.3964  0.0045  0.2400
32384W        W47853   5.795   4.210   2.520  0.0878 -0.0605  0.3201
32385W        W47854  13.037  17.869  14.507  0.0791 -0.0040  0.0518
32386W        W47855   0.440   5.736   5.482  0.0730  0.3009 -0.1274
32387W        W47856   1.341   9.416  14.015  0.0759  0.0327 -0.2719
32388W        W47857   5.645   7.219   0.653  0.0257  0.0959 -0.3157
32389W        W47858   3.812  17.752  10.400  0.0474  0.0970  0.1579
32390W        W47859  12.664   0.440  13.934  0.0333 -0.2453 -0.2626
32391W        W47860   8.502  14.507   5.960 -0.0176  0.1373 -0.1925
32392W        W47861  10.019  13.260   2.386 -0.0278  0.0321 -0.1282
32393W        W47862   7.130  11.279   9.531 -0.0345  0.1007  0.0835
32394W        W47863   4.830  18.801   1.614 -0.1563  0.0151  0.0449
32395W        W47864  13.883   5.450   4.895  0.4974  0.3388  0.2889
32396W        W47865   2.101   9.799  14.988  0.0208  0.0334  0.1684
32397W        W47866   8.163   7.009  10.845 -0.0246 -0.1406 -0.0378
32398W        W47867  14.329   7.963  10.685  0.0309 -0.0369  0.3971
32399W        W47868   4.955   0.346   4.161 -0.1219  0.0183 -0.1245
32400W        W47869  12.932   9.650   4.702 -0.2153  0.2249 -0.2710
32401W        W47870   8.621   8.106   0.791  0.1007 -0.0732  0.3568
32402W        W47871   5.070   4.377   5.400  0.0348 -0.2169  0.4893
32403W        W47872   2.304  11.635   4.410  0.2410  0.0411 -0.0260
32404W        W47873   1.500   5.139   5.621 -0.0520  0.0304  0.1285
32405W        W47874   6.949  10.927  10.560 -0.3394 -0.0725  0.1788
32406W        W47875   8.922   2.004  11.818 -0.3173  0.0470  0.1196
32407W        W47876   7.362  18.639  13.567  0.0487 -0.0118 -0.3358
32408W        W47877   6.700   8.184   1.724  0.0506  0.0928  0.1313
32409W        W47878   1.895   2.749  11.431  0.1906 -0.1300  0.0325
32410W        W47879  14.654  15.290  12.140 -0.0086  0.2327  0.2417
32411W        W47880   7.018  17.074   0.176 -0.2772 -0.0977  0.3155
32412W        W47881  15.796   0.298  12.749 -0.0788  0.0354  0.4995
32413W        W47882   6.698  11.781   5.563  0.0207  0.2488  0.1309
32414W        W47883  12.108   0.818  12.643 -0.2149  0.2074  0.0159
32415W        W47884   7.588   3.818  13.729  0.0854  0.0763  0.0455
32416W        W47885  13.583  15.744   0.230  0.0560 -0.0332  0.0948
32417W        W47886   5.409   1.396   9.926 -0.1090 -0.0624 -0.1189
32418W        W47887   9.293   4.071  12.097 -0.1075 -0.2979 -0.1130
32419W        W47888  16.650   8.431   4.329  0.3326  0.3969  0.2611
32420W        W47889  13.292   2.203  13.118 -0.2050  0.0188  0.0315
32421W        W47890   6.652   2.490   2.717 -0.1068 -0.1174  0.3970
32422W        W47891  14.706   9.962   1.321 -0.0311 -0.1237  0.0214
32423W        W47892  17.692  15.625   2.640  0.1761 -0.0335  0.0294
32424W        W47893   9.260  11.268  13.566 -0.0602  0.2733 -0.0778
32425W        W47894  10.865  10.521   1.078  0.1887  0.0491 -0.0337
32426W        W47895   0.588  12.971   5.247 -0.0048  0.0529 -0.0630
32427W        W47896  10.783  10.027  15.234 -0.0257 -0.2059  0.1693
32428W        W47897  14.013  11.254  13.782  0.0866  0.2130 -0.0492
32429W        W47898   6.119  11.692  14.233 -0.2980 -0.1310 -0.3132
32430W        W47899   6.770   6.678   5.755 -0.1507 -0.0312  0.1120
32431W        W47900  11.585  13.433  11.527  0.0505 -0.0941  0.2417
32432W        W47901  18.928   5.010  11.783 -0.1509  0.2000  0.0351
32433W        W47902  18.672   6.859  13.926  0.0139 -0.1365  0.2169
32434W        W47903  10.184  12.357   2.520  0.2386 -0.3526  0.0908
32435W        W47904  14.374  10.540  15.015  0.2449  0.1734  0.1458
32436W        W47905  13.257   4.353  13.573 -0.1783 -0.3679 -0.2294
32437W        W47906   6.114  18.818  14.396 -0.3200 -0.1366 -0.0255
32438W        W47907  15.916   7.411   4.313 -0.1622 -0.1943  0.2026
32439W        W47908   3.753  14.341  14.251  0.1039 -0.0818 -0.1847
32440W        W47909   2.768   1.573   3.050 -0.0730  0.1817 -0.2659
32441W        W47910   3.444  17.984  13.064  0.0877 -0.0710  0.1967
32442W        W47911   3.116  16.181   3.085  0.1607  0.0036  0.2371
32443W        W47912  10.894   9.754   1.821 -0.0893  0.1252  0.0390
32444W        W47913   2.136  10.259   3.371  0.1050  0.0505  0.0622
32445W        W47914  10.379   2.952  14.318  0.0332 -0.1243 -0.2591
32446W        W47915   4.301  10.229   3.562 -0.0292 -0.0716 -0.1069
32447W        W47916  11.914  18.980  11.347 -0.3359  0.1309  0.1316
32448W        W47917   6.618  17.900   4.798 -0.0877 -0.0744 -0.3066
32449W        W47918   4.197  10.161  13.262  0.1719 -0.1624  0.0918
32450W        W47919  11.340   1.625  14.163 -0.1462  0.0173  0.1118
32451W        W47920  12.575  15.583   5.499  0.0656 -0.6275  0.0533
32452W        W47921   9.859   4.984  13.125  0.0452  0.4949 -0.1827
32453W        W47922  11.425   0.567   2.162  0.0024 -0.2325  0.0078
32454W        W47923   7.608   4.659  14.741 -0.0950  0.0139 -0.0070
32455W        W47924  14.898   0.858  13.053  0.0126 -0.1006  0.1402
32456W        W47925  18.734  18.437  11.219 -0.1308 -0.0177 -0.1229
32457W        W47926   3.462  11.761  11.288  0.1629  0.1472  0.0092
32458W        W47927   1.160  17.318   4.166 -0.0652  0.1234 -0.0565
32459W        W47928   0.154   9.198  11.162  0.4223 -0.0341  0.0774
32460W        W47929   4.944  18.793   9.674  0.2464 -0.1969 -0.0373
32461W        W47930   7.916   3.660   2.911  0.0119  0.2172 -0.0128
32462W        W47931   4.902   6.963  13.066 -0.0901  0.0492 -0.0996
32463W        W47932  10.243  17.122   4.266  0.2414  0.0801  0.1811
32464W        W47933  17.366  10.791   5.854 -0.0470  0.0681 -0.0949
32465W        W47934   6.821   2.681   4.592  0.0846 -0.0414  0.1821
32466W        W47935   7.304   7.734  10.902 -0.3295 -0.1581 -0.0358
32467W        W47936   3.252   6.827  13.510  0.0054 -0.2756 -0.0203
32468W        W47937   4.691   2.035  12.722  0.2671  0.2283 -0.0570
32469W        W47938   8.226  16.573  13.414  0.3575  0.0205 -0.0328
32470W        W47939   1.250  17.621   0.796 -0.1894 -0.1897  0.2640
32471W        W47940  12.965  11.067  10.932 -0.1046  0.2511  0.0002
32472W        W47941  13.575   8.717   3.401 -0.0099  0.0984  0.0108
32473W        W47942   4.781  10.747  14.202 -0.0428  0.2481  0.0966
32474W        W47943   0.177   2.462   4.371 -0.4681  0.2898  0.1523
32475W        W47944  12.943   5.245   3.922 -0.0127  0.1717  0.0847
32476W        W47945   0.545   7.154  12.131  0.0391 -0.1845 -0.1422
32477W        W47946   0.200   3.010   4.088  0.0234 -0.4431 -0.1160
32478W        W47947   9.094   5.140  12.738 -0.0537 -0.2472 -0.2578
32479W        W47948   0.739  14.979   1.424 -0.4419  0.1358 -0.1296
32480W        W47949   3.558  15.771  13.499  0.2169 -0.1356 -0.1947
32481W        W47950  15.722   7.960  10.773 -0.0148 -0.1782 -0.1973
32482W        W47951   5.691  16.632   1.232  0.0452  0.0023  0.0362
32483W        W47952   4.336   6.540   0.115 -0.1111  0.0458  0.5125
32484W        W47953   2.299  12.434   4.930 -0.1131 -0.1865 -0.1263
32485W        W47954   1.174  11.097  12.105 -0.1178  0.2195  0.0507
32486W        W47955   0.744  10.724   2.578  0.1256 -0.1900  0.0658
32487W        W47956   3.416  14.444   5.320 -0.1011  0.1742  0.3283
32488W        W47957   8.205   7.004   5.070  0.0411 -0.3633 -0.0084
32489W        W47958  15.336   4.443  12.582  0.0629  0.0194  0.3366
32490W        W47959   3.735  15.272   1.665  0.1195 -0.0422  0.1236
32491W        W47960   4.379  16.457  10.648  0.4186  0.1155  0.1494
32492W        W47961   7.935   1.310  12.024  0.1074 -0.1725 -0.1906
32493W        W47962  15.821   9.426  10.935 -0.0500  0.4238 -0.0066
32494W        W47963   3.726   5.461  13.994  0.2028  0.0799  0.3071
32495W        W47964   6.601  11.353   2.488  0.3073 -0.2843 -0.1123
32496W        W47965  16.427  15.182   3.658  0.1965 -0.0847  0.1512
32497W        W47966   4.291  17.653  13.419 -0.3143  0.1499  0.0938
32498W        W47967   1.917  14.981  11.295 -0.1238 -0.1575 -0.1632
32499W        W47968  11.713  11.777   3.696 -0.0840  0.2013 -0.1807
32500W        W47969   1.002  17.530  13.387 -0.2986  0.1060 -0.2710
32501W        W47970   8.722  17.153   5.411  0.0742 -0.2349  0.3451
32502W        W47971  17.812   0.535   1.656 -0.1852  0.1670  0.2948
32503W        W47972  14.279   6.619   3.190 -0.1537  0.0411 -0.4597
32504W        W47973   2.583   0.505  12.889 -0.1389 -0.1665 -0.3101
32505W        W47974   4.559  11.083   3.399 -0.0259  0.1341 -0.1527
32506W        W47975  10.528   6.058  14.669  0.0425  0.1417  0.0361
32507W        W47976  12.317   3.116   5.251 -0.0184  0.1409 -0.2217
32508W        W47977  13.217   1.177  13.934  0.0018 -0.0683  0.1238
32509W        W47978  13.192  14.391  10.271  0.1440 -0.0752  0.2019
32510W        W47979   9.827   7.426   2.971  0.1434  0.0005  0.1707
32511W        W47980  11.467  11.232  14.617 -0.0416 -0.0964  0.0351
32512W        W47981  10.446   1.472  11.658 -0.1845 -0.0016  0.0650
32513W        W47982  10.162  12.538   5.016 -0.0775  0.2505 -0.1895
32514W        W47983  11.817   7.648   0.626 -0.1476 -0.1575 -0.1883
32515W        W47984   7.254   6.685  15.223  0.0213  0.1003  0.2134
32516W        W47985   7.252   0.291  14.217 -0.1935  0.1157  0.0197
32517W        W47986  13.982   1.570  10.389 -0.0027 -0.2669 -0.0329
32518W        W47987  17.604   3.112  13.701 -0.0888  0.0653 -0.0384
32519W        W47988  18.023  12.991   0.697 -0.0462 -0.0463  0.2084
32520W        W47989   5.918   2.114   3.281 -0.0521 -0.1109 -0.0452
32521W        W47990  12.906  11.804   0.921  0.0146  0.2131 -0.2407
32522W        W47991   6.511   4.657   0.393 -0.2971 -0.2244  0.5115
32523W        W47992   9.062   8.516   3.314 -0.2939 -0.0428 -0.5009
32524W        W47993   7.681   0.476   5.945  0.0149  0.0851  0.0627
32525W        W47994   2.288  18.519  13.338  0.1168  0.1620  0.1773
32526W        W47995  12.828   4.938   5.243 -0.2949 -0.2529  0.0017
32527W        W47996   6.277   2.260   4.114  0.0599 -0.2261  0.0666
32528W        W47997   8.828  16.042  14.707  0.2780 -0.0885 -0.1747
32529W        W47998  16.522   0.159  13.687 -0.0348  0.4999  0.1407
32530W        W47999   2.356   5.600   2.219 -0.2040  0.1500  0.1662
32531W        W48000  12.680   1.456   4.163  0.0358  0.0309  0.1011
32532W        W48001  12.906   7.758  11.025 -0.0035  0.0916  0.3523
32533W        W48002   2.547  17.988  13.469  0.3919  0.0152 -0.0522
32534W        W48003   7.888  13.210   0.137 -0.3451  0.2047  0.4375
32535W        W48004  14.010   4.552   1.399  0.1005 -0.0124  0.0797
32536W        W48005  10.556  10.466   3.197  0.0237  0.1589 -0.1803
32537W        W48006   9.052   9.829   1.229  0.0514  0.3217  0.3100
32538W        W48007  15.666  15.540   0.106  0.0433 -0.3718  0.2011
32539W        W48008  11.550   0.841  14.347 -0.2137  0.1993  0.2642
32540W        W48009   8.161  18.478   0.941  0.0505  0.2881  0.0101
32541W        W48010  13.023   6.020  10.650  0.2382 -0.0089  0.2713
32542W        W48011   1.525  10.353  12.946 -0.3015  0.0180  0.0946
32543W        W48012   4.473  12.515  14.833  0.0082  0.2785  0.2055
32544W        W48013  11.856  18.135  14.004 -0.2466  0.0261  0.0951
32545W        W48014   4.623  11.508   4.011  0.1922  0.0202  0.2334
32546W        W48015  18.020   7.502  14.612 -0.1891 -0.5211  0.2228
32547W        W48016  12.131   9.183  15.141 -0.1319 -0.3296 -0.3305
32548W        W48017   9.534  14.249   2.571 -0.0447  0.2870  0.1880
32549W        W48018  11.363   3.250  13.190 -0.0785 -0.1994 -0.1633
32550W        W48019   7.023  17.707   5.003  0.0311  0.3194  0.2831
32551W        W48020   7.216  17.849  14.712  0.1960  0.2209 -0.1276
32552W        W48021  17.483   4.682   1.605  0.0702 -0.2998  0.1414
32553W        W48022   5.131  11.990  14.614  0.0074  0.0974  0.1611
32554W        W48023   8.273  16.298   2.062 -0.0234 -0.1719 -0.1035
32555W        W48024   2.337   6.743   1.415 -0.2214  0.0180 -0.0597
32556W        W48025  18.878   5.434  13.681 -0.1057 -0.1073 -0.0064
32557W        W48026  17.428  15.957   4.961  0.0848  0.0873 -0.0840
32558W        W48027   6.541  15.357   2.120  0.2673  0.0055 -0.3592
32559W        W48028   5.812   1.632  11.210  0.1495 -0.0306 -0.3278
32560W        W48029   3.767  17.008   3.952  0.2463 -0.0534  0.0601
32561W        W48030  10.115  18.157   1.806  0.1255 -0.0089  0.2859
32562W        W48031   1.289  10.278   3.708  0.0084  0.0390  0.2537
32563W        W48032   7.182   6.172   1.127 -0.0682  0.3246  0.0534
32564W        W48033   0.681   3.997  12.071  0.1641  0.2873  0.0870
32565W        W48034   0.932   0.117  10.662  0.1169 -0.1151  0.5041
32566W        W48035   3.091  15.243   3.520  0.1934  0.0981 -0.0095
32567W        W48036   6.644  17.487  15.134 -0.2224  0.1456 -0.0462
32568W        W48037  16.655   2.786  11.046 -0.2480  0.1291 -0.2228
32569W        W48038   2.286  18.664   0.947 -0.1693 -0.2160  0.0477
32570W        W48039   0.103  13.183  13.880  0.1489 -0.0996  0.1018
32571W        W48040  18.542   9.999  10.845 -0.1020  0.2202 -0.1817
32572W        W48041  17.642   6.232   0.554 -0.1704  0.2031 -0.0558
32573W        W48042   2.898   9.339  13.458 -0.0753 -0.0405  0.0578
32574W        W48043  17.613  18.268   0.149 -0.1764  0.1047 -0.1415
32575W        W48044  18.716   7.804   9.956  0.2953  0.1179 -0.1412
32576W        W48045  15.358  11.329  11.290 -0.1947  0.2343 -0.1104
32577W        W48046   3.542   4.573   4.426 -0.3132  0.0107 -0.0102
32578W        W48047  11.925  13.075   1.549 -0.5060 -0.1316 -0.0269
32579W        W48048   7.955  15.890   2.049 -0.0913 -0.2955 -0.0120
32580W        W48049   0.418  10.666   0.346  0.0342  0.0383  0.0287
32581W        W48050   7.692   0.612  13.204  0.1482  0.2381 -0.1795
32582W        W48051   5.557  16.028   4.893  0.0265 -0.2158  0.1523
32583W        W48052  14.280  15.944  12.220 -0.1974  0.1847  0.1095
32584W        W48053  16.630  18.260   3.581  0.1908 -0.4062  0.2676
32585W        W48054  13.318  18.694  13.856  0.2079  0.0299 -0.4917
32586W        W48055  16.753  14.693   4.788  0.2377 -0.2769 -0.0423
32587W        W48056   2.022  18.789  11.570  0.5350 -0.3090 -0.0838
32588W        W48057  15.955  13.691  13.858 -0.1071 -0.1225  0.0324
32589W        W48058   1.470   0.664  11.621 -0.1546  0.0706  0.0297
32590W        W48059  12.778  12.971  10.852  0.0688  0.0974 -0.2060
32591W        W48060   2.139   5.703   4.059  0.3777 -0.0946 -0.4085
32592W        W48061   6.878  12.373  13.979 -0.1932  0.1296  0.1330
32593W        W48062   7.048  15.480  11.122  0.0071  0.2360  0.0580
32594W        W48063  13.094   2.030  11.077  0.0410  0.5054 -0.0568
32595W        W48064  17.764   8.942  11.548  0.1478 -0.1990  0.0305
32596W        W48065   0.068  15.692  15.330  0.1429 -0.1019  0.0113
32597W        W48066   8.427  16.197   4.259 -0.0844 -0.3385 -0.0872
32598W        W48067   8.366  16.880  14.601  0.0239  0.0248 -0.3471
32599W        W48068   1.698  14.133   2.193 -0.1647 -0.2195 -0.1890
32600W        W48069  11.651  17.060   2.317  0.0582 -0.0702 -0.1332
32601W        W48070   8.020  18.049   3.769  0.1276 -0.0144  0.0856
32602W        W48071  13.321   1.193   5.058 -0.2640  0.2052  0.0155
32603W        W48072   1.641   4.427   9.975  0.1513  0.4498  0.1239
32604W        W48073   1.164   8.615   2.844 -0.0952  0.2138  0.2047
32605W        W48074  10.081   4.034   1.697  0.1187 -0.1064  0.0644
32606W        W48075  10.974   5.538  11.030  0.2761  0.1542 -0.0966
32607W        W48076  13.318   1.175   1.713 -0.0105  0.1098 -0.1944
32608W        W48077   4.945  13.446  11.663 -0.1150  0.4133  0.1776
32609W        W48078   9.589   7.059   1.035 -0.4418 -0.1670  0.2630
32610W        W48079   4.670   9.585   2.739 -0.0570 -0.0622 -0.0212
32611W        W48080   7.632   4.623   0.649 -0.2121 -0.3772 -0.1997
32612W        W48081  13.169   9.659   3.198  0.1912 -0.1214 -0.3399
32613W        W48082   6.398  18.770   3.209 -0.4284 -0.0539 -0.0708
32614W        W48083   3.400   8.848   4.537  0.2714 -0.2154 -0.0657
32615W        W48084   2.240   2.220   2.204  0.4202  0.1363  0.2306
32616W        W48085   4.862  16.876   1.183 -0.0573 -0.0033  0.1074
32617W        W48086  13.996   6.709   4.782 -0.3663 -0.0931 -0.5616
32618W        W48087   8.979  15.472  11.372  0.1028 -0.2851  0.1073
32619W        W48088  10.098   6.463  13.335 -0.1811 -0.1925  0.1428
32620W        W48089  13.847  15.037   3.849  0.1480 -0.2000 -0.1482
32621W        W48090   4.371   9.717   1.599  0.0098 -0.1190  0.0050
32622W        W48091   3.661   2.488   4.702  0.3670  0.1252  0.0587
32623W        W48092  16.579   4.801  11.527  0.0172 -0.0341 -0.0922
32624W        W48093  15.535   8.107  14.470 -0.0344  0.2543  0.3605
32625W        W48094   9.290   0.865  13.182  0.0137  0.2002 -0.0493
32626W        W48095   0.295  13.840   1.665  0.0338 -0.0007 -0.2070
32627W        W48096   0.396  18.917   5.573 -0.2341  0.0471  0.1976
32628W        W48097   5.740   2.196   5.632  0.1358 -0.2400 -0.2202
32629W        W48098  12.109   6.493  13.918  0.0147 -0.0642  0.1273
32630W        W48099   8.408  11.796   1.804  0.1509 -0.0812  0.4911
32631W        W48100   8.737   1.500  12.085  0.0641 -0.0606  0.0363
32632W        W48101  16.871   3.934  14.913  0.1103 -0.0019  0.0838
32633W        W48102   2.262  15.196   1.188 -0.1124  0.0627 -0.1124
32634W        W48103   1.012   0.501  14.997 -0.2116  0.0256  0.0968
32635W        W48104   5.986   5.288   3.341 -0.0967  0.1056  0.0963
32636W        W48105   9.906   1.669  14.209  0.1938 -0.2093  0.1907
32637W        W48106   0.129   8.060   0.187 -0.2005  0.0726  0.0590
32638W        W48107  12.857   2.008  12.892 -0.5669  0.1439  0.1911
32639W        W48108  13.736  10.675  12.487  0.0367  0.3118  0.1013
32640W        W48109   7.573  18.409  14.075  0.1197 -0.0751 -0.1391
32641W        W48110  10.718  13.450  15.327  0.0636 -0.1521 -0.0619
32642W        W48111  12.068  18.190   5.134  0.0520  0.4928  0.1312
32643W        W48112  13.409  12.933   4.695 -0.1151  0.1001 -0.0452
32644W        W48113  15.629   8.115  11.242 -0.2600 -0.1112  0.0086
32645W        W48114   1.852   7.234  14.597  0.1893 -0.2518  0.0526
32646W        W48115  10.829   9.232   1.815 -0.1365  0.2347 -0.0108
32647W        W48116  14.087  17.714   4.648  0.0883  0.1297 -0.2881
32648W        W48117  13.126   5.836   2.394 -0.1235  0.1642  0.2826
32649W        W48118   3.616  14.906  14.506  0.1443  0.1067  0.3150
32650W        W48119   3.141  13.456   3.669 -0.1003 -0.2324 -0.2228
32651W        W48120   9.135  18.033   4.137 -0.1715 -0.1977 -0.2415
32652W        W48121  16.443  12.923   0.662  0.1711 -0.1201  0.1738
32653W        W48122   7.393   3.338   4.287  0.2386 -0.0817  0.0766
32654W        W48123   4.317   5.066   4.717 -0.0727  0.2161 -0.2484
32655W        W48124   8.580   8.515   1.076 -0.3069  0.1148 -0.2610
32656W        W48125  15.774   6.320  12.438  0.3954  0.1629  0.1498
32657W        W48126   4.641  18.825   0.334 -0.2450 -0.0041 -0.2464
32658W        W48127   9.029   0.442   3.992 -0.2142  0.1092  0.1985
32659W        W48128   8.832  16.592  14.485 -0.2140  0.2881 -0.3133
32660W        W48129   6.362  18.030   6.105 -0.0026 -0.3984  0.1350
32661W        W48130  15.025  16.629  11.636 -0.2165 -0.0090  0.2173
32662W        W48131  14.801  15.424  11.725 -0.3123  0.1971  0.1969
32663W        W48132  19.009   8.744   0.249  0.6463 -0.0723  0.0778
32664W        W48133  12.457  16.207  15.132 -0.0572 -0.2097 -0.5711
32665W        W48134   0.606   7.279  13.306 -0.0775  0.0812 -0.4526
32666W        W48135   0.471   8.039  11.683 -0.3003  0.0631  0.1310
32667W        W48136  14.363   1.753   2.925 -0.1800 -0.1353  0.0356
32668W        W48137   8.551   2.730   4.405  0.1089 -0.1656  0.2425
32669W        W48138  13.232  14.017   3.830  0.2187 -0.1429 -0.2560
32670W        W48139  18.140   7.571  11.205  0.0757  0.0331 -0.3406
32671W        W48140   5.654   3.305  13.797 -0.1860  0.0531 -0.0480
32672W        W48141   8.390   4.108   1.366 -0.1266  0.5628 -0.0261
32673W        W48142   6.757   4.243   3.003  0.2822 -0.0405 -0.0493
32674W        W48143   4.598  16.940  14.003 -0.1193 -0.3215  0.2078
32675W        W48144   9.985   1.070   3.823 -0.0880 -0.0543  0.1274
32676W        W48145   6.660   2.742   2.232 -0.0717 -0.1187 -0.1163
32677W        W48146   0.511   2.251  12.208  0.1381  0.0725  0.0381
32678W        W48147  16.787   4.020   4.549 -0.1528 -0.2446  0.1540
32679W        W48148   9.584  10.811   3.131 -0.2107 -0.5054  0.0823
32680W        W48149   3.753   1.111   4.394  0.2077  0.0744  0.0772
32681W        W48150  12.573   6.815   5.024 -0.1821  0.3636 -0.1530
32682W        W48151   9.885   2.939  15.185  0.3958  0.0336 -0.1443
32683W        W48152   1.347   6.797  10.500  0.1045 -0.1473 -0.2232
32684W        W48153  17.320  15.505   2.384 -0.0067 -0.0143 -0.0895
32685W        W48154   8.065   0.354  14.812 -0.1704 -0.0138  0.0973
32686W        W48155   8.483  10.209   3.557 -0.0578  0.2235  0.0650
32687W        W48156   3.346   6.748   1.914  0.0519  0.0253  0.0437
32688W        W48157  18.412   0.438   3.621 -0.1297  0.1745  0.2981
32689W        W48158   9.495   4.529  14.759  0.1479  0.0237 -0.1006
32690W        W48159  12.253   6.359   4.342 -0.3649  0.1655  0.1209
32691W        W48160  11.220  19.019   0.529 -0.0231 -0.1534  0.3382
32692W        W48161   6.716   4.290   1.281  0.0553  0.1762  0.0415
32693W        W48162  14.169  11.755   0.247 -0.0819 -0.4541  0.0978
32694W        W48163   3.282   5.256  14.184 -0.0743  0.0277 -0.1966
32695W        W48164  10.474  13.747   4.098 -0.1219 -0.0327 -0.0326
32696W        W48165   6.127   2.896  13.802 -0.3355 -0.0828 -0.1382
32697W        W48166   8.865   5.207   0.239 -0.1210  0.0762 -0.3494
32698W        W48167   3.771  17.117  11.718 -0.0838 -0.3344  0.2319
32699W        W48168  15.986   2.344  10.221  0.2556 -0.3190  0.4354
32700W        W48169  12.061   7.924  11.379 -0.0547 -0.1347 -0.0948
32701W        W48170  14.946  16.541   2.519 -0.3186  0.4267  0.3030
32702W        W48171  18.306  17.939   2.152  0.0711  0.1579  0.1728
32703W        W48172  11.704  13.830   0.864 -0.4773 -0.0138  0.1892
32704W        W48173  12.950   3.204  13.337 -0.0415  0.3769  0.0084
32705W        W48174   4.599   2.848  12.471 -0.2295  0.0694 -0.0934
32706W        W48175  12.634   1.544   5.484  0.2187  0.6017 -0.0627
32707W        W48176   0.615  14.076  13.999  0.0204 -0.0282  0.2824
32708W        W48177   6.197   3.768   4.713 -0.1759 -0.0715 -0.1439
32709W        W48178   6.109   3.035  14.950  0.1912  0.1866  0.1213
32710W        W48179  15.590  13.054  11.944  0.2857 -0.0120  0.0751
32711W        W48180  17.086   3.245  11.988 -0.0355 -0.0362  0.3066
32712W        W48181   3.038  10.732  13.728  0.1475 -0.0319  0.1089
32713W        W48182  12.082  14.223  14.065  0.0573 -0.1945 -0.1172
32714W        W48183  18.446   1.094  13.280 -0.3721 -0.0907  0.0483
32715W        W48184   1.223   4.725  14.030 -0.0482 -0.1671  0.0198
32716W        W48185  16.755   5.896  10.727  0.2637 -0.2156  0.0591
32717W        W48186  17.082  15.312  14.867 -0.1792  0.0369 -0.0346
32718W        W48187   2.692   4.740   0.594  0.2002 -0.2936 -0.0029
32719W        W48188   9.123  13.436  10.048 -0.1036  0.0313  0.0556
32720W        W48189  10.880   9.456   2.273 -0.1971  0.1566  0.1448
32721W        W48190  17.390   5.934   0.125  0.0420 -0.0755  0.2992
32722W        W48191  13.846  16.355  14.856 -0.5087 -0.0995  0.0529
32723W        W48192  18.089   7.157   1.437  0.0350 -0.1039 -0.3767
32724W        W48193  13.393  17.653  11.931 -0.0917 -0.1522  0.4025
32725W        W48194  12.689   8.616  12.182  0.1267  0.1121  0.1009
32726W        W48195  10.858   9.051   3.631 -0.3383 -0.3669 -0.0150
32727W        W48196   0.447  18.029   0.133 -0.0377  0.4102 -0.0607
32728W        W48197  18.095  18.081   2.735 -0.2731 -0.1793 -0.0683
32729W        W48198  10.976   3.569   0.704  0.0327  0.1948  0.1387
32730W        W48199  14.423   0.037  12.312  0.0715 -0.1690  0.1069
32731W        W48200   3.405   6.671  11.982 -0.0010  0.2459  0.0585
32732W        W48201  16.300  10.266   2.244 -0.0812  0.0562 -0.0176
32733W        W48202  18.740  14.788  11.981 -0.3684 -0.1525  0.1799
32734W        W48203   5.927   1.138  11.700 -0.1157  0.0236 -0.0116
32735W        W48204  13.119  12.676  12.843 -0.1000  0.3947  0.0121
32736W        W48205   0.993  13.431   2.624 -0.2140  0.1481  0.0198
32737W        W48206   2.719  11.377  14.564 -0.1245 -0.0634 -0.3161
32738W        W48207   6.275   4.715  12.129  0.0724 -0.3402 -0.2011
32739W        W48208   7.764  11.848   4.903  0.0666  0.0488 -0.0228
32740W        W48209  14.612  14.262   4.918  0.1159 -0.1410 -0.1312
32741W        W48210   1.610   6.958  11.063 -0.2821  0.0047 -0.1102
32742W        W48211  17.767   8.266  13.388  0.0590  0.2498 -0.0535
32743W        W48212  14.900   9.185  12.683  0.3836 -0.4262  0.2676
32744W        W48213   3.991   8.822  11.656  0.1531 -0.0676  0.1590
32745W        W48214   3.500  12.056   2.001 -0.3302  0.0224  0.2310
32746W        W48215   7.794  14.135  13.273 -0.2869 -0.0136  0.0244
32747W        W48216  14.062   0.272   3.137  0.2181 -0.0548  0.3225
32748W        W48217   7.910   9.545  12.358  0.1142 -0.0656 -0.0967
32749W        W48218  11.877   2.844  14.616 -0.0394  0.0076 -0.0417
32750W        W48219  13.940   9.839   2.997  0.1394 -0.1208 -0.0507
32751W        W48220   6.212   6.244  11.953 -0.0414  0.1232 -0.2789
32752W        W48221   1.421   6.795   4.802 -0.2916  0.0010  0.2917
32753W        W48222  18.101   3.757  10.998  0.1531  0.1503 -0.1470
32754W        W48223   8.804   2.019   5.110  0.0783 -0.1375  0.2167
32755W        W48224   7.158  12.180   3.814  0.1685  0.1489  0.0348
32756W        W48225   8.891  14.549  11.167  0.2496  0.2697 -0.2756
32757W        W48226   7.372  10.706  10.355 -0.1509  0.1835 -0.1555
32758W        W48227  14.884   6.239  14.360 -0.0049  0.0400  0.1084
32759W        W48228   5.517  15.318  12.675  0.0704 -0.2135  0.1646
32760W        W48229  15.462   8.033   4.407 -0.0715 -0.1651 -0.0173
32761W        W48230   7.795   9.749   1.650  0.2254  0.1992 -0.1497
32762W        W48231   5.957  13.217   1.056 -0.1347 -0.2251  0.0893
32763W        W48232  11.752   9.167  10.665  0.0422 -0.3168  0.1245
32764W        W48233   8.504  10.481  10.834 -0.2435 -0.2258  0.1557
32765W        W48234  12.636   5.155   1.701  0.0137  0.0964  0.1266
32766W        W48235  11.903   6.150  13.192 -0.0577  0.1061 -0.2804
32767W        W48236   5.169  13.405  15.015  0.0850  0.1676 -0.1439
32768W        W48237  13.216  18.463   4.136 -0.2041 -0.3742 -0.1303
32769W        W48238   9.311  15.681   1.937 -0.0551 -0.0092 -0.3058
32770W        W48239  14.873   2.842  10.512  0.0996  0.1676 -0.1213
32771W        W48240   5.507   0.856   3.212 -0.0647 -0.1776 -0.1981
32772W        W48241   0.089   2.611  13.252 -0.3269  0.0524  0.1784
32773W        W48242  12.985  13.132   2.585  0.2259 -0.4818 -0.3541
32774W        W48243   0.217  17.034  13.055  0.1079 -0.1567  0.0090
32775W        W48244  16.416   7.462   2.447 -0.3120  0.4025 -0.2678
32776W        W48245  10.330  11.777  10.220  0.2717  0.1633  0.2697
32777W        W48246   1.477   1.904   0.425 -0.1263  0.0924 -0.2294
32778W        W48247   0.488  17.223   3.769  0.0673  0.0428  0.0016
32779W        W48248  17.758   6.902   4.116 -0.0258  0.1206 -0.2536
32780W        W48249   5.257  13.942   3.250  0.0508  0.1530  0.2083
32781W        W48250  11.770  10.990   2.159 -0.2575  0.0480  0.2711
32782W        W48251   0.278   5.863  13.542  0.1034  0.0669 -0.2383
32783W        W48252  15.968   6.611  11.980 -0.0789  0.2470 -0.0700
32784W        W48253  14.492  15.746  11.360 -0.2513  0.0026 -0.0157
32785W        W48254   7.774   2.388   2.279 -0.1404 -0.0511 -0.1309
32786W        W48255   5.955   2.003   3.765  0.1547  0.1445  0.0117
32787W        W48256   5.732   1.494  14.247  0.3039  0.2568 -0.1361
32788W        W48257   2.618   6.971   3.815 -0.0906  0.0343 -0.1923
32789W        W48258  16.437   7.154  14.031 -0.1024  0.0330  0.0186
32790W        W48259  16.293  17.245   1.087 -0.0842 -0.3994 -0.3374
32791W        W48260  15.963  15.811  10.569 -0.2994  0.0971  0.0604
32792W        W48261   1.893  18.831  14.968 -0.2129  0.1069 -0.1614
32793W        W48262  17.419  17.749  14.759  0.3580 -0.2033  0.0974
32794W        W48263   5.110  16.283   1.883 -0.1111  0.3736  0.3211
32795W        W48264  13.497   3.385   2.004 -0.3668 -0.0189  0.0513
32796W        W48265  14.484  15.105  14.356 -0.1097 -0.2018  0.2747
32797W        W48266  15.413  13.926  14.650 -0.1252  0.1463  0.1505
32798W        W48267   0.879   5.442   2.570 -0.1199  0.0291  0.1744
32799W        W48268  15.646   9.570   2.279 -0.1317  0.1241  0.2680
32800W        W48269   1.864   8.201   3.892  0.1077 -0.0469  0.0428
32801W        W48270   8.911   3.112   5.067  0.1152  0.1396  0.0826
32802W        W48271   0.331  16.915  15.366  0.0976  0.0087  0.1772
32803W        W48272   4.944   7.980   2.506 -0.0457  0.1254 -0.1613
32804W        W48273   1.452   1.707   5.525 -0.1778 -0.1303 -0.0074
32805W        W48274   5.525   5.755  15.225  0.2228 -0.2307  0.1965
32806W        W48275  10.194  14.158  12.490 -0.1125 -0.0819  0.1014
32807W        W48276   4.485   6.011  13.270  0.1379 -0.0287  0.2682
32808W        W48277   5.138   2.934  15.036  0.0695  0.0727 -0.1166
32809W        W48278   1.263   0.911   1.178  0.1527 -0.0995  0.2596
32810W        W48279   0.274  10.648   1.226 -0.1164 -0.2450 -0.1027
32811W        W48280  11.854  16.197   4.702 -0.1303  0.0219  0.0039
32812W        W48281  18.985  18.296  12.568  0.2462  0.1459 -0.0281
32813W        W48282  17.008   3.641   1.629 -0.0837 -0.1625 -0.0690
32814W        W48283   9.337   1.274   1.087 -0.0546 -0.1852 -0.1287
32815W        W48284   8.351   3.510  12.012  0.0281  0.1131 -0.3011
32816W        W48285   2.977  13.315  13.744 -0.0270  0.2819 -0.2304
32817W        W48286   5.815   7.172  14.242  0.0374 -0.1019 -0.1297
32818W        W48287  11.956   5.321  13.200  0.1022  0.4220  0.1525
32819W        W48288  13.394   4.399   2.536  0.0033 -0.4150  0.0127
32820W        W48289   9.551  12.976  12.414 -0.1193  0.2341  0.1303
32821W        W48290   5.722   9.153   5.245 -0.1175  0.1401 -0.1249
32822W        W48291  18.591  17.317  13.647  0.1549  0.0431  0.0466
32823W        W48292   5.131  16.198  12.922  0.2118  0.1363 -0.0471
32824W        W48293   5.894   7.154   5.443 -0.1138 -0.1791  0.0451
32825W        W48294   5.289  14.320   0.720  0.1334 -0.0763 -0.3278
32826W        W48295   0.498  12.037   0.484 -0.6141  0.1875 -0.0121
32827W        W48296  18.152   1.364  14.787  0.0605  0.2025  0.2936
32828W        W48297   4.911   7.337   3.849 -0.1231 -0.1060 -0.2020
32829W        W48298   3.876  13.697   2.391  0.0424 -0.1635  0.0034
32830W        W48299   0.863   9.535  14.213  0.0016 -0.0385  0.0338
32831W        W48300   6.644  13.696   4.636 -0.2212  0.0763  0.1586
32832W        W48301  11.359   0.751  11.043 -0.1330  0.0792 -0.2108
32833W        W48302   4.134   5.639  10.289 -0.0307 -0.1792  0.3148
32834W        W48303   5.420  13.262   1.175 -0.0829 -0.1369  0.3320
32835W        W48304  14.346   2.275  10.979 -0.0599 -0.1508  0.0087
32836W        W48305   0.698   3.615   4.334 -0.0423 -0.1831 -0.3488
32837W        W48306  18.526   9.755   2.534  0.0770  0.3497  0.0717
32838W        W48307  15.232   4.794   2.954  0.2101 -0.2899  0.1436
32839W        W48308   7.459   1.837   5.366 -0.3434  0.1919 -0.2714
32840W        W48309  16.639  18.442   3.129  0.1850  0.1039 -0.1573
32841W        W48310   4.150   0.838   4.569  0.1875 -0.0653 -0.2382
32842W        W48311   8.215   8.619   5.232  0.2394  0.0865 -0.0435
32843W        W48312  12.024  10.955   3.145 -0.0139 -0.0858  0.0178
32844W        W48313   7.975   2.798  13.227 -0.0829 -0.2419  0.1747
32845W        W48314   5.531  12.316   9.344 -0.5482  0.0629 -0.2168
32846W        W48315  17.339   2.011  14.370  0.0936 -0.1189 -0.1000
32847W        W48316  15.579   0.903  11.772  0.1984 -0.3439  0.0449
32848W        W48317   4.859  16.056  11.138 -0.1640 -0.2626 -0.0613
32849W        W48318  11.578   9.195  13.560  0.1932  0.0778  0.2190
32850W        W48319  16.746  11.577   3.251 -0.1279  0.3757  0.2100
32851W        W48320   1.381   9.584  14.546  0.0176  0.0118 -0.1935
32852W        W48321   3.279   2.573   1.268  0.2827  0.1964 -0.2451
32853W        W48322  17.455  15.027   2.283  0.1070  0.2159  0.0608
32854W        W48323  17.731  18.939  15.237 -0.1656  0.0848 -0.1440
32855W        W48324   5.564  10.059   2.220 -0.1591  0.2547 -0.2119
32856W        W48325   6.082  13.328  14.818 -0.0068 -0.1166 -0.0701
32857W        W48326  12.283  15.144   4.290 -0.0389  0.0905  0.1901
32858W        W48327   7.297   0.540   0.545  0.0442 -0.0407 -0.3773
32859W        W48328  10.345   3.963  12.173  0.1364  0.2210 -0.0513
32860W        W48329  13.234   7.064   3.844  0.2063  0.1859 -0.0600
32861W        W48330  13.099   6.241   2.959  0.0335 -0.2539 -0.1683
32862W        W48331  14.906   1.538  14.795 -0.0725 -0.2446 -0.3197
32863W        W48332  13.648  17.390   9.778 -0.0799  0.0788  0.2156
32864W        W48333   1.342   5.071  13.724  0.0194 -0.2651 -0.0546
32865W        W48334   3.348   5.858  11.130 -0.3707 -0.0558  0.2465
32866W        W48335  11.116   2.337  11.331  0.4164 -0.3489  0.1759
32867W        W48336  13.822  11.474   3.746 -0.3262 -0.2215 -0.3837
32868W        W48337   4.496  16.253   0.537  0.1414 -0.3827  0.4190
32869W        W48338   9.370   5.705   4.709  0.0323  0.2516  0.0158
32870W        W48339   4.678   1.990  13.562 -0.1960 -0.0386  0.1190
32871W        W48340   3.933  17.062   2.270  0.1029 -0.2893  0.2543
32872W        W48341  10.820  11.083   0.050  0.0049  0.0383 -0.0498
32873W        W48342  16.221   3.853   3.751  0.0121 -0.5331  0.3119
32874W        W48343   6.756   3.381  10.166 -0.4778  0.0580  0.1444
32875W        W48344   2.457  11.915   5.704  0.1597  0.2155 -0.0217
32876W        W48345  15.441   1.461  10.584  0.2852 -0.1330 -0.1971
32877W        W48346   0.326  12.390  13.120 -0.0186  0.1347  0.0750
32878W        W48347   8.737   7.059  10.716 -0.2736 -0.3797 -0.1174
32879W        W48348  12.645  16.792  12.040  0.2849  0.1359  0.1904
32880W        W48349  16.951  17.148   4.599 -0.1278  0.2572 -0.2554
32881W        W48350  13.702   6.850  12.246  0.1688  0.2397 -0.0522
32882W        W48351  11.296  10.080   1.786  0.2883  0.3414  0.1318
32883W        W48352   6.711  14.505   4.823 -0.0830 -0.1186  0.0759
32884W        W48353  18.267   0.437  13.745 -0.2197  0.1233  0.0213
32885W        W48354  18.015   8.593   4.441  0.2696 -0.1268 -0.0635
32886W        W48355   3.975  16.360  14.365 -0.2765 -0.0432 -0.1000
32887W        W48356  17.716  17.414  15.088  0.0736  0.2170 -0.4467
32888W        W48357  12.043   4.077  15.334 -0.0540 -0.1203  0.1572
32889W        W48358   0.591  10.389  14.350  0.2677 -0.1535 -0.0114
32890W        W48359   4.058   4.394   1.197  0.2591  0.2083 -0.4281
32891W        W48360  10.038  10.530  15.328 -0.2299 -0.2232  0.2026
32892W        W48361   4.871  12.070   3.482  0.1586 -0.1012  0.0273
32893W        W48362  13.510  16.045   2.380 -0.0102 -0.1372 -0.1904
32894W        W48363   8.211  12.533   9.584  0.0910  0.0716 -0.1043
32895W        W48364   2.352   3.023   2.017  0.1344 -0.0549  0.2502
32896W        W48365   0.193  16.373   1.067 -0.1521  0.1652  0.0859
32897W        W48366   6.942   3.302   0.680  0.3808 -0.2126 -0.0613
32898W        W48367  14.369   9.031  15.324 -0.3169  0.0380  0.0294
32899W        W48368   7.500   2.950   1.221  0.0169 -0.0023 -0.3942
32900ION     NA48369  15.379  15.988   3.562 -0.3948  0.0772  0.1990
32901ION     NA48370  17.654  14.268   9.823 -0.1158  0.0214 -0.0330
32902ION     NA48371  11.430  13.212   0.358 -0.1681 -0.0126  0.3653
32903ION     NA48372   8.498  11.597   9.677 -0.1993  0.1018 -0.1575
32904ION     NA48373  11.012  10.497   5.211 -0.1806  0.2004  0.3773
32905ION     NA48374  18.498   1.021   9.930 -0.0281  0.2685  0.2015
32906ION     NA48375  17.932   9.291  13.178  0.1621  0.0679  0.1792
32907ION     NA48376  15.955   5.475   9.579 -0.2786 -0.4991 -0.0792
32908ION     NA48377   4.849   8.130   0.135  0.1373  0.0515 -0.1731
32909ION     NA48378  13.924  11.608   5.255  0.0765 -0.2929 -0.1995
32910ION     NA48379  15.169  14.841   9.582  0.0428  0.0885  0.1860
32911ION     NA48380  11.092   8.333   9.594 -0.0338  0.1014  0.0017
32912ION     NA48381  15.817   3.232   5.223  0.2253  0.1940 -0.1082
32913ION     NA48382  17.549   8.732  10.006 -0.1048 -0.1485 -0.3158
32914ION     NA48383  13.389  11.292   9.990 -0.1024  0.1288 -0.0168
32915ION     NA48384  18.605   9.425   3.450  0.1823  0.0143  0.1962
32916ION     NA48385   9.211   7.288  10.897 -0.1804 -0.2707 -0.2079
32917ION     NA48386   2.315   3.519  10.163 -0.2521  0.2175  0.0343
32918ION     NA48387   9.429  18.142  10.147  0.0528  0.0500  0.0668
32919ION     NA48388   0.879   9.784   9.708  0.0712  0.1939 -0.0762
32920ION     NA48389   1.135  17.909   4.782 -0.2518 -0.4982  0.0117
32921ION     NA48390   7.303   4.322   9.992  0.2331 -0.0805 -0.5291
32922ION     NA48391   5.665   7.447   5.086 -0.0349  0.1032  0.1264
32923ION     NA48392  18.725   9.296   1.727 -0.1058  0.4311  0.4089
32924ION     NA48393  17.068  18.171   1.363 -0.0574 -0.3201 -0.0861
32925ION     NA48394   5.531  10.986  11.987  0.0677  0.0243  0.2931
32926ION     NA48395  11.506  15.849   9.851 -0.2602 -0.1449 -0.1892
32927ION     NA48396   1.868   9.599   5.656  0.0378  0.2590 -0.0829
32928ION     NA48397  11.831  12.894   9.607  0.3632 -0.3194  0.0366
32929ION     NA48398   7.471  18.207  10.446 -0.2442  0.1617  0.0340
32930ION     NA48399   2.283   6.815   9.847  0.0101 -0.1741 -0.0921
32931ION     NA48400   0.644  12.690   5.703  0.2069  0.0345  0.1689
32932ION     NA48401   0.343  15.263  12.645 -0.1284 -0.5006  0.1224
32933ION     NA48402  10.332   3.452  10.189 -0.1012 -0.3780  0.0798
32934ION     NA48403  11.261   6.423   5.436 -0.0488  0.0666 -0.0734
32935ION     NA48404   8.103   9.441   2.202 -0.1416  0.1863  0.0792
32936ION     NA48405   7.902   1.067  10.329  0.2938  0.3741 -0.1190
32937ION     NA48406   5.407  13.321   5.029  0.2478  0.0738  0.1686
32938ION     NA48407  15.772   1.264   4.803  0.0937  0.4996  0.0755
32939ION     NA48408   6.791   5.755   4.540  0.1937 -0.1375 -0.0692
32940ION     NA48409  17.853   1.220  15.157  0.0825 -0.1048 -0.0964
32941ION     NA48410   4.604   0.299   0.372  0.3998 -0.1414 -0.1730
32942ION     NA48411  17.155  13.530  11.853  0.2948  0.1232 -0.1978
32943ION     NA48412  17.330  15.641   9.484  0.2341 -0.0435 -0.1507
32944ION     NA48413   8.274  16.566  10.235 -0.2394  0.0679  0.2820
32945ION     NA48414   7.151   5.172   5.756 -0.1860 -0.1321 -0.1842
32946ION     NA48415  10.557   6.330   4.373  0.2324 -0.2527 -0.1580
32947ION     NA48416  13.962   2.195   3.071 -0.4183  0.0037 -0.1352
32948ION     NA48417  12.554   0.113  10.046  0.1356 -0.0723 -0.0414
32949ION     NA48418   4.453   5.637   2.466  0.0679 -0.1018  0.1194
32950ION     NA48419   8.708   6.242   4.256  0.0429  0.1047 -0.0533
32951ION     NA48420   3.025  15.169   5.441  0.2559  0.2014  0.0131
32952ION     NA48421   0.774  10.447   9.808  0.1367 -0.0058  0.0844
32953ION     NA48422   5.353   3.998   9.818  0.0879  0.4091  0.2084
32954ION     NA48423  16.290   4.599   9.498 -0.0548 -0.0137 -0.1386
32955ION     NA48424   7.500   6.661  14.744 -0.0801 -0.1845 -0.3911
32956ION     NA48425   8.183   1.476   5.097 -0.2769  0.0602 -0.0608
32957ION     NA48426  12.358  15.650  10.213 -0.0485 -0.1079 -0.0035
32958ION     NA48427  11.883   6.581  13.471  0.2842 -0.3093  0.3094
32959ION     NA48428  12.743   4.156  10.369  0.0746  0.3695  0.3727
32960ION     NA48429   0.073   9.954   0.407 -0.1678  0.1445 -0.0050
32961ION     NA48430   1.571  15.948   1.070  0.1204  0.1131  0.2810
32962ION     NA48431   2.730   8.039   1.952 -0.1315  0.2388 -0.0568
32963ION     NA48432  11.096   4.375   5.373 -0.1488 -0.1491  0.0172
32964ION     NA48433  15.778   4.828   3.125 -0.0279 -0.2078  0.0159
32965ION     NA48434   6.152  13.869   5.534 -0.0390 -0.2885  0.1877
32966ION     NA48435  10.005   6.279   1.208  0.3039  0.0154  0.1000
32967ION     NA48436   3.211  12.936  14.105  0.1164  0.2489 -0.4049
32968ION     NA48437  10.772   7.646   1.916  0.1554 -0.1557 -0.2128
32969ION     NA48438  18.921  14.874   9.848 -0.0183  0.1460  0.1576
32970ION     NA48439   1.858  15.438   0.869 -0.1039  0.0632 -0.3290
32971ION     NA48440  15.332  13.543   9.720  0.4023  0.2903  0.1506
32972ION     NA48441  11.145   1.159  14.353 -0.1455  0.0008  0.2385
32973ION     NA48442  10.754   0.688  10.076 -0.1039  0.3737 -0.2651
32974ION     NA48443   9.962   5.145  10.118  0.2920 -0.1038 -0.0743
32975ION     NA48444   0.669  17.228  13.164  0.0176  0.0227 -0.0939
32976ION     NA48445   5.040   0.049   5.972 -0.0095  0.3159  0.1312
32977ION     NA48446   7.479   4.234  11.965 -0.1543 -0.2022  0.1794
32978ION     NA48447   5.907   0.161   5.988 -0.0633 -0.3462  0.0920
32979ION     NA48448   5.364   0.302   5.001  0.0614  0.2116 -0.0714
32980ION     NA48449   7.533   1.151   1.491  0.2974  0.1427  0.1740
32981ION     NA48450   5.232  11.776   9.418 -0.1277  0.0115  0.1025
32982ION     NA48451  12.778   9.999  15.006  0.1364  0.1371  0.2263
32983ION     NA48452   7.770  12.236   9.725 -0.3642  0.0771 -0.2148
32984ION     NA48453   1.912   4.477  11.059 -0.2020 -0.0619 -0.1463
32985ION     NA48454   1.737  10.889   0.837 -0.1707  0.1620  0.5343
32986ION     NA48455  18.033   4.644   9.840 -0.1399  0.0195  0.2771
32987ION     NA48456   6.734   7.597   9.773  0.1385 -0.1849 -0.1257
32988ION     NA48457  17.568  18.135   5.162 -0.1151 -0.0900  0.0273
32989ION     NA48458  16.104   9.271  14.001 -0.3932  0.2016  0.0900
32990ION     NA48459  10.980   8.635   3.880  0.1151  0.0042  0.0658
32991ION     NA48460  15.842  18.351  14.348  0.1556  0.2931  0.3922
32992ION     NA48461  15.895  14.740   2.338 -0.1289 -0.2148 -0.2318
32993ION     NA48462   9.214  10.194   2.832  0.0867 -0.3189 -0.0868
32994ION     NA48463  18.146  17.430  13.918 -0.1689  0.0382  0.1444
32995ION     NA48464   1.918  17.930   0.150 -0.3019 -0.2297  0.1172
32996ION     NA48465  11.599   3.136   5.931 -0.0216  0.1193 -0.0463
32997ION     NA48466  14.843  17.821   4.524 -0.1541  0.0389 -0.3771
32998ION     NA48467  18.669  17.855   9.527  0.0258 -0.0410 -0.3716
32999ION     NA48468   1.620   8.519   9.786 -0.0833  0.2570 -0.0382
33000ION     NA48469  13.337   8.419   3.770 -0.1059 -0.0459  0.2532
33001ION     NA48470   6.063   8.775   1.936 -0.0294 -0.2483  0.2116
33002ION     NA48471   1.160   5.270  14.163  0.0537 -0.1003 -0.2984
33003ION     NA48472  18.059   4.583  14.964  0.1328  0.1502  0.0402
33004ION     NA48473   4.474  11.028  15.154  0.0868  0.0454  0.2135
33005ION     NA48474  16.823  17.051   5.218  0.2579 -0.0501  0.0533
33006ION     NA48475  12.735  10.077   9.591 -0.0427  0.0533  0.0963
33007ION     NA48476   2.681  10.252   9.861 -0.4177  0.0571 -0.1568
33008ION     NA48477   9.607   2.542  10.067 -0.1282 -0.0495 -0.1516
33009ION     NA48478  16.369   1.401   9.869 -0.2283 -0.0435  0.1455
33010ION     NA48479   8.272  13.590   9.827  0.0707  0.0612 -0.0910
33011ION     NA48480   9.095  12.348   9.867 -0.2508  0.0904  0.0166
33012ION     NA48481   9.145  12.510   5.311  0.2780  0.1436  0.1914
33013ION     NA48482   4.608  12.435   9.650 -0.3741 -0.0630  0.0296
33014ION     NA48483   5.305  10.441  14.297 -0.1735 -0.2405 -0.0631
33015ION     NA48484  11.511   0.187   9.912  0.1036 -0.1435 -0.1313
33016ION     NA48485  16.130   8.651   9.658 -0.0513  0.0138 -0.0298
33017ION     NA48486   3.437  11.745   5.416 -0.0342  0.0410  0.0338
33018ION     NA48487   1.482   3.794  10.078 -0.3626 -0.0965 -0.0955
33019ION     NA48488  11.826   1.066   5.558 -0.2319 -0.0173  0.2004
33020ION     NA48489   5.620  17.645  10.106 -0.1425  0.2206 -0.0401
33021ION     NA48490  14.113   0.980   1.757  0.1706  0.1030 -0.3062
33022ION     NA48491   5.449   8.092   9.991 -0.3096  0.5335  0.0071
33023ION     NA48492   1.763   6.350   2.733  0.1241 -0.0162 -0.2861
33024ION     NA48493   4.865  17.674   5.951 -0.0235 -0.0675  0.0428
33025ION     NA48494   2.495   8.976   5.425 -0.0824 -0.0968 -0.2578
33026ION     NA48495  14.460  11.937   9.527 -0.3482 -0.1822  0.0132
33027ION     NA48496   8.517  10.465  11.437  0.0809  0.0583  0.2774
33028ION     NA48497   4.381   0.386   5.880 -0.0601  0.1543  0.1854
33029ION     NA48498  19.020   6.065   5.563 -0.1974  0.0202 -0.1841
33030ION     NA48499  12.588   4.760   3.826  0.5083  0.1426  0.0400
33031ION     NA48500  10.860   6.010   1.553 -0.2423 -0.2622  0.0070
33032ION     NA48501  17.778   6.035   9.522 -0.1060  0.0594  0.3017
33033ION     NA48502   2.572   7.874   5.550 -0.6185  0.0367 -0.0637
33034ION     NA48503   7.859  18.704   6.214 -0.0033 -0.2496 -0.1036
33035ION     NA48504   7.357   3.427  10.080 -0.1875 -0.1428 -0.1459
33036ION     NA48505  11.308   2.406   3.013 -0.3294 -0.0736  0.3098
33037ION     NA48506  16.874  15.047   9.427  0.0429  0.3021  0.0714
33038ION     NA48507   5.638   3.622  11.534 -0.0647 -0.1601  0.0889
33039ION     NA48508   0.065   4.117   9.755 -0.0488  0.2538 -0.3982
33040ION     NA48509  10.441  13.494   2.247  0.3095 -0.1548  0.0494
33041ION     NA48510  10.469  13.304   9.575 -0.0051  0.0521  0.2080
33042ION     NA48511   9.507  12.501   3.829 -0.4011 -0.2672  0.0540
33043ION     NA48512   4.223   0.002  12.396 -0.1091  0.5611 -0.1980
33044ION     NA48513   6.827  12.455  12.993  0.0901 -0.0448 -0.2316
33045ION     NA48514  17.120  18.293   9.613  0.3479 -0.3006  0.1478
33046ION     NA48515   2.363  13.798   5.212  0.2217  0.1492  0.3506
33047ION     NA48516  14.821   9.243  10.401 -0.1926 -0.3559  0.1179
33048ION     NA48517  12.947   4.184   1.680  0.4677 -0.3177  0.0415
33049ION     NA48518   2.239   2.687  14.680  0.4346 -0.1292 -0.3689
33050ION     NA48519  16.953   0.019  12.390 -0.0619 -0.3635  0.1383
33051ION     NA48520  13.485   7.891   9.644 -0.0307 -0.1475 -0.1307
33052ION     NA48521   3.617   0.247   1.522  0.1357  0.0966 -0.1255
33053ION     NA48522  10.826   4.466  10.054 -0.3511  0.2048  0.0095
33054ION     NA48523   3.043  18.902  10.052  0.1524  0.1928  0.2575
33055ION     NA48524   5.915   7.895   2.429 -0.2466  0.4224  0.0806
33056ION     NA48525   6.675  12.918   9.534  0.0488 -0.2212 -0.0348
33057ION     NA48526  12.221  13.480   9.779  0.1832  0.0845  0.1015
33058ION     NA48527  14.872   7.656   5.465 -0.0558 -0.5093  0.4132
33059ION     NA48528  17.191  17.978  13.381  0.2150 -0.1981 -0.2570
33060ION     NA48529  13.797   3.271   9.868  0.0539  0.0840  0.0900
33061ION     NA48530   3.160   4.209   4.610 -0.0414  0.2069  0.1626
33062ION     NA48531  18.132   2.224   9.666 -0.1107 -0.6013 -0.3794
33063ION     NA48532  11.041   3.980   5.742  0.1733 -0.2610  0.2422
33064ION     NA48533  15.655   4.061   4.870  0.1924 -0.4630 -0.1280
33065ION     NA48534  12.379  18.760   4.487 -0.1828 -0.2819  0.0714
33066ION     NA48535  10.104   6.603   9.797 -0.3017 -0.1363  0.1288
33067ION     NA48536   9.220  16.709   9.973 -0.4451 -0.2902 -0.0565
33068ION     NA48537  15.486   4.869   9.410  0.0654 -0.0033  0.2711
33069ION     NA48538   8.831   5.299   9.856  0.4624  0.0626 -0.5107
33070ION     NA48539   2.809   7.541   9.678 -0.1843 -0.1905  0.2089
33071ION     NA48540   7.160   0.497   3.840  0.0092  0.0389  0.1971
33072ION     NA48541  12.703   6.804   9.491  0.3376  0.0768  0.3259
33073ION     NA48542  11.043  10.891   0.687 -0.2569 -0.1463  0.3762
33074ION     NA48543   9.775  10.081   9.523 -0.0596  0.0004  0.0429
33075ION     NA48544  12.356   9.799   2.113  0.1011 -0.0308 -0.1730
33076ION     NA48545   7.972   3.127  11.938 -0.0371 -0.1164  0.1279
33077ION     NA48546   7.484   5.603   9.954 -0.0552  0.0456 -0.1614
33078ION     NA48547   4.741   3.833  10.599 -0.0187  0.0590 -0.0251
33079ION     NA48548  16.060   0.464   9.454  0.1332 -0.0549 -0.2946
33080ION     NA48549   0.024  16.653   2.006  0.0831 -0.1694 -0.1135
33081ION     NA48550  16.420  11.730   9.966  0.0884 -0.1991 -0.0791
33082ION     NA48551   9.404   1.542  10.351  0.2185  0.2949  0.0684
33083ION     NA48552  12.982  14.289   2.119  0.1093  0.0006  0.1812
33084ION     NA48553   1.393  16.036  12.504 -0.3033 -0.2719  0.0698
33085ION     NA48554  17.021   7.090  14.244 -0.2180  0.0687  0.1531
33086ION     NA48555   4.964  17.990  13.261 -0.4113  0.2938  0.0659
33087ION     NA48556   4.812   6.286   9.745 -0.3813 -0.1813  0.1195
33088ION     NA48557  14.692   4.335  11.871 -0.2991 -0.0378 -0.2175
33089ION     NA48558  17.248   3.483   5.322 -0.0561 -0.2228 -0.1623
33090ION     NA48559  14.129   0.507  10.047  0.3263 -0.1989  0.1851
33091ION     NA48560  17.630   8.343  12.467 -0.2919  0.1033  0.1423
33092ION     NA48561  11.807  11.945  11.652  0.1844 -0.1082 -0.0029
33093ION     NA48562  13.168  14.613  14.383 -0.0396 -0.1935  0.0639
33094ION     NA48563   0.742   5.275   0.439  0.1349  0.0283  0.0175
33095ION     NA48564   6.595   6.064   9.908  0.4706  0.1964  0.3887
33096ION     NA48565  14.029  17.975   3.004  0.1133 -0.1521  0.5206
33097ION     NA48566   1.501   0.849   9.559 -0.1890 -0.1329 -0.1159
33098ION     NA48567   5.392   8.352   5.599 -0.1958  0.2885  0.1020
33099ION     NA48568  15.320  10.054  10.430 -0.2341 -0.3351 -0.4445
33100ION     NA48569   7.425  12.397  10.631 -0.0712 -0.2315 -0.2936
33101ION     NA48570  11.222  11.045   4.524 -0.1307 -0.0705 -0.0919
33102ION     NA48571   9.774   8.188   4.436 -0.2503 -0.1144 -0.2864
33103ION     NA48572  12.616  17.440   2.767  0.0115 -0.1072 -0.0999
33104ION     NA48573  17.546  13.285   5.268 -0.2437 -0.0018  0.0200
33105ION     NA48574   9.117   9.714   0.716 -0.1670 -0.3820  0.0486
33106ION     NA48575  17.877   5.423   5.866  0.2056  0.2027 -0.1270
33107ION     NA48576   2.345   6.233  13.791  0.0626  0.2451  0.0631
33108ION     NA48577  12.557  10.781   3.222 -0.2754  0.1402 -0.0758
33109ION     NA48578   0.418   2.175   5.281 -0.2480  0.0442 -0.0727
33110ION     NA48579   2.880  14.456   4.098 -0.0860  0.1470  0.0551
33111ION     NA48580   7.766   0.369  14.397 -0.2664  0.0199 -0.0527
33112ION     NA48581   7.806   4.145   0.529 -0.0268 -0.1341 -0.1725
33113ION     NA48582  15.545   6.823   9.503  0.1242 -0.1089 -0.0028
33114ION     NA48583   3.985  17.639   9.931 -0.1633 -0.0557 -0.3911
33115ION     NA48584   6.558  15.044   5.602 -0.0361  0.4901 -0.4861
33116ION     NA48585   3.591   7.287   6.039  0.0220 -0.0454  0.0581
33117ION     NA48586  17.170  12.264   5.387 -0.1286  0.2085  0.0077
33118ION     NA48587  17.692   6.562   0.887  0.1217  0.2458  0.0175
33119ION     NA48588  11.194  13.788   9.836 -0.1969 -0.2558  0.1457
33120ION     NA48589  11.128   1.638  10.245  0.1876  0.1909 -0.1074
33121ION     NA48590  17.719   8.369   1.144  0.1643 -0.1128  0.0806
33122ION     NA48591  12.443  12.092   9.641 -0.0418  0.0641  0.1811
33123ION     NA48592  14.128   2.353  10.060  0.1604 -0.2874 -0.0256
33124ION     NA48593   3.528   5.415   0.403  0.0592  0.0691  0.1446
33125ION     NA48594   6.513  13.835   9.494  0.0363  0.0553 -0.1516
33126ION     NA48595   6.974  12.469  14.491 -0.1936  0.0292  0.0091
33127ION     NA48596  17.124   9.067   5.768 -0.1622  0.1991 -0.1491
33128ION     NA48597   2.615   7.326  15.156 -0.0999 -0.1620  0.0197
33129ION     NA48598   3.784   5.330   3.761  0.0318 -0.1277  0.1640
33130ION     NA48599   2.968  12.509   9.730 -0.5363 -0.1826 -0.0341
33131ION     NA48600  16.042  18.008   9.522 -0.4223  0.1691  0.0421
33132ION     NA48601  10.593   7.428   0.698 -0.1922  0.2629  0.2191
33133ION     NA48602   4.328  11.371   5.328  0.0645 -0.1468  0.3039
33134ION     NA48603   9.532  13.075   5.061  0.2792 -0.2069  0.0118
33135ION     NA48604  18.152  10.155   1.504  0.1093 -0.0505 -0.2854
33136ION     NA48605   7.100  14.285   4.130  0.0007  0.0892 -0.3109
33137ION     NA48606   1.026  12.983  10.179  0.0285 -0.1057  0.0012
33138ION     NA48607  15.031   3.352   4.804  0.1634 -0.1628 -0.3871
33139ION     NA48608   4.274  13.571  14.798 -0.1487  0.0423 -0.4376
33140ION     NA48609  16.953  18.845   2.273 -0.4479  0.0857 -0.3351
33141ION     NA48610  18.637  16.885   9.633  0.2437  0.0810 -0.1861
33142ION     NA48611   9.114   0.583   4.480  0.2249  0.0827  0.1743
33143ION     NA48612  18.216   5.937  10.638 -0.1460  0.2194  0.1385
33144ION     NA48613  14.735  16.939  10.132 -0.1200  0.1038 -0.0483
33145ION     NA48614  13.103  18.877   5.418 -0.0123 -0.1955  0.0721
33146ION     NA48615  13.630   1.348  10.019  0.0084 -0.0844  0.0111
33147ION     NA48616   0.016   2.580   2.569 -0.1934  0.0881  0.1246
33148ION     NA48617  14.801  17.083   0.437 -0.3229  0.1157 -0.3362
33149ION     NA48618   4.134   1.895  10.036  0.3392  0.2365 -0.1328
33150ION     NA48619  16.182  10.588  13.342 -0.0525 -0.0267 -0.2077
33151ION     NA48620   0.077   4.329  12.623  0.0785  0.0999 -0.3430
33152ION     NA48621  10.465   5.024  11.826 -0.3539  0.1105 -0.3093
33153ION     NA48622   0.052  14.008  10.236 -0.0883 -0.4101  0.2373
33154ION     NA48623  11.005  12.457  13.815  0.2547  0.0978 -0.2253
33155ION     NA48624  18.070  12.749  10.650 -0.0972  0.3187 -0.3355
33156ION     NA48625  13.631  15.477   5.154  0.1444 -0.3159 -0.0588
33157ION     NA48626   6.200  12.844   5.453 -0.3503 -0.2291 -0.1808
33158ION     NA48627  11.548   3.191  14.577  0.1344 -0.1263  0.2135
33159ION     NA48628  11.112  11.682  14.757  0.0606 -0.3076  0.1547
33160ION     NA48629  12.349   5.896   1.837 -0.1331 -0.1735  0.2279
33161ION     NA48630  16.110   4.738   5.166  0.0541 -0.3754 -0.5008
33162ION     NA48631   0.775   6.664  10.024 -0.0497 -0.4773 -0.1891
33163ION     NA48632   8.103   3.232  14.389  0.2482 -0.1998 -0.0119
33164ION     NA48633  14.285   6.481   9.830 -0.1246 -0.3362  0.0143
33165ION     NA48634  16.887  17.912   5.506 -0.1644 -0.2627  0.4501
33166ION     NA48635  13.951   4.953   4.731  0.2194 -0.0513 -0.1102
33167ION     NA48636  15.157   2.526   5.439 -0.1786 -0.2218  0.2756
33168ION     NA48637   9.856  11.093   9.477  0.1790 -0.0542 -0.1067
33169ION     NA48638  14.212   3.944   3.837  0.2009 -0.1557  0.2027
33170ION     NA48639   2.091  17.160   9.608 -0.1071  0.2070 -0.4713
33171ION     NA48640   4.787  10.363   9.701 -0.3437 -0.3035 -0.0377
33172ION     NA48641   2.714   2.225  10.021 -0.0481 -0.0089  0.5340
33173ION     NA48642  15.612  17.798   3.437  0.1552 -0.3377 -0.2037
33174ION     NA48643  10.229   7.896   9.521 -0.0721 -0.1608  0.3894
33175ION     NA48644   5.102  10.207   5.472 -0.3173  0.0866 -0.0269
33176ION     NA48645  12.104  16.065  14.581  0.1239 -0.0443  0.2561
33177ION     NA48646   3.311  16.933   9.840 -0.0542 -0.1043  0.1234
33178ION     NA48647   4.780   5.418   9.783  0.0087  0.0392 -0.0654
33179ION     NA48648  17.885   9.974  12.423 -0.1007 -0.1916  0.2468
33180ION     NA48649  11.415  15.927   4.597  0.0052 -0.2029  0.0448
33181ION     NA48650  17.716   6.970   9.626  0.1113 -0.3017 -0.0776
33182ION     NA48651   5.918   1.186  10.280 -0.4447  0.0668  0.0022
33183ION     NA48652   5.862   9.763   9.876 -0.0257  0.0654  0.2259
33184ION     NA48653   4.785  15.634  10.256 -0.1363 -0.1748  0.1611
33185ION     NA48654   2.881   5.477  13.936 -0.0271  0.0178 -0.2857
33186ION     NA48655   0.210  12.453   4.653  0.0977 -0.2683  0.3512
33187ION     NA48656  11.581  11.952   9.679  0.2027  0.1652  0.0358
33188ION     NA48657  12.186   1.443  10.384  0.2324  0.0051 -0.0848
33189ION     NA48658   2.828   8.400   9.727  0.0227  0.0916 -0.1945
33190ION     NA48659  13.492  15.633   0.914  0.0868 -0.4267 -0.0909
33191ION     NA48660   3.505  17.070   1.063 -0.2558  0.2279  0.1299
33192ION     NA48661  10.900  12.479   9.531  0.1155 -0.2752 -0.1177
33193ION     NA48662   3.287  10.760  14.358  0.1128 -0.1795  0.3139
33194ION     NA48663  10.915  10.070  14.360 -0.3270  0.1693  0.1366
33195ION     NA48664  13.697   9.962   5.752  0.1060  0.0126 -0.0725
33196ION     NA48665   9.589  17.216   9.955  0.1780  0.2148 -0.2341
33197ION     NA48666   0.675  12.746   3.355 -0.1081  0.0792 -0.2346
33198ION     NA48667  16.427   5.727  11.490 -0.1662  0.0247 -0.1640
33199ION     NA48668   3.347   4.289   5.708 -0.3125 -0.1847 -0.0643
33200ION     NA48669   7.182  14.783   9.909 -0.1205  0.2348  0.0358
33201ION     NA48670  13.936   1.376   0.351  0.0584 -0.2359  0.0729
33202ION     NA48671   1.363   5.205   9.962  0.0552  0.0988 -0.3658
33203ION     NA48672  10.503  17.174   0.333  0.0684 -0.0591  0.0430
33204ION     NA48673  16.945   8.575   5.374  0.3889 -0.0306  0.1226
33205ION     NA48674  15.125   0.797   1.266  0.0780  0.1854  0.2152
33206ION     NA48675   8.216   2.853  10.272  0.0557 -0.3595  0.1301
33207ION     NA48676  13.122   4.053   2.248  0.0041 -0.0581  0.0649
33208ION     NA48677   8.247  17.619   4.418  0.1354 -0.1748 -0.2407
33209ION     NA48678  15.865  11.256  14.120  0.0771  0.1813 -0.0679
33210ION     NA48679  13.203  18.516   0.527 -0.0704  0.0478  0.0694
33211ION     NA48680   2.641  18.633  14.507 -0.2153 -0.0350  0.1512
33212ION     NA48681   1.611  10.077  12.514 -0.0810 -0.2287  0.1916
33213ION     NA48682  18.191  15.319   9.428 -0.3298  0.0479  0.3087
33214ION     NA48683   1.982  12.612   5.256  0.0573  0.4537  0.2373
33215ION     NA48684  12.030   8.642   9.538  0.0569 -0.0260  0.1244
33216ION     NA48685   7.803  10.016   5.586  0.3895  0.3413 -0.0936
33217ION     NA48686   1.881   1.790   9.636 -0.1509 -0.4672  0.2989
33218ION     NA48687   8.940   0.561  13.960 -0.0152 -0.3802 -0.0059
33219ION     NA48688   1.162  15.077   9.492  0.2010 -0.1656 -0.4270
33220ION     NA48689   7.097  15.640  10.155  0.0021 -0.0720 -0.1508
33221ION     NA48690  17.405  12.264   4.945  0.2382  0.2106 -0.3106
33222ION     NA48691   1.082  18.563   9.421 -0.0181  0.4122 -0.0649
33223ION     NA48692   9.367  13.438   1.799  0.0330 -0.0980  0.0195
33224ION     NA48693  17.919   0.448  11.470  0.1522 -0.0096  0.1039
33225ION     NA48694   9.190   7.035   5.040 -0.1238  0.0203  0.2114
33226ION     NA48695  17.931  17.096   2.778 -0.0472  0.0778 -0.1057
33227ION     NA48696  16.621   9.648   1.364 -0.5324 -0.0381 -0.1264
33228ION     NA48697   5.693   3.195  10.030  0.0054  0.0903 -0.1236
33229ION     NA48698  17.261   9.269   9.757  0.2632 -0.2145  0.1199
33230ION     NA48699  12.342  17.296   5.365 -0.1705  0.2263 -0.2656
33231ION     NA48700  10.431  16.413  10.526 -0.1731  0.2957  0.1626
33232ION     NA48701  13.296   1.280  13.396  0.1691 -0.1245  0.0131
33233ION     NA48702  10.859  11.818  12.470 -0.0257  0.1327 -0.7177
33234ION     NA48703  14.363   5.624   2.422  0.0968 -0.2519  0.0317
33235ION     NA48704   4.003   7.820   9.862  0.0686 -0.0445  0.0168
33236ION     NA48705  14.706   6.590   2.486 -0.0901  0.0682 -0.3381
33237ION     NA48706   7.402  14.553   5.576  0.0600 -0.1599 -0.3540
33238ION     NA48707   5.291   3.120  14.530  0.1961  0.1140  0.2563
33239ION     NA48708   3.085  16.136   5.582  0.0090 -0.1781  0.0084
33240ION     NA48709   5.736  18.175   0.333  0.0455  0.0500 -0.2890
33241ION     NA48710   0.390   9.396   4.620  0.1198  0.1019  0.3400
33242ION     NA48711   3.212   1.422  10.116 -0.0588 -0.0533  0.0658
33243ION     NA48712  13.293   9.568  10.971 -0.4411 -0.0437  0.1872
33244ION     NA48713   1.085   9.768   4.048 -0.2185 -0.1636 -0.4018
33245ION     NA48714   5.078   1.765   5.133 -0.3095 -0.0854  0.0854
33246ION     NA48715   9.192   6.170   9.835  0.1537 -0.2629  0.2816
33247ION     NA48716  18.320   8.009  11.893 -0.0062 -0.0472 -0.0784
33248ION     NA48717  15.881   3.654   9.843  0.2865  0.1583  0.3774
33249ION     NA48718  17.714   4.147  10.918  0.0906 -0.0203 -0.1584
33250ION     NA48719   2.351  11.363  15.035 -0.3010  0.1521  0.0363
33251ION     NA48720   3.821  13.694   9.650  0.4084 -0.0209 -0.0193
33252ION     NA48721   2.128   5.635   4.563 -0.0867 -0.0382 -0.1150
33253ION     NA48722  11.216  16.047   5.524  0.3360  0.0244 -0.3501
33254ION     NA48723   4.263   4.832  11.028  0.1687  0.0930  0.0241
33255ION     NA48724  16.093   0.419   2.936  0.0742 -0.1289  0.0863
33256ION     NA48725   6.071   0.515  10.301 -0.1415  0.0512 -0.0531
33257ION     NA48726   4.759  15.291   4.538  0.3002 -0.0813  0.0004
33258ION     NA48727   6.492   4.687   9.957  0.0278 -0.2096 -0.0704
33259ION     NA48728  14.181   4.311   9.850  0.0685 -0.0167  0.0331
33260ION     NA48729  16.295   1.005   2.377 -0.0197 -0.0819 -0.1375
33261ION     NA48730  11.160  17.843   4.015  0.0840 -0.1192  0.2105
33262ION     NA48731  12.777  13.295   3.022 -0.0683 -0.3651 -0.1248
33263ION     NA48732  15.836  16.501   1.440  0.2711  0.1283 -0.1720
33264ION     NA48733   3.129   0.969   5.736  0.1548 -0.3816  0.0273
33265ION     NA48734   9.794  15.654   2.042  0.0955 -0.1853  0.1867
33266ION     NA48735  13.950   8.958  11.528  0.1202  0.1237 -0.4466
33267ION     NA48736   7.604  10.322   9.719 -0.2888  0.0513 -0.1324
33268ION     NA48737   9.233  14.519   9.871  0.1892  0.2205  0.1785
33269ION     NA48738   6.969  13.817   9.631 -0.0035  0.3107 -0.2519
33270ION     NA48739   5.461  16.008  14.227 -0.1401 -0.1828 -0.1173
33271ION     NA48740   1.230  10.801   3.122  0.1490  0.1881  0.2034
33272ION     NA48741  11.735   6.351   1.260  0.2575 -0.2266 -0.3477
33273ION     NA48742   8.863  14.088   9.519  0.0249  0.1355 -0.0807
33274ION     NA48743  15.400   9.898  14.400  0.3151 -0.0690 -0.1744
33275ION     NA48744  15.246  18.988   3.079 -0.3272  0.1316 -0.1722
33276ION     NA48745   8.260  18.137  12.522 -0.2570 -0.1365  0.0640
33277ION     NA48746   9.177   8.052   5.114  0.2642  0.0438  0.2163
33278ION     NA48747   1.803  17.276  14.912  0.1175  0.1563 -0.0079
33279ION     NA48748   1.794   2.809   9.848 -0.2641 -0.4850  0.0076
33280ION     NA48749  14.460  18.646   9.600 -0.1890  0.2744 -0.2312
33281ION     NA48750   8.561  18.039   0.938 -0.2485 -0.1812 -0.1189
33282ION     NA48751   3.712  16.296   9.907  0.0125  0.0382 -0.0799
33283ION     NA48752  18.063   4.822   5.518 -0.0809  0.0690  0.0751
33284ION     NA48753  15.808   7.978   5.427  0.1187 -0.1162  0.0808
33285ION     NA48754   4.976   6.296   3.898 -0.0340  0.1752 -0.0274
33286ION     NA48755   1.350  12.308  11.443  0.0732 -0.3925  0.0370
33287ION     NA48756   7.945  14.934  14.236 -0.0081 -0.0789  0.1491
33288ION     NA48757  12.454   8.731  15.292 -0.0244  0.0060  0.0453
33289ION     NA48758   9.178  10.805  13.786  0.3623 -0.3255 -0.1238
33290ION     NA48759  17.096   5.357   2.849 -0.0295  0.0745  0.2253
33291ION     NA48760   9.261  14.855   5.400  0.0497  0.3180  0.3535
33292ION     NA48761  19.023  14.060   5.268 -0.3725 -0.0018  0.0201
33293ION     NA48762   1.734  15.558   5.320 -0.0279  0.1440 -0.0597
33294ION     NA48763  14.227   6.171  14.228 -0.2552  0.2356 -0.0183
33295ION     NA48764   7.300   8.267  10.037  0.2558  0.0660  0.0852
33296ION     NA48765   6.265   7.257   2.716 -0.1251 -0.0818 -0.0747
33297ION     NA48766   4.182  16.351   4.978 -0.0497 -0.1373 -0.2147
33298ION     NA48767  10.782  11.263   2.866  0.3525 -0.0477 -0.0536
33299ION     NA48768   2.456   7.307  10.831 -0.1076  0.0329 -0.0434
33300ION     NA48769  16.574  11.821  14.540 -0.0176  0.1675 -0.3359
33301ION     NA48770   9.066   8.723  14.129  0.2919  0.1129 -0.1774
33302ION     NA48771  11.315  18.550   4.318 -0.1510 -0.2125 -0.0703
33303ION     NA48772   0.864   0.480   9.442 -0.1790 -0.1614  0.0872
33304ION     NA48773  10.636  11.777   9.406 -0.0174  0.0702  0.0120
33305ION     NA48774   8.789   3.966   3.412 -0.1042  0.0739 -0.2248
33306ION     NA48775   6.536  18.717  10.187  0.0478  0.2839  0.0075
33307ION     NA48776   2.586   6.003   5.613  0.0964 -0.1060 -0.1181
33308ION     NA48777   9.880  16.594   5.596  0.1608 -0.3242 -0.4069
33309ION     NA48778   2.096  13.641   9.893 -0.4088 -0.1609  0.1040
33310ION     NA48779   8.166   9.591   0.617 -0.2752 -0.1549 -0.2388
33311ION     NA48780  13.449   7.122  10.136  0.0732  0.0408 -0.2003
33312ION     NA48781   8.315   5.658   5.567  0.0308 -0.2658 -0.0207
33313ION     NA48782   6.635  16.306  10.059  0.4157 -0.0175  0.0511
33314ION     NA48783   8.125   8.568  14.697 -0.1197  0.1284 -0.1634
33315ION     NA48784   7.343   5.226  15.096 -0.3088 -0.2017  0.0144
33316ION     NA48785  14.527   5.508   3.756 -0.0507 -0.0069 -0.4244
33317ION     NA48786   5.519  10.936   5.261 -0.3321  0.1491  0.0204
33318ION     NA48787  16.250   9.965   9.903  0.2683 -0.0105  0.3703
33319ION     NA48788   5.327  11.045   9.575 -0.0055  0.0045 -0.0908
33320ION     NA48789   2.644  15.527  13.673  0.2624 -0.1756  0.3090
33321ION     NA48790  17.628   9.843   2.241 -0.0126 -0.0004  0.1049
33322ION     NA48791  16.063   1.941  12.395  0.1975 -0.2300  0.0510
33323ION     NA48792   3.548   2.232  10.016 -0.0656 -0.1734  0.2060
33324ION     NA48793   0.814   7.670   4.616 -0.1339 -0.1684  0.2013
33325ION     NA48794   5.072   9.606   4.535 -0.1386  0.3332 -0.3336
33326ION     NA48795  12.008  15.112   5.673  0.1310 -0.2348  0.4074
33327ION     NA48796  16.507  13.217   9.687  0.0004 -0.0944  0.2378
33328ION     NA48797  11.748  12.683   3.378  0.0309 -0.1367  0.0992
33329ION     NA48798   5.717  15.199   5.779 -0.1500 -0.3042  0.3202
33330ION     NA48799   7.896   1.720  10.635 -0.2829 -0.0629  0.1944
33331ION     NA48800  14.120   3.674  13.109 -0.0840 -0.0433  0.3031
33332ION     NA48801   6.742  10.646  10.003  0.1871 -0.0910  0.1159
33333ION     NA48802  12.869   1.971   9.921 -0.1913 -0.0065  0.0139
33334ION     NA48803  18.933   0.100   4.868  0.2513 -0.1306 -0.3994
33335ION     NA48804  18.706   1.414   3.231  0.1469  0.1686 -0.0860
33336ION     NA48805   9.882   3.292  10.262  0.0784  0.1720  0.2799
33337ION     NA48806   4.881  13.370   2.746 -0.2728 -0.1131 -0.0160
33338ION     NA48807   8.113   3.613   9.976 -0.3356 -0.1619  0.3025
33339ION     NA48808   4.726   0.310  10.400  0.3072 -0.0578  0.0678
33340ION     NA48809   2.239  11.209   9.755  0.1070  0.1975  0.1471
33341ION     NA48810   6.998  11.607   9.879  0.0114  0.0463  0.1442
33342ION     NA48811  13.201   1.015   5.558 -0.1992 -0.1229  0.0740
33343ION     NA48812   9.526  13.484  11.117  0.3244  0.1132 -0.1547
33344ION     NA48813  15.835  16.716   5.336  0.1656 -0.1993 -0.0858
33345ION     NA48814   5.618  18.963   1.783  0.0850 -0.0011 -0.3166
33346ION     NA48815   4.061   3.397   3.673 -0.0782  0.0247 -0.1430
33347ION     NA48816  12.486   1.623   5.992 -0.0195  0.1389  0.3307
33348ION     NA48817   0.469   4.919   9.901  0.0108 -0.2817 -0.1548
33349ION     NA48818  16.835  11.425  10.143 -0.2943 -0.1303  0.1338
33350ION     NA48819  11.101   7.587   2.719  0.1412 -0.0626  0.0239
33351ION     NA48820   5.688  17.322   0.200 -0.0927 -0.0218 -0.1248
33352ION     NA48821   0.265  16.844  12.028  0.0634  0.0786  0.1205
33353ION     NA48822   8.615  13.188   0.812  0.2172  0.0883  0.0074
33354ION     NA48823   9.299  16.296  11.078  0.2183 -0.2353 -0.0021
33355ION     NA48824   8.648  17.626  10.200 -0.1161 -0.0678 -0.0775
33356ION     NA48825   8.155   8.398   2.880  0.2484  0.4468  0.1657
33357ION     NA48826  12.331   6.408  15.144  0.0205  0.2958  0.2510
33358ION     NA48827  11.278   3.349  10.081  0.1098 -0.0176  0.2233
33359ION     NA48828  10.885   3.432   5.666  0.2462  0.1450  0.2315
33360ION     NA48829  17.180   3.816   4.813  0.2042 -0.0146  0.1689
33361ION     NA48830   5.338   6.602  13.946  0.0035 -0.2566 -0.0828
33362ION     NA48831  16.540   0.192   5.410  0.4171  0.0687 -0.1330
33363ION     NA48832   7.093   7.026   0.164  0.1969 -0.1328  0.1759
33364ION     NA48833  14.146   0.463  12.315 -0.0450  0.2340 -0.0016
33365ION     NA48834  15.839  11.689   3.286 -0.1660 -0.0010  0.1162
33366ION     NA48835  16.370  18.052  15.158 -0.4712 -0.1284 -0.1542
33367ION     NA48836  15.830  17.143   0.327  0.0280  0.1912 -0.1414
33368ION     NA48837   4.888   8.657  10.143  0.3479  0.1256  0.1895
33369ION     NA48838  10.500  17.196   9.713  0.0577  0.1372  0.0825
33370ION     NA48839   4.807   4.907  10.070  0.3064 -0.1760 -0.0221
33371ION     NA48840   7.956  15.226   9.606 -0.1062  0.0361  0.3328
33372ION     NA48841  15.654   9.421   9.642  0.1026 -0.0441 -0.0697
33373ION     NA48842   5.646   6.939  13.468 -0.2339  0.0762 -0.0148
33374ION     NA48843   0.512   3.261   9.906 -0.1065 -0.1631 -0.0689
33375ION     NA48844  17.459  10.184  14.086 -0.0423 -0.0759 -0.0232
33376ION     NA48845   2.112   0.732  13.077  0.1521  0.0145 -0.1330
33377ION     NA48846   4.232  11.974   2.676  0.0684  0.0315  0.0483
33378ION     NA48847   0.844  10.146  13.577  0.0943  0.1706 -0.0719
33379ION     NA48848   0.656   5.801  10.004 -0.0446 -0.0093 -0.2050
33380ION     NA48849   0.636   1.367   9.897  0.2645 -0.1294 -0.2865
33381ION     NA48850   8.655   8.345   3.712  0.0964 -0.0258 -0.2322
33382ION     NA48851   6.485   1.745   3.075  0.0329  0.0452 -0.3183
33383ION     NA48852   8.673   1.595   0.506  0.4694  0.2007 -0.2067
33384ION     NA48853   7.949   1.856   5.929 -0.1684  0.0632 -0.1077
33385ION     NA48854   0.084   5.726   3.061 -0.0533 -0.3095  0.3357
33386ION     NA48855   8.283  16.160   3.721  0.0154  0.2563  0.3002
33387ION     NA48856   6.048  15.145   0.407  0.1751  0.1787  0.0460
33388ION     NA48857  10.802  10.389   4.408  0.0916 -0.3550  0.1285
33389ION     NA48858  14.627  17.769   9.675  0.1826 -0.4891 -0.5955
33390ION     NA48859   8.651  10.281  10.412 -0.0927  0.2103  0.4098
33391ION     NA48860   4.579  14.596   0.875 -0.4089  0.0296 -0.0796
33392ION     NA48861   5.068   5.105   1.453  0.0092  0.0051 -0.0170
33393ION     NA48862  10.515  17.229   1.290 -0.2360  0.1904  0.1276
33394ION     NA48863  11.746   4.916   5.748  0.1113 -0.0532  0.1601
33395ION     NA48864   9.976  14.065   5.411 -0.0522  0.0914 -0.2032
33396ION     NA48865  17.958  12.247   1.006 -0.1190 -0.0823 -0.1350
33397ION     NA48866  11.329  11.986   5.542 -0.1218  0.1973  0.1741
33398ION     NA48867   6.101   3.171   5.994 -0.1353  0.1752  0.1447
33399ION     NA48868  17.862  17.698   9.813  0.0681 -0.4608 -0.1832
33400ION     NA48869   4.515   9.736   5.918 -0.4248  0.1428  0.1271
33401ION     NA48870  10.418  14.465  10.393  0.1546  0.0809  0.2891
33402ION     NA48871   3.672   9.138  12.297 -0.1728  0.0417  0.1953
33403ION     NA48872   3.987   2.042   5.618 -0.0644 -0.1378  0.1767
33404ION     NA48873  10.184  16.225   5.148 -0.0368  0.3088 -0.0833
33405ION     NA48874  13.679  14.742   1.127  0.0832 -0.0710  0.1871
33406ION     NA48875  14.353  18.117   5.428 -0.0299 -0.1429  0.1563
33407ION     NA48876   3.271   9.298   9.598 -0.1335  0.0099 -0.2995
33408ION     NA48877   9.029   8.873   9.400  0.0827 -0.0226 -0.1040
33409ION     NA48878   5.058  16.448   5.161 -0.1267 -0.1298 -0.3726
33410ION     NA48879   5.610  14.672   9.870 -0.2073 -0.4640  0.0162
33411ION     NA48880   3.034  18.550  11.739  0.1444 -0.1254 -0.1182
33412ION     NA48881   4.567  18.552  11.276 -0.5351 -0.3008  0.0755
33413ION     NA48882  18.144  13.206   9.920  0.1699  0.1285  0.1342
33414ION     NA48883  12.017   6.104   9.742 -0.0676 -0.2974 -0.3036
33415ION     NA48884  17.420  11.272  10.139 -0.1518  0.0299 -0.0153
33416ION     NA48885  17.180  15.884   5.400 -0.1293  0.0732  0.1553
33417ION     NA48886  14.180  12.364   3.387  0.2567 -0.1487  0.3300
33418ION     NA48887  17.178   5.066  13.455  0.1001  0.0514  0.1427
33419ION     NA48888  13.871  17.698   4.191 -0.0739 -0.1430  0.0471
33420ION     NA48889   5.667  16.699  10.136  0.2445  0.1963  0.0986
33421ION     NA48890  16.991  13.411  13.634 -0.3591  0.0423  0.1644
33422ION     NA48891  11.922  16.395   5.180 -0.0829  0.4055 -0.0608
33423ION     NA48892  14.030   7.992   5.564  0.3784 -0.3055 -0.0971
33424ION     NA48893  11.449  17.758   0.330 -0.0105  0.2082  0.2641
33425ION     NA48894   9.289  18.038   5.435  0.1772 -0.0802  0.3050
33426ION     NA48895  12.857  10.391   5.427 -0.1715  0.0172  0.0391
33427ION     NA48896   6.572   2.494  10.000 -0.1557  0.0698 -0.2570
33428ION     NA48897  12.098  17.053  10.151 -0.0056  0.1788 -0.0956
33429ION     NA48898   7.053   2.111   0.700 -0.1580 -0.1622  0.1532
33430ION     NA48899   2.068   7.197   1.132  0.3467 -0.1009 -0.0634
33431ION     NA48900   2.123   1.697   5.090 -0.1717  0.3261  0.4142
33432ION     NA48901  10.851   9.256   5.591  0.1378  0.2043  0.3506
33433ION     NA48902  18.831   0.972   4.842 -0.0066  0.1294 -0.1629
33434ION     NA48903   3.978  18.354   3.142  0.5520  0.0661 -0.1652
33435ION     NA48904   7.581   5.741   0.482 -0.3059  0.0476 -0.0144
33436ION     NA48905   6.790   1.210   4.719  0.0270  0.2892  0.0339
33437ION     NA48906  12.005   4.586  13.414  0.1194 -0.0704  0.2596
33438ION     NA48907  15.780  16.599   9.840 -0.1632 -0.0355  0.0018
33439ION     NA48908  11.766   9.076  12.337 -0.1147 -0.0102  0.2772
33440ION     NA48909  10.816   9.350   9.339 -0.2870 -0.0894 -0.0334
33441ION     NA48910  13.056  16.315   5.388  0.2324  0.3468 -0.1810
33442ION     NA48911  13.488  12.150  14.621  0.0334 -0.1230  0.1234
33443ION     NA48912  18.483   5.087   4.723  0.2454 -0.0355  0.0330
33444ION     NA48913  15.666  13.222  10.992 -0.0798  0.4026  0.0786
33445ION     NA48914   1.854  18.370  14.794 -0.0054 -0.1771  0.2096
33446ION     NA48915   3.128  13.093   9.645 -0.1363 -0.2239  0.1303
33447ION     NA48916   6.806   6.044   5.763  0.2306  0.3027 -0.0682
33448ION     NA48917  16.043   6.115   9.515 -0.2585  0.1727 -0.2519
33449ION     NA48918  11.452  17.134  11.826  0.0332 -0.0845  0.0636
33450ION     NA48919   9.594  18.074   2.046 -0.1818 -0.1136  0.0227
33451ION     NA48920   4.023   5.133  13.079  0.1483 -0.2724  0.1426
33452ION     NA48921  13.751   3.883   5.143 -0.0927 -0.0627 -0.0028
33453ION     NA48922   7.550   5.613  11.957  0.0265  0.3522  0.1326
33454ION     NA48923   1.376   1.029   3.768  0.0260 -0.1816  0.0677
33455ION     NA48924  16.825  14.023   9.405  0.0798  0.2160 -0.0531
33456ION     NA48925  17.733  12.366   9.698  0.2854 -0.2023  0.0931
33457ION     NA48926   9.028  15.528   9.825 -0.2387  0.2185 -0.0401
33458ION     NA48927  14.555  17.357  11.019  0.1960 -0.2242 -0.3171
33459ION     NA48928  10.299   2.035   3.739  0.2680  0.1967 -0.1250
33460ION     NA48929  10.799   3.569   1.295  0.1827  0.0291  0.0583
33461ION     NA48930  12.870  16.123   3.747  0.0430 -0.2839  0.0254
33462ION     NA48931   5.969  17.923   2.768 -0.2518 -0.0291 -0.0867
33463ION     NA48932  18.569  11.967   9.760  0.1573  0.0660 -0.0244
33464ION     NA48933   2.737   8.168  13.537 -0.0792  0.0882  0.3272
33465ION     NA48934   7.945  11.085  12.695  0.3286  0.3508 -0.1026
33466ION     NA48935  18.149   5.861   1.465 -0.0176 -0.0917  0.0208
33467ION     NA48936  16.302   7.359  12.542 -0.1191  0.2849  0.3889
33468ION     NA48937   1.455  13.991   1.363 -0.0550  0.1476  0.2492
33469ION     NA48938  14.614   4.075  14.030  0.4064 -0.1045  0.0969
33470ION     NA48939   8.333  11.036   9.872  0.0554  0.0197  0.0196
33471ION     NA48940  13.298   5.937  12.605 -0.1498  0.5403 -0.1199
33472ION     NA48941  13.582   8.946  13.382  0.0766 -0.1074  0.0829
33473ION     NA48942   5.761   7.251   9.788  0.0069  0.1845 -0.2864
33474ION     NA48943  10.458  15.644   4.465  0.1524 -0.0104 -0.1135
33475ION     NA48944   2.842   0.022   5.529  0.2343 -0.0393 -0.0788
33476ION     NA48945  13.456  11.986  13.139 -0.2225  0.2231  0.0837
33477ION     NA48946  14.857  17.805  14.189  0.2865 -0.1197  0.0619
33478ION     NA48947  16.806   4.428   4.217  0.3078 -0.3798 -0.2507
33479ION     NA48948   5.998  12.558   1.660  0.0937 -0.1798  0.2079
33480ION     NA48949  14.572  12.797   9.741 -0.0950  0.2929  0.2817
33481ION     NA48950   8.170  15.121   0.705 -0.3384 -0.0171  0.1361
33482ION     NA48951   3.126  10.788   5.346  0.0364 -0.1260 -0.0899
33483ION     NA48952  13.585   7.276   5.626  0.1561 -0.4247  0.3304
33484ION     NA48953   1.629  10.552   9.750 -0.3203  0.0949 -0.6730
33485ION     NA48954   9.000   9.127   5.056  0.1094 -0.2858 -0.3651
33486ION     NA48955  12.504   9.266   9.329  0.1565 -0.0741 -0.1578
33487ION     NA48956  12.760   2.597   1.961 -0.0619 -0.0673 -0.0346
33488ION     NA48957  10.759  11.137   5.225  0.1486  0.2095 -0.4080
33489ION     NA48958   4.684  18.986  10.087  0.1114  0.1237  0.0231
33490ION     NA48959   7.011  10.787   9.506 -0.1415  0.3278 -0.0180
33491ION     NA48960  10.493  18.910   9.778 -0.2334  0.2678 -0.2486
33492ION     NA48961   9.349  12.628   2.483 -0.2360 -0.0793 -0.0353
33493ION     NA48962  16.030  15.006   9.575 -0.1369  0.0099 -0.3164
33494ION     NA48963   5.095   5.920   0.161  0.3351 -0.2872  0.2309
33495ION     NA48964  16.159  13.662   5.540  0.3784 -0.2457  0.2515
33496ION     NA48965  15.925  16.374   2.284 -0.3065  0.1336  0.0761
33497ION     NA48966   0.643  17.650   9.345  0.2555 -0.2512  0.1694
33498ION     NA48967   1.173  14.264  12.186 -0.0168 -0.4784 -0.3126
33499ION     NA48968   4.276   6.116   5.188 -0.1485  0.1320 -0.0875
33500ION     NA48969  12.195  12.577   1.027 -0.0077 -0.0917  0.2162
33501ION     NA48970  11.027  18.643  13.655 -0.1405  0.1982  0.0202
33502ION     NA48971   7.952   6.678   5.477  0.0104 -0.1918 -0.3766
33503ION     NA48972   1.954   9.588   9.748  0.5189  0.0928 -0.0406
33504ION     NA48973  16.346   6.672   0.273 -0.3614  0.1393  0.0651
33505ION     NA48974  11.984  11.443   2.945  0.1523  0.1158  0.0808
33506ION     NA48975  18.320   1.278   2.568  0.2815 -0.0584  0.3201
33507ION     NA48976  11.376   5.416  12.415 -0.1485  0.2203 -0.1832
33508ION     NA48977  11.861  14.593   3.157 -0.0303 -0.2561 -0.0237
33509ION     NA48978  18.228  13.876   5.565  0.1228  0.3479 -0.3014
33510ION     NA48979  11.157  10.243   9.523 -0.0163 -0.3878  0.1772
33511ION     NA48980   2.750  12.006  13.172 -0.0546 -0.1827  0.2072
33512ION     NA48981   5.923   4.024   9.938 -0.0012  0.0348 -0.2638
33513ION     NA48982   6.365  11.854   5.164  0.1711 -0.2168 -0.1207
33514ION     NA48983  18.422   9.269   9.741 -0.5312  0.2414 -0.4745
33515ION     NA48984  16.711   9.962   5.815  0.1100  0.0645 -0.1045
33516ION     NA48985  13.887   0.428   5.573 -0.2196 -0.1623 -0.2467
33517ION     NA48986   9.158   1.097  14.530  0.3988 -0.0844 -0.1769
33518ION     NA48987  11.450  18.581   5.807 -0.1308 -0.1123 -0.1839
33519ION     NA48988  18.900   5.575  10.059 -0.0185 -0.3212  0.0042
33520ION     NA48989   7.353  13.210  14.653  0.0116 -0.0280  0.2109
33521ION     NA48990  16.836   7.238   9.669 -0.1680 -0.4023 -0.0273
33522ION     NA48991  17.063  11.085   1.176 -0.1349  0.2300 -0.1507
33523ION     NA48992  10.946  15.530   1.181  0.1622 -0.1425  0.1813
33524ION     NA48993  17.302   4.144   9.696  0.1546 -0.1098  0.1750
33525ION     NA48994   1.719   2.433   3.685  0.0075  0.0350  0.0490
33526ION     NA48995   3.535  15.704   1.611  0.0466  0.1603 -0.0194
33527ION     NA48996  15.103   4.053   9.603  0.1107 -0.2147  0.0381
33528ION     NA48997   6.094   2.965  12.826  0.0099  0.0969  0.4478
33529ION     NA48998  14.000   1.688   5.661 -0.1984  0.1954  0.3939
33530ION     NA48999  14.976  10.737  10.077  0.1001 -0.1340 -0.0846
33531ION     NA49000   7.414  17.214  14.703 -0.0820 -0.2243 -0.0589
33532ION     NA49001   8.818   2.235  10.369  0.3013 -0.2087  0.2418
33533ION     NA49002  14.324   0.675   9.649  0.0225 -0.1708 -0.0732
33534ION     NA49003  17.420   1.980   3.031 -0.1395  0.1229  0.0354
33535ION     NA49004   3.513   0.614   5.806 -0.2180 -0.0925 -0.0896
33536ION     NA49005   1.225   3.615   4.909  0.1495  0.1798  0.1620
33537ION     NA49006  15.855  11.421   0.133  0.0903 -0.1148 -0.1938
33538ION     NA49007   0.544   0.839   9.694 -0.2373 -0.0966 -0.0142
33539ION     NA49008  15.348   5.479   5.162  0.0769  0.0789 -0.1476
33540ION     NA49009   3.011  17.797   9.744 -0.1368  0.0571 -0.0489
33541ION     NA49010   9.075   2.734   0.905 -0.2920  0.1044 -0.1108
33542ION     NA49011  12.626   4.604   5.580 -0.1707 -0.0707  0.1408
33543ION     NA49012   7.335  18.017   5.889 -0.2998 -0.0468 -0.0457
33544ION     NA49013  12.117   7.355  10.868  0.1532  0.3413  0.2078
33545ION     NA49014   2.024  18.041   9.901 -0.0441  0.2421 -0.0898
33546ION     NA49015  15.446   0.995   9.938  0.0567 -0.0020  0.1121
33547ION     NA49016   4.722  14.264   9.634  0.0442 -0.0576  0.0806
33548ION     NA49017   7.192   7.079   5.515 -0.1905  0.2219 -0.0898
33549ION     NA49018  13.035  18.793   3.820  0.3104  0.1084  0.2016
33550ION     NA49019  14.608  12.202   5.436 -0.0532  0.0699  0.1342
33551ION     NA49020  17.046  14.610   1.392  0.1500  0.1597 -0.3240
33552ION     NA49021  16.684   5.381   5.234 -0.0159 -0.1830 -0.1318
33553ION     NA49022   0.960   7.566   2.705  0.0863  0.0258 -0.1462
33554ION     NA49023  17.760   1.289   9.463  0.0587 -0.1182  0.0787
33555ION     NA49024  18.272  10.989   9.726  0.1367 -0.0623 -0.0626
33556ION     NA49025  10.964   6.076   9.872 -0.2501  0.3477  0.4401
33557ION     NA49026   6.800  17.809   2.167 -0.2692 -0.1958 -0.2290
33558ION     NA49027   9.413  11.043   9.914  0.1105 -0.1222  0.3514
33559ION     NA49028  13.263  14.853   9.987 -0.2382  0.0081  0.5208
33560ION     NA49029   3.031  13.892   2.362  0.0944  0.1864  0.0978
33561ION     NA49030  13.399   3.100   5.384 -0.1367  0.0518 -0.1398
33562ION     NA49031   6.925   3.463   2.799 -0.1533  0.0307  0.1554
33563ION     NA49032  15.194  12.697   2.352  0.4189  0.1155 -0.0887
33564ION     NA49033   8.868   1.438   5.794  0.0614  0.0997  0.1644
33565ION     NA49034   4.911   1.404   1.003 -0.0236 -0.4839 -0.0590
33566ION     NA49035  14.959  13.063  13.292 -0.0065  0.0499 -0.2293
33567ION     NA49036  16.737   2.251   9.530 -0.1074 -0.0060 -0.2571
33568ION     NA49037   0.245   0.984   0.791 -0.0934 -0.1254  0.1701
33569ION     NA49038  11.951   6.115  15.328  0.1758  0.1156  0.0760
33570ION     NA49039   1.179   0.359   4.043  0.1332 -0.0761  0.0993
33571ION     NA49040   6.800   8.802   5.585 -0.0325 -0.1847 -0.2075
33572ION     NA49041  18.061  11.857   5.230 -0.1059  0.2607 -0.0123
33573ION     NA49042   0.814   5.306   4.037  0.0473 -0.3473  0.0624
33574ION     NA49043  14.079  15.461   5.426  0.0430  0.4310  0.0350
33575ION     NA49044   0.714   8.788   9.947  0.3241 -0.0432  0.0580
33576ION     NA49045   0.996   8.878   2.051  0.0887 -0.1505 -0.2595
33577ION     NA49046  13.190   9.896   9.556  0.3329 -0.0818 -0.1755
33578ION     NA49047   8.795  13.238   5.548  0.2106  0.2379  0.1729
33579ION     NA49048  12.898   1.379   1.745  0.1128 -0.1371 -0.1136
33580ION     NA49049   4.303  12.003   0.034 -0.2571  0.0611 -0.1009
33581ION     NA49050   1.239   9.144  14.966  0.2334 -0.3330 -0.0347
33582ION     NA49051   5.855  18.711  11.149 -0.2328  0.1212  0.0117
33583ION     NA49052   2.768  14.201   9.975 -0.3739 -0.0084 -0.3121
33584ION     NA49053   9.004  14.057   5.355  0.1364 -0.0843  0.1058
33585ION     NA49054   9.948   7.859  12.514  0.2765 -0.0085  0.0919
33586ION     NA49055   0.406  14.149   3.753  0.0011 -0.1874 -0.2218
33587ION     NA49056  15.729   7.945  10.087 -0.5190 -0.0691  0.0735
33588ION     NA49057  12.869   5.154   9.629 -0.0941 -0.1002 -0.1032
33589ION     NA49058  14.664   7.626   3.918 -0.2537 -0.1155 -0.0728
33590ION     NA49059   4.872  18.012  10.276 -0.0933 -0.1531  0.3542
33591ION     NA49060   2.556   4.028  15.231 -0.3270 -0.2052 -0.1675
33592ION     NA49061   1.214  13.521   3.065 -0.0701  0.0341  0.0113
33593ION     NA49062   6.945  13.176   1.675 -0.0840 -0.1639 -0.1326
33594ION     NA49063   8.094  15.985   2.516 -0.1224  0.3428 -0.3183
33595ION     NA49064  10.738  16.095   5.347  0.1175 -0.1280  0.0114
33596ION     NA49065  11.791   2.219   5.788  0.2628  0.0044  0.2593
33597ION     NA49066   5.536  12.190  10.231 -0.4322 -0.0485  0.0686
33598ION     NA49067  18.273  10.335   3.725  0.0762 -0.1972 -0.0637
33599ION     NA49068  11.833   4.274  10.061 -0.0594 -0.1490 -0.0924
33600ION     NA49069   3.315   3.076  13.065 -0.0153 -0.0145 -0.0938
33601ION     NA49070  11.908   8.704  10.377 -0.0587 -0.0221  0.0184
33602ION     NA49071   7.556  16.558   5.629 -0.0186 -0.0569 -0.0317
33603ION     NA49072  10.132   2.846   5.810  0.1195  0.1211 -0.2092
33604ION     NA49073   2.567   3.380   5.521 -0.2282  0.3293 -0.1936
33605ION     NA49074   5.325   4.428  10.636  0.1501  0.2987 -0.1425
  19.04006  19.04006  15.36640
