INSANE! Membrane UpperLeaflet>loPI:POPI:DPPI:PYPI:ERGO=30.0:5.0:3.0:2.0:10.0 LowerLeaflet>PSPI:POPI:POPS:YOPS:POPE:YOPE:POPC:YOPC:ERGO=6.0:14.0:21.0:9.0:9.0:21.0:12.0:48.0:60.0
49074
    1loPI    C1    1  16.752   4.434   9.892 -0.1036 -0.1915  0.0776
    1loPI    C2    2  16.602   4.215  10.191  0.1798 -0.1523  0.2525
    1loPI    C3    3  16.671   4.605  10.244  0.1482 -0.1261  0.1062
    1loPI   PO4    4  16.702   4.241   9.668 -0.3561 -0.0356  0.0986
    1loPI   GL1    5  16.756   4.168   9.222  0.0738  0.0147  0.0677
    1loPI   GL2    6  16.710   4.519   9.200  0.1725 -0.2858 -0.2532
    1loPI   C1A    7  16.607   4.025   8.818  0.0323 -0.0282 -0.1597
    1loPI   C2A    8  16.427   3.766   8.473 -0.2109 -0.0874  0.2031
    1loPI   C3A    9  16.574   3.926   8.138  0.2534 -0.0540  0.0081
    1loPI   C4A   10  16.399   4.346   7.872 -0.1141  0.1155  0.0952
    1loPI   C5A   11  16.136   4.270   7.504  0.3092  0.2109 -0.0141
    1loPI   C6A   12  16.221   4.206   7.114 -0.0383  0.0956 -0.2061
    1loPI   C1B   13  16.509   4.487   8.783 -0.1195 -0.1214  0.2139
    1loPI   C2B   14  16.440   4.302   8.451 -0.1908  0.0426 -0.3273
    1loPI   C3B   15  16.099   4.159   8.246 -0.0337  0.0803  0.2121
    1loPI   C4B   16  15.918   4.072   7.874  0.3119  0.2211 -0.1306
    2loPI    C1   17   6.911   3.242  10.319  0.0743 -0.0171 -0.2539
    2loPI    C2   18   7.310   3.247  10.340  0.0646  0.2140 -0.0847
    2loPI    C3   19   7.095   3.490  10.572 -0.1860 -0.1328  0.0548
    2loPI   PO4   20   6.849   3.254  10.058  0.1921 -0.0965 -0.1197
    2loPI   GL1   21   6.685   3.085   9.767  0.2502  0.0965  0.0377
    2loPI   GL2   22   6.400   3.318   9.680  0.0637 -0.3015 -0.0183
    2loPI   C1A   23   6.764   3.074   9.380 -0.2209 -0.0513 -0.0639
    2loPI   C2A   24   6.744   2.865   8.947 -0.0563 -0.4900  0.4134
    2loPI   C3A   25   6.885   2.869   8.587 -0.0000  0.2720 -0.1251
    2loPI   C4A   26   6.860   2.968   8.210 -0.1322 -0.1324 -0.1971
    2loPI   C5A   27   7.253   2.752   8.058  0.1850 -0.0560  0.1721
    2loPI   C6A   28   7.589   2.545   7.720  0.0112 -0.1989 -0.0318
    2loPI   C1B   29   6.147   3.441   9.266  0.0350  0.2269 -0.0183
    2loPI   C2B   30   6.242   3.565   8.863 -0.0288  0.0355  0.1259
    2loPI   C3B   31   6.353   3.820   8.478 -0.0483 -0.0036  0.1158
    2loPI   C4B   32   6.475   3.912   7.911 -0.3618  0.2226  0.0510
    3loPI    C1   33  18.172   2.495  10.013  0.1578  0.0790 -0.0141
    3loPI    C2   34  18.275   2.633   9.652 -0.1112  0.1485 -0.0664
    3loPI    C3   35  17.898   2.672   9.781 -0.0984 -0.1837  0.0814
    3loPI   PO4   36  18.300   2.198   9.966  0.2277  0.0343  0.1352
    3loPI   GL1   37  18.246   1.957   9.617  0.2190 -0.3103  0.0498
    3loPI   GL2   38  18.249   1.647   9.454 -0.1186 -0.2085  0.2832
    3loPI   C1A   39  18.157   2.335   9.330 -0.2285  0.0984  0.1171
    3loPI   C2A   40  17.942   2.483   8.981  0.0083  0.0107 -0.0642
    3loPI   C3A   41  17.595   2.325   8.682  0.0973  0.1254 -0.1143
    3loPI   C4A   42  17.731   2.210   8.273  0.4227 -0.0023 -0.0858
    3loPI   C5A   43  17.649   1.865   7.959 -0.2857 -0.3529 -0.2893
    3loPI   C6A   44  17.823   1.567   7.645 -0.1064  0.1968 -0.1053
    3loPI   C1B   45  18.368   1.878   9.085 -0.2331 -0.0416  0.1392
    3loPI   C2B   46  18.347   2.206   8.752 -0.1691 -0.3193  0.1502
    3loPI   C3B   47  18.109   2.460   8.478  0.2017 -0.3056  0.0363
    3loPI   C4B   48  18.187   2.845   8.265 -0.2140  0.2608  0.1159
    4loPI    C1   49  12.600  14.512  10.383  0.2927 -0.1079 -0.0444
    4loPI    C2   50  12.329  14.235  10.284  0.2345 -0.1177  0.1384
    4loPI    C3   51  12.349  14.369  10.660  0.3148  0.0692  0.0685
    4loPI   PO4   52  12.789  14.574  10.190 -0.1256 -0.1023  0.1742
    4loPI   GL1   53  12.986  14.749   9.921 -0.1723  0.0155  0.2645
    4loPI   GL2   54  13.219  15.028   9.929  0.1792  0.1956  0.2052
    4loPI   C1A   55  13.256  14.614   9.628  0.0706  0.0715 -0.1211
    4loPI   C2A   56  13.430  14.724   9.317 -0.4100  0.2716 -0.0308
    4loPI   C3A   57  13.362  14.604   8.856 -0.2545 -0.0812  0.1615
    4loPI   C4A   58  13.074  14.499   8.539 -0.3885  0.1214 -0.3506
    4loPI   C5A   59  12.755  14.193   8.583  0.0109 -0.3981  0.1297
    4loPI   C6A   60  12.518  13.986   8.695  0.1146 -0.0918  0.0539
    4loPI   C1B   61  13.103  15.101   9.451 -0.1006 -0.1839 -0.3092
    4loPI   C2B   62  12.782  15.101   9.145  0.3652 -0.1702 -0.2546
    4loPI   C3B   63  12.433  15.154   8.879  0.0122 -0.1294  0.1169
    4loPI   C4B   64  12.098  14.877   8.679  0.1293  0.3967  0.0794
    5loPI    C1   65   3.354   1.588  10.334 -0.1066 -0.0761  0.0805
    5loPI    C2   66   3.119   1.749  10.615 -0.0421  0.0484  0.0635
    5loPI    C3   67   3.517   1.774  10.648 -0.0294 -0.2025  0.1159
    5loPI   PO4   68   3.177   1.580  10.159 -0.1042 -0.1771  0.1444
    5loPI   GL1   69   3.129   1.480   9.656  0.0058  0.0905 -0.2066
    5loPI   GL2   70   3.083   1.212   9.603  0.0947  0.2896  0.0539
    5loPI   C1A   71   2.878   1.703   9.214 -0.0021 -0.1568  0.1939
    5loPI   C2A   72   3.043   1.691   8.751 -0.0363  0.2812  0.2000
    5loPI   C3A   73   3.314   1.812   8.401  0.1605 -0.2686  0.0333
    5loPI   C4A   74   3.381   1.964   7.961 -0.0559  0.1166  0.1352
    5loPI   C5A   75   3.751   2.079   7.785 -0.0205 -0.3645 -0.0390
    5loPI   C6A   76   4.236   1.989   7.787 -0.1247  0.1597  0.1938
    5loPI   C1B   77   3.176   1.209   9.083 -0.0217 -0.1310 -0.2193
    5loPI   C2B   78   3.181   1.129   8.667 -0.0659 -0.0121  0.0956
    5loPI   C3B   79   3.168   1.156   8.255  0.1590  0.2264 -0.3390
    5loPI   C4B   80   3.169   1.133   7.827 -0.0936  0.4150  0.2401
    6loPI    C1   81  17.048   6.479   9.741  0.0731  0.0154  0.1107
    6loPI    C2   82  17.127   6.615  10.109 -0.2726  0.2137  0.1161
    6loPI    C3   83  16.815   6.760   9.905 -0.1121  0.0714 -0.2391
    6loPI   PO4   84  17.265   6.409   9.655 -0.0421 -0.0545 -0.0685
    6loPI   GL1   85  17.327   6.519   9.267  0.0233  0.0310 -0.0970
    6loPI   GL2   86  17.583   6.610   9.127  0.1349  0.1857  0.0961
    6loPI   C1A   87  17.140   6.660   8.869 -0.1008 -0.0616  0.0891
    6loPI   C2A   88  17.052   6.731   8.410 -0.0452  0.0377 -0.2783
    6loPI   C3A   89  17.259   6.654   7.981 -0.1477  0.0738  0.1955
    6loPI   C4A   90  17.344   6.707   7.599  0.2413  0.2980  0.2347
    6loPI   C5A   91  17.342   6.864   7.276 -0.0980 -0.4027 -0.4080
    6loPI   C6A   92  17.315   7.025   6.853 -0.2980  0.3527 -0.3743
    6loPI   C1B   93  17.565   6.528   8.623  0.1361  0.0155 -0.3361
    6loPI   C2B   94  17.723   6.312   8.117 -0.2880 -0.3624  0.0858
    6loPI   C3B   95  17.669   6.341   7.779  0.0160  0.0980  0.0119
    6loPI   C4B   96  17.545   6.315   7.359 -0.0608  0.0968 -0.0869
    7loPI    C1   97   1.918  18.170   9.999  0.1531 -0.0913 -0.2081
    7loPI    C2   98   1.873  17.825  10.197 -0.0518  0.0185 -0.0602
    7loPI    C3   99   2.101  18.115  10.351  0.1750 -0.0737 -0.2167
    7loPI   PO4  100   2.040  18.191   9.809 -0.0495 -0.0271 -0.0703
    7loPI   GL1  101   1.884  18.335   9.440  0.1470  0.3458  0.1615
    7loPI   GL2  102   1.681  18.002   9.467  0.1564 -0.0339 -0.0633
    7loPI   C1A  103   1.944  18.523   9.070  0.1546 -0.1538 -0.1564
    7loPI   C2A  104   1.883  18.381   8.632  0.6628 -0.2040 -0.2930
    7loPI   C3A  105   1.801  17.993   8.436  0.1147  0.0214 -0.0707
    7loPI   C4A  106   1.597  17.749   8.240 -0.1437 -0.2520 -0.1802
    7loPI   C5A  107   1.636  17.259   8.140  0.1083 -0.1322 -0.0089
    7loPI   C6A  108   1.740  16.877   7.956  0.1725 -0.0525  0.1024
    7loPI   C1B  109   1.984  18.027   9.102 -0.0501  0.0308 -0.3681
    7loPI   C2B  110   2.170  17.996   8.735  0.1278 -0.3756 -0.0972
    7loPI   C3B  111   2.234  17.795   8.271  0.1134 -0.2973  0.3020
    7loPI   C4B  112   1.922  17.878   7.805 -0.0309 -0.0501 -0.0769
    8loPI    C1  113   0.589   3.389  10.060 -0.0286 -0.0675  0.0564
    8loPI    C2  114   0.831   3.091   9.950  0.0305 -0.0222  0.0627
    8loPI    C3  115   0.435   3.034   9.962  0.0430 -0.1058  0.0823
    8loPI   PO4  116   0.722   3.562   9.861 -0.1039 -0.3415 -0.0289
    8loPI   GL1  117   0.607   3.535   9.351  0.0308  0.0661 -0.0313
    8loPI   GL2  118   0.596   3.168   9.519  0.0452  0.2926 -0.0723
    8loPI   C1A  119   0.310   3.604   9.186  0.1995  0.1673  0.1243
    8loPI   C2A  120   0.257   3.421   8.794  0.0541  0.0405  0.4160
    8loPI   C3A  121   0.194   3.213   8.509 -0.1127  0.1259  0.0658
    8loPI   C4A  122   0.172   3.000   8.161 -0.1147  0.1142 -0.1021
    8loPI   C5A  123   0.142   2.765   7.830  0.1033 -0.2091 -0.3388
    8loPI   C6A  124   0.138   2.368   7.727 -0.2063  0.1881  0.3486
    8loPI   C1B  125   0.557   3.126   9.092 -0.0224  0.0913  0.1806
    8loPI   C2B  126   0.694   3.119   8.683 -0.2706 -0.0166 -0.1315
    8loPI   C3B  127   0.894   3.460   8.488 -0.0260 -0.0197  0.1492
    8loPI   C4B  128   0.881   3.725   8.152  0.0270 -0.1873 -0.1333
    9loPI    C1  129   1.281  17.366  10.255  0.1427  0.0306  0.0192
    9loPI    C2  130   1.340  17.214  10.620  0.2493  0.1912  0.0697
    9loPI    C3  131   1.560  17.523  10.494  0.4107 -0.0443 -0.2384
    9loPI   PO4  132   1.152  17.141  10.149 -0.2053 -0.1898  0.0567
    9loPI   GL1  133   1.311  17.102   9.670 -0.2710 -0.2223 -0.3516
    9loPI   GL2  134   1.365  16.863   9.595  0.1330  0.0643 -0.2652
    9loPI   C1A  135   1.206  17.247   9.278  0.3367  0.6252 -0.2337
    9loPI   C2A  136   1.364  17.389   8.935  0.3792 -0.3609 -0.0938
    9loPI   C3A  137   1.356  17.588   8.641  0.0670  0.0568 -0.2216
    9loPI   C4A  138   1.165  17.352   8.263 -0.0630 -0.3166 -0.1249
    9loPI   C5A  139   1.140  17.207   7.929 -0.1053 -0.1041 -0.1028
    9loPI   C6A  140   1.430  17.110   7.636 -0.3158 -0.6313  0.0444
    9loPI   C1B  141   1.304  16.624   9.256 -0.3818  0.0431 -0.0686
    9loPI   C2B  142   1.330  16.836   8.933  0.0311 -0.1554 -0.0625
    9loPI   C3B  143   1.078  16.978   8.594  0.1100  0.0457  0.3998
    9loPI   C4B  144   0.816  16.981   8.268  0.2759 -0.1944  0.0057
   10loPI    C1  145   6.782   5.687  10.317 -0.1553 -0.0137 -0.1976
   10loPI    C2  146   7.074   5.706  10.590 -0.2082 -0.0588 -0.1375
   10loPI    C3  147   6.828   5.391  10.582 -0.3034  0.0151 -0.1386
   10loPI   PO4  148   6.871   5.685  10.117 -0.1659 -0.2496  0.0148
   10loPI   GL1  149   7.121   5.490   9.790  0.0006 -0.2473 -0.1271
   10loPI   GL2  150   7.030   5.310   9.493 -0.0976 -0.1435 -0.0262
   10loPI   C1A  151   7.346   5.694   9.448  0.2868  0.1670  0.1637
   10loPI   C2A  152   7.581   5.833   9.072  0.1387 -0.0482  0.1407
   10loPI   C3A  153   7.736   5.778   8.713 -0.2819 -0.1049 -0.0638
   10loPI   C4A  154   7.941   5.703   8.307 -0.0132 -0.0660  0.1767
   10loPI   C5A  155   7.861   5.370   8.013  0.2231 -0.0223 -0.2461
   10loPI   C6A  156   7.657   4.956   8.108 -0.0420  0.0384  0.2083
   10loPI   C1B  157   7.111   5.392   9.025  0.1937  0.1284  0.2750
   10loPI   C2B  158   7.211   5.591   8.710  0.1588  0.0584  0.0622
   10loPI   C3B  159   7.290   5.912   8.311  0.0021 -0.3324 -0.2488
   10loPI   C4B  160   7.649   6.110   8.195  0.3130 -0.2050 -0.1045
   11loPI    C1  161  13.508   5.476   9.979 -0.0165  0.0173  0.1828
   11loPI    C2  162  13.447   5.081   9.977  0.0381  0.0093 -0.0037
   11loPI    C3  163  13.218   5.317  10.204  0.1522 -0.1517  0.2827
   11loPI   PO4  164  13.782   5.475   9.994  0.0326  0.0576  0.0480
   11loPI   GL1  165  14.022   5.409   9.589  0.1524  0.0179  0.1571
   11loPI   GL2  166  14.457   5.451   9.588  0.2977  0.1450 -0.0325
   11loPI   C1A  167  14.036   5.617   9.218 -0.2151 -0.1050 -0.4537
   11loPI   C2A  168  14.083   5.579   8.828 -0.3339 -0.2349  0.0018
   11loPI   C3A  169  13.899   5.800   8.509  0.0404  0.1382 -0.2025
   11loPI   C4A  170  13.831   6.041   8.259 -0.1327  0.1744  0.1149
   11loPI   C5A  171  13.624   6.409   8.295 -0.6362  0.1793  0.0140
   11loPI   C6A  172  13.565   6.686   8.602  0.1267  0.0368 -0.0832
   11loPI   C1B  173  14.435   5.387   9.110 -0.0972 -0.0746 -0.0328
   11loPI   C2B  174  14.542   5.461   8.719 -0.0711 -0.5508 -0.1763
   11loPI   C3B  175  14.616   5.331   8.303  0.0831  0.0929 -0.1144
   11loPI   C4B  176  14.589   5.446   7.914  0.3075 -0.0787  0.1037
   12loPI    C1  177   4.808   2.413  10.440  0.0685 -0.1936  0.0229
   12loPI    C2  178   4.661   2.756  10.582 -0.0701 -0.2210 -0.0532
   12loPI    C3  179   4.890   2.526  10.815 -0.1121 -0.1570  0.0521
   12loPI   PO4  180   5.017   2.442  10.153  0.0215  0.2407  0.4633
   12loPI   GL1  181   4.966   2.487   9.812  0.0017  0.1640 -0.0913
   12loPI   GL2  182   5.046   2.802   9.715  0.1194 -0.2924 -0.1117
   12loPI   C1A  183   5.112   2.502   9.291 -0.2885  0.1024  0.0813
   12loPI   C2A  184   5.027   2.475   8.964  0.0346  0.1480 -0.0984
   12loPI   C3A  185   5.113   2.593   8.570 -0.3441  0.1346  0.0493
   12loPI   C4A  186   4.962   2.536   8.178  0.3674  0.2439 -0.1859
   12loPI   C5A  187   5.051   2.583   7.734  0.1259  0.3046  0.0035
   12loPI   C6A  188   5.101   3.013   7.546  0.1530 -0.1699 -0.3380
   12loPI   C1B  189   5.003   3.004   9.334  0.2071 -0.0103 -0.1069
   12loPI   C2B  190   4.960   3.096   8.930  0.0272 -0.2209  0.0917
   12loPI   C3B  191   4.860   2.983   8.478 -0.0424 -0.1655  0.3220
   12loPI   C4B  192   4.661   2.882   7.961 -0.2673  0.1051 -0.0994
   13loPI    C1  193   2.933  18.443  10.436 -0.1079 -0.1190 -0.0908
   13loPI    C2  194   2.555  18.316  10.473 -0.1981  0.1362 -0.1172
   13loPI    C3  195   2.689  18.617  10.700  0.1133 -0.2186  0.1841
   13loPI   PO4  196   2.975  18.432  10.124 -0.1804  0.2873 -0.1281
   13loPI   GL1  197   2.811  18.506   9.767 -0.1865  0.0715  0.0285
   13loPI   GL2  198   2.909  18.163   9.637  0.0812  0.1587 -0.0329
   13loPI   C1A  199   2.799  18.790   9.515 -0.3056  0.3343  0.2595
   13loPI   C2A  200   2.953  18.876   9.096  0.0022  0.0213 -0.0397
   13loPI   C3A  201   2.871  18.894   8.726 -0.1405  0.1285 -0.2632
   13loPI   C4A  202   2.861  18.732   8.439 -0.1522 -0.2015 -0.0206
   13loPI   C5A  203   2.795  18.794   8.048 -0.1386  0.1877 -0.2663
   13loPI   C6A  204   2.785  18.705   7.652  0.0251 -0.0624 -0.3727
   13loPI   C1B  205   2.901  18.394   9.229  0.0013  0.2463 -0.0576
   13loPI   C2B  206   2.914  18.415   8.851 -0.3968 -0.0354 -0.1713
   13loPI   C3B  207   3.344  18.439   8.584  0.0378 -0.3758  0.1957
   13loPI   C4B  208   3.713  18.535   8.402  0.0805 -0.0243 -0.2487
   14loPI    C1  209  17.200  12.472  10.124  0.1072 -0.0839  0.2745
   14loPI    C2  210  17.436  12.790  10.182 -0.0547  0.1997 -0.5047
   14loPI    C3  211  17.047  12.809  10.276  0.0194  0.0791 -0.1609
   14loPI   PO4  212  17.391  12.317   9.931 -0.1308 -0.1390  0.1076
   14loPI   GL1  213  17.342  12.320   9.562 -0.0564  0.0731 -0.0458
   14loPI   GL2  214  17.094  12.125   9.480  0.1989  0.0471  0.0493
   14loPI   C1A  215  17.563  12.231   9.184  0.2103 -0.3274 -0.0395
   14loPI   C2A  216  17.630  12.069   8.745  0.2227  0.0210 -0.1248
   14loPI   C3A  217  17.525  11.891   8.356 -0.1482 -0.0446 -0.1116
   14loPI   C4A  218  17.609  11.965   7.958 -0.0157 -0.1910 -0.0982
   14loPI   C5A  219  17.828  11.829   7.593 -0.2243  0.0263  0.0936
   14loPI   C6A  220  17.698  11.879   7.177 -0.1169 -0.0693  0.1018
   14loPI   C1B  221  17.116  12.156   8.998  0.0426 -0.1668 -0.0067
   14loPI   C2B  222  17.016  12.216   8.571 -0.3071  0.1209  0.2446
   14loPI   C3B  223  17.012  12.236   8.111 -0.0723  0.3785 -0.0755
   14loPI   C4B  224  16.687  12.400   7.847  0.2145  0.1370  0.1805
   15loPI    C1  225  15.780  12.567  10.121  0.1746  0.1279  0.1488
   15loPI    C2  226  16.046  12.318   9.957  0.1093  0.1476  0.0118
   15loPI    C3  227  16.170  12.651  10.140  0.1706  0.2427 -0.1994
   15loPI   PO4  228  15.573  12.513   9.975  0.0207 -0.0718  0.1059
   15loPI   GL1  229  15.639  12.499   9.551  0.1959 -0.1444  0.2345
   15loPI   GL2  230  15.498  12.812   9.628 -0.0789  0.0668  0.0145
   15loPI   C1A  231  15.763  12.576   9.166 -0.0786 -0.1388  0.0993
   15loPI   C2A  232  15.932  12.568   8.819  0.1468  0.1670  0.0906
   15loPI   C3A  233  15.838  12.637   8.359  0.0836 -0.3789 -0.0329
   15loPI   C4A  234  15.783  12.925   8.020  0.0848  0.1017  0.2215
   15loPI   C5A  235  15.997  13.098   7.734  0.0756 -0.2296 -0.0390
   15loPI   C6A  236  16.249  13.352   7.456 -0.0180  0.0851  0.1812
   15loPI   C1B  237  15.369  12.979   9.189  0.1009  0.2201  0.4393
   15loPI   C2B  238  15.212  13.215   8.805 -0.1334  0.0718 -0.2798
   15loPI   C3B  239  15.070  13.357   8.410  0.1749 -0.1931 -0.1945
   15loPI   C4B  240  14.700  13.442   8.212  0.0667  0.0106 -0.4454
   16loPI    C1  241   5.039   1.250  10.528 -0.2614 -0.1238  0.0724
   16loPI    C2  242   4.975   1.572  10.756 -0.3531 -0.1909  0.1423
   16loPI    C3  243   4.705   1.278  10.747 -0.3888 -0.1519 -0.1162
   16loPI   PO4  244   5.240   1.351  10.307 -0.2068  0.1244  0.2861
   16loPI   GL1  245   5.440   1.676  10.015 -0.3305 -0.3197 -0.0111
   16loPI   GL2  246   5.186   1.966   9.881 -0.4220 -0.3768 -0.0079
   16loPI   C1A  247   5.619   1.457   9.628  0.0813 -0.1110 -0.1215
   16loPI   C2A  248   6.121   1.348   9.432 -0.3761  0.1596  0.2426
   16loPI   C3A  249   6.263   0.979   9.196 -0.0371  0.0449  0.3189
   16loPI   C4A  250   6.359   0.740   8.832  0.2789  0.3743  0.0360
   16loPI   C5A  251   6.442   0.476   8.620 -0.2282 -0.0510  0.2430
   16loPI   C6A  252   6.346   0.099   8.445 -0.1914 -0.3475  0.3228
   16loPI   C1B  253   5.424   2.132   9.478 -0.2456 -0.3087 -0.2692
   16loPI   C2B  254   5.407   2.175   9.074 -0.1263 -0.2013 -0.0718
   16loPI   C3B  255   5.499   2.260   8.722 -0.0259 -0.0373 -0.0553
   16loPI   C4B  256   5.566   2.069   8.338  0.2219  0.1383  0.2593
   17loPI    C1  257  14.104  12.977  10.617  0.1792 -0.2058  0.0348
   17loPI    C2  258  13.779  12.919  10.843 -0.0767 -0.0744 -0.2914
   17loPI    C3  259  14.131  12.768  10.957 -0.1924  0.0152  0.2071
   17loPI   PO4  260  14.035  13.003  10.366 -0.0339  0.1011  0.0346
   17loPI   GL1  261  14.022  13.042   9.891 -0.1116  0.0329  0.0350
   17loPI   GL2  262  13.763  13.322  10.087 -0.0762  0.0208 -0.1748
   17loPI   C1A  263  14.146  12.844   9.312 -0.3048  0.0101  0.1292
   17loPI   C2A  264  14.129  12.865   8.854  0.3567 -0.3849 -0.3127
   17loPI   C3A  265  14.021  12.887   8.419  0.1024 -0.1543 -0.0720
   17loPI   C4A  266  14.100  12.676   8.105 -0.1343 -0.0086 -0.2252
   17loPI   C5A  267  14.386  12.548   7.846 -0.0711 -0.0549 -0.0365
   17loPI   C6A  268  14.457  12.389   7.438 -0.0539  0.0213  0.0018
   17loPI   C1B  269  13.684  13.328   9.607  0.0007  0.0826 -0.2517
   17loPI   C2B  270  13.849  13.241   9.113 -0.0452  0.1148 -0.6062
   17loPI   C3B  271  13.778  13.272   8.656 -0.0650  0.0359  0.1265
   17loPI   C4B  272  13.643  13.551   8.362  0.6174  0.0126  0.1372
   18loPI    C1  273   0.473  12.717   9.975  0.1804  0.2037 -0.0706
   18loPI    C2  274   0.512  12.321   9.942 -0.2070  0.1506  0.0597
   18loPI    C3  275   0.678  12.513  10.251 -0.1624  0.0671  0.0879
   18loPI   PO4  276   0.517  12.863   9.771  0.0048  0.3127 -0.0549
   18loPI   GL1  277   0.655  13.212   9.596 -0.2253  0.0862 -0.0215
   18loPI   GL2  278   0.431  13.476   9.396 -0.1571 -0.4334  0.1802
   18loPI   C1A  279   0.696  13.122   9.191  0.2164  0.2179  0.0630
   18loPI   C2A  280   0.639  12.984   8.742  0.0377  0.0525  0.2105
   18loPI   C3A  281   0.556  13.228   8.360  0.0610 -0.1384  0.5253
   18loPI   C4A  282   0.558  13.473   8.134 -0.3406 -0.5467 -0.0321
   18loPI   C5A  283   0.742  13.807   8.038 -0.2614 -0.1228  0.0601
   18loPI   C6A  284   0.843  14.077   7.764 -0.2375 -0.0828 -0.2183
   18loPI   C1B  285   0.381  13.619   8.965 -0.2184 -0.1010 -0.0513
   18loPI   C2B  286   0.488  13.807   8.535 -0.2038 -0.0321 -0.2010
   18loPI   C3B  287   0.616  14.155   8.374 -0.1532 -0.1512  0.0477
   18loPI   C4B  288   0.886  14.393   8.128 -0.1527 -0.0893 -0.0941
   19loPI    C1  289  17.190  10.261   9.667 -0.1169  0.0991 -0.1787
   19loPI    C2  290  17.442  10.482   9.885 -0.1927  0.2639 -0.2559
   19loPI    C3  291  17.190  10.229  10.066  0.1187 -0.0038 -0.1852
   19loPI   PO4  292  17.350  10.252   9.442  0.1601  0.2190  0.1584
   19loPI   GL1  293  17.223  10.368   9.131  0.0927  0.2301 -0.1414
   19loPI   GL2  294  17.426  10.233   8.883  0.2905 -0.0149 -0.0685
   19loPI   C1A  295  17.144  10.656   8.745  0.0498  0.0568 -0.5139
   19loPI   C2A  296  16.946  10.557   8.342 -0.1450 -0.1800  0.1955
   19loPI   C3A  297  16.810  10.469   8.008  0.1410  0.1242  0.0508
   19loPI   C4A  298  16.802  10.459   7.625  0.3719  0.1170  0.0278
   19loPI   C5A  299  16.789  10.176   7.404  0.1027  0.1228 -0.2386
   19loPI   C6A  300  16.706   9.896   7.093  0.1359  0.1131 -0.3767
   19loPI   C1B  301  17.433  10.318   8.480 -0.2057 -0.2494 -0.1256
   19loPI   C2B  302  17.714  10.481   8.157 -0.1569 -0.2830  0.1139
   19loPI   C3B  303  17.807  10.564   7.752  0.1917  0.0030 -0.2131
   19loPI   C4B  304  18.110  10.354   7.543 -0.2957 -0.0059 -0.0650
   20loPI    C1  305   7.002  16.628  10.129 -0.1801  0.1021 -0.0059
   20loPI    C2  306   7.053  16.975  10.321  0.1894 -0.0191  0.1255
   20loPI    C3  307   7.301  16.873  10.024 -0.2647  0.0820 -0.3025
   20loPI   PO4  308   6.768  16.550  10.012 -0.4145 -0.2853  0.0877
   20loPI   GL1  309   6.550  16.382   9.732 -0.2275 -0.2127  0.0601
   20loPI   GL2  310   6.343  16.709   9.608 -0.2884 -0.1083  0.0695
   20loPI   C1A  311   6.618  16.363   9.313 -0.3290  0.1535 -0.1760
   20loPI   C2A  312   6.631  16.459   8.936 -0.0559 -0.4661  0.1526
   20loPI   C3A  313   6.676  16.520   8.564  0.0570 -0.0556  0.2893
   20loPI   C4A  314   6.668  16.576   8.107  0.1658  0.1381 -0.2290
   20loPI   C5A  315   6.442  16.841   7.895  0.1261  0.3300  0.1515
   20loPI   C6A  316   6.184  16.856   7.671 -0.1373  0.1134  0.1309
   20loPI   C1B  317   6.282  16.717   9.200  0.1009 -0.3775  0.3549
   20loPI   C2B  318   6.297  16.862   8.806  0.1108  0.2601 -0.0411
   20loPI   C3B  319   6.330  16.845   8.416  0.1553  0.1203 -0.1596
   20loPI   C4B  320   6.019  16.664   8.100 -0.0952  0.0294 -0.1073
   21loPI    C1  321   0.705   1.660  10.119  0.3061  0.0696  0.1284
   21loPI    C2  322   0.633   1.753  10.501 -0.0954  0.0698  0.0570
   21loPI    C3  323   0.667   1.370  10.391 -0.3718  0.0501  0.0315
   21loPI   PO4  324   0.951   1.760  10.015 -0.0776  0.1525 -0.0696
   21loPI   GL1  325   1.027   1.921   9.641 -0.0384 -0.0835  0.0401
   21loPI   GL2  326   0.888   2.271   9.591 -0.1609 -0.0566  0.2352
   21loPI   C1A  327   1.190   1.794   9.163  0.1197 -0.0241  0.0987
   21loPI   C2A  328   1.251   1.782   8.781 -0.2383 -0.3405  0.1551
   21loPI   C3A  329   1.014   1.784   8.344 -0.0266 -0.2556  0.1993
   21loPI   C4A  330   0.817   2.014   7.993  0.1307 -0.1105  0.4652
   21loPI   C5A  331   0.779   2.200   7.641  0.2415 -0.1474 -0.2739
   21loPI   C6A  332   0.390   2.213   7.307  0.2066  0.1347  0.0592
   21loPI   C1B  333   1.040   2.374   9.286 -0.2752  0.1470  0.3641
   21loPI   C2B  334   1.150   2.314   8.743 -0.1631  0.2723  0.1185
   21loPI   C3B  335   1.318   2.221   8.334 -0.1193 -0.0467 -0.0503
   21loPI   C4B  336   1.602   1.860   8.139  0.1736 -0.1173 -0.4090
   22loPI    C1  337  14.959   8.548   9.917 -0.0180  0.2215 -0.0796
   22loPI    C2  338  15.230   8.829   9.826  0.2510  0.0170  0.0731
   22loPI    C3  339  15.271   8.612  10.160  0.0625 -0.2250 -0.0573
   22loPI   PO4  340  14.774   8.548   9.739 -0.1512 -0.1682 -0.0341
   22loPI   GL1  341  14.345   8.751   9.636 -0.0409  0.2673 -0.0872
   22loPI   GL2  342  14.294   8.423   9.629  0.1305 -0.1412 -0.0268
   22loPI   C1A  343  14.401   8.716   9.241  0.0748  0.3407 -0.1414
   22loPI   C2A  344  14.660   8.744   8.973  0.2472 -0.0979  0.0370
   22loPI   C3A  345  14.718   8.652   8.542  0.3797 -0.0181 -0.1108
   22loPI   C4A  346  14.743   8.770   8.112  0.0649 -0.0714 -0.1246
   22loPI   C5A  347  14.985   8.937   7.815 -0.0644 -0.1567 -0.1173
   22loPI   C6A  348  15.154   8.898   7.527  0.0873  0.3553  0.0018
   22loPI   C1B  349  14.105   8.224   9.369 -0.0961 -0.1324  0.0081
   22loPI   C2B  350  14.061   8.191   9.022  0.0076  0.2861  0.0886
   22loPI   C3B  351  13.891   8.253   8.712 -0.1535 -0.1088  0.1039
   22loPI   C4B  352  13.742   8.650   8.526 -0.1226  0.2473 -0.4321
   23loPI    C1  353   1.017  12.266  10.015  0.2243  0.0046 -0.0089
   23loPI    C2  354   1.346  12.062  10.116  0.0368 -0.2924  0.0137
   23loPI    C3  355   1.023  12.048  10.350  0.0209  0.0351  0.0154
   23loPI   PO4  356   0.935  12.241   9.709  0.0309  0.2871  0.3702
   23loPI   GL1  357   0.703  12.517   9.484 -0.0397  0.1896  0.0967
   23loPI   GL2  358   0.418  12.339   9.445  0.1313  0.2036  0.1254
   23loPI   C1A  359   0.868  12.632   9.073 -0.2122 -0.0148  0.2776
   23loPI   C2A  360   0.716  12.535   8.607 -0.2416 -0.1239  0.0146
   23loPI   C3A  361   0.567  12.757   8.246  0.2137 -0.0200  0.0375
   23loPI   C4A  362   0.591  13.012   7.912 -0.1881  0.0847 -0.4605
   23loPI   C5A  363   0.236  13.231   7.751 -0.2585 -0.1218 -0.2441
   23loPI   C6A  364  -0.144  13.483   7.626 -0.1316 -0.0194 -0.2849
   23loPI   C1B  365   0.430  12.302   8.982 -0.1471  0.1031  0.0589
   23loPI   C2B  366   0.273  12.044   8.636  0.3452  0.2172 -0.3378
   23loPI   C3B  367   0.110  12.012   8.197 -0.4894  0.1563 -0.1531
   23loPI   C4B  368   0.021  12.061   7.737 -0.1275  0.2133  0.1358
   24loPI    C1  369  10.267   3.326  10.793  0.0896 -0.0962 -0.0642
   24loPI    C2  370  10.486   3.459  10.487 -0.0225  0.3588  0.0455
   24loPI    C3  371  10.587   3.555  10.861 -0.1664  0.2144  0.1226
   24loPI   PO4  372  10.270   3.035  10.725 -0.1489  0.0335  0.1443
   24loPI   GL1  373  10.207   2.852  10.291 -0.0711 -0.0949 -0.0464
   24loPI   GL2  374  10.253   3.115  10.188  0.0816 -0.0538 -0.1340
   24loPI   C1A  375  10.465   2.794   9.898 -0.0569 -0.3827 -0.1020
   24loPI   C2A  376  10.443   2.632   9.434 -0.0896  0.0986  0.0354
   24loPI   C3A  377  10.309   2.746   8.885 -0.1291 -0.0168  0.1371
   24loPI   C4A  378  10.429   2.820   8.462  0.0859  0.2160  0.0883
   24loPI   C5A  379  10.663   2.802   8.042 -0.4080 -0.2083  0.0605
   24loPI   C6A  380  10.969   2.757   7.738 -0.2148  0.1717  0.1179
   24loPI   C1B  381  10.016   2.995   9.804  0.0357 -0.2520 -0.2243
   24loPI   C2B  382   9.896   2.777   9.431  0.1900 -0.0840  0.1165
   24loPI   C3B  383   9.773   2.451   9.086 -0.1010  0.3139 -0.1927
   24loPI   C4B  384   9.707   2.481   8.623 -0.0593  0.3744  0.2033
   25loPI    C1  385  17.834   3.915   9.656 -0.1304  0.1654 -0.0793
   25loPI    C2  386  17.859   4.266   9.845  0.1494  0.1203 -0.0289
   25loPI    C3  387  17.507   4.141   9.703  0.0247  0.3646  0.0588
   25loPI   PO4  388  18.170   3.912   9.581  0.2125  0.1855 -0.4201
   25loPI   GL1  389  18.518   3.775   9.279 -0.5070  0.1417  0.1860
   25loPI   GL2  390  18.440   3.498   9.348  0.0583 -0.3773 -0.0920
   25loPI   C1A  391  18.527   3.747   8.753 -0.0270 -0.2392  0.2131
   25loPI   C2A  392  18.602   3.645   8.360 -0.0836 -0.2362  0.1496
   25loPI   C3A  393  18.738   3.458   7.939  0.2314  0.2895 -0.0047
   25loPI   C4A  394  18.845   3.561   7.490 -0.1817 -0.0867  0.1609
   25loPI   C5A  395  18.794   3.338   7.146 -0.2348  0.4229  0.1108
   25loPI   C6A  396  18.963   3.263   6.702  0.0191  0.0592 -0.0509
   25loPI   C1B  397  18.284   3.370   8.966 -0.0112  0.1716 -0.2034
   25loPI   C2B  398  18.359   3.270   8.562 -0.1371 -0.4464  0.0705
   25loPI   C3B  399  18.318   3.281   8.161 -0.0259 -0.0750  0.0916
   25loPI   C4B  400  18.220   3.624   7.740  0.2720 -0.1519 -0.1149
   26loPI    C1  401   0.343   4.646   9.609 -0.0455 -0.0075 -0.1389
   26loPI    C2  402   0.419   4.948   9.358 -0.1817  0.1240 -0.0236
   26loPI    C3  403   0.290   5.023   9.729  0.1368 -0.0646  0.1293
   26loPI   PO4  404   0.567   4.407   9.604  0.4605 -0.2266  0.0599
   26loPI   GL1  405   0.383   4.120   9.331 -0.2171 -0.3031  0.3707
   26loPI   GL2  406   0.648   4.008   9.239  0.2787 -0.1151  0.0758
   26loPI   C1A  407   0.284   4.104   8.853 -0.0661  0.1811  0.0260
   26loPI   C2A  408   0.225   4.086   8.303  0.0028  0.1564 -0.1967
   26loPI   C3A  409   0.063   4.007   7.977 -0.0317 -0.0338 -0.1297
   26loPI   C4A  410   0.014   3.968   7.579 -0.1852  0.2514 -0.0120
   26loPI   C5A  411  -0.074   3.818   7.134 -0.4052 -0.2643 -0.0074
   26loPI   C6A  412  -0.021   3.910   6.671  0.4041 -0.2688 -0.0356
   26loPI   C1B  413   0.686   3.723   8.841  0.0680  0.0296  0.0591
   26loPI   C2B  414   0.475   3.692   8.487 -0.1686  0.1465  0.1638
   26loPI   C3B  415   0.551   3.284   8.140 -0.2913 -0.2970  0.1516
   26loPI   C4B  416   0.559   3.118   7.792 -0.3975 -0.3466  0.0860
   27loPI    C1  417   7.601   8.741  10.035 -0.0428  0.0126  0.2601
   27loPI    C2  418   7.328   9.023   9.955  0.0803  0.1047  0.1609
   27loPI    C3  419   7.213   8.666  10.095 -0.0939  0.1298  0.0838
   27loPI   PO4  420   7.749   8.743   9.851  0.3408 -0.0471 -0.1143
   27loPI   GL1  421   7.888   8.745   9.509  0.0293  0.0294 -0.0555
   27loPI   GL2  422   7.592   9.012   9.478 -0.1985  0.2319 -0.1022
   27loPI   C1A  423   7.904   8.326   9.251 -0.0003  0.0095 -0.2971
   27loPI   C2A  424   8.032   8.373   8.874  0.1535 -0.2528 -0.1507
   27loPI   C3A  425   7.844   8.283   8.525 -0.2925  0.2477  0.0703
   27loPI   C4A  426   7.653   8.487   8.219  0.2122 -0.1735  0.1437
   27loPI   C5A  427   7.386   8.817   7.899  0.1259 -0.0359 -0.0513
   27loPI   C6A  428   7.320   8.811   7.526 -0.2249 -0.1129 -0.1169
   27loPI   C1B  429   7.747   8.769   9.053 -0.2592 -0.0857 -0.2508
   27loPI   C2B  430   7.605   8.832   8.557 -0.1044 -0.2446 -0.5155
   27loPI   C3B  431   7.740   9.038   8.189 -0.1821 -0.2013 -0.2902
   27loPI   C4B  432   7.773   9.050   7.750 -0.2834 -0.0352 -0.2410
   28loPI    C1  433   6.457   6.059  10.280  0.4528 -0.1128  0.0542
   28loPI    C2  434   6.337   5.723  10.460  0.1850 -0.0200  0.0539
   28loPI    C3  435   6.163   6.071  10.551  0.2371  0.0698 -0.1834
   28loPI   PO4  436   6.460   6.005  10.075 -0.0955 -0.1216  0.1546
   28loPI   GL1  437   6.223   6.036   9.728  0.0200  0.0977 -0.0854
   28loPI   GL2  438   6.271   5.892   9.428 -0.1938  0.0936  0.1195
   28loPI   C1A  439   5.817   6.016   9.500  0.0407  0.0905 -0.0725
   28loPI   C2A  440   5.768   6.101   9.100 -0.2130  0.1237  0.0786
   28loPI   C3A  441   5.755   6.082   8.748 -0.2891  0.1596  0.2413
   28loPI   C4A  442   5.702   6.137   8.337  0.1631 -0.0185 -0.0057
   28loPI   C5A  443   5.553   6.051   7.905  0.4821 -0.0513 -0.1659
   28loPI   C6A  444   5.794   5.971   7.561 -0.0920  0.0183 -0.0641
   28loPI   C1B  445   6.213   5.835   8.961 -0.2933 -0.1490  0.2689
   28loPI   C2B  446   6.172   5.860   8.520 -0.1839  0.0737 -0.3089
   28loPI   C3B  447   6.093   5.961   8.135 -0.3410 -0.0339 -0.0221
   28loPI   C4B  448   5.983   6.355   7.934 -0.1720  0.1012 -0.0372
   29loPI    C1  449  13.328   3.795  10.440  0.1810 -0.2034 -0.2520
   29loPI    C2  450  13.058   3.505  10.491  0.1244 -0.0812  0.1865
   29loPI    C3  451  13.257   3.650  10.806  0.1680  0.3416 -0.0289
   29loPI   PO4  452  13.248   3.827  10.170  0.2410 -0.2496 -0.2650
   29loPI   GL1  453  13.152   3.893   9.716 -0.0982 -0.3234  0.1554
   29loPI   GL2  454  13.373   4.082   9.680  0.2715  0.1380 -0.0214
   29loPI   C1A  455  12.832   4.008   9.369  0.1816 -0.0309 -0.0507
   29loPI   C2A  456  12.558   3.862   9.131  0.0997  0.0707 -0.1339
   29loPI   C3A  457  12.404   3.619   8.824  0.1297 -0.2104  0.0563
   29loPI   C4A  458  12.046   3.685   8.486 -0.1310 -0.0602 -0.2873
   29loPI   C5A  459  11.678   3.904   8.656  0.0135  0.0222 -0.2230
   29loPI   C6A  460  11.547   4.053   8.990  0.1181 -0.2098 -0.1347
   29loPI   C1B  461  13.561   3.756   9.402 -0.2563 -0.1004 -0.2226
   29loPI   C2B  462  13.657   3.501   9.018 -0.0849  0.0342  0.1090
   29loPI   C3B  463  13.672   3.051   8.717 -0.1238 -0.1487 -0.4654
   29loPI   C4B  464  13.583   3.103   8.227 -0.0767  0.0073  0.0161
   30loPI    C1  465   1.255  15.550  10.210 -0.0145 -0.1214  0.1871
   30loPI    C2  466   1.376  15.930  10.179  0.1474 -0.1917 -0.0722
   30loPI    C3  467   1.086  15.833  10.436  0.0407  0.1216 -0.0701
   30loPI   PO4  468   1.383  15.430   9.963 -0.0388 -0.0122 -0.0519
   30loPI   GL1  469   1.311  15.441   9.478 -0.1207 -0.1012  0.1410
   30loPI   GL2  470   1.542  15.797   9.613  0.0198 -0.0245  0.1424
   30loPI   C1A  471   0.932  15.597   9.280  0.0427  0.2430 -0.1505
   30loPI   C2A  472   0.785  15.562   8.887  0.0380  0.1876 -0.2473
   30loPI   C3A  473   0.967  15.671   8.538  0.0012  0.0070 -0.2978
   30loPI   C4A  474   0.813  15.377   8.280 -0.2683 -0.0543 -0.0718
   30loPI   C5A  475   0.505  15.310   7.896  0.2530 -0.0439 -0.0052
   30loPI   C6A  476   0.386  15.101   7.454  0.0118 -0.3395 -0.1277
   30loPI   C1B  477   1.624  15.928   9.226 -0.2979  0.0147  0.0172
   30loPI   C2B  478   1.985  15.917   8.841 -0.0157  0.2307 -0.1165
   30loPI   C3B  479   2.098  15.921   8.399  0.2487  0.1397  0.0008
   30loPI   C4B  480   2.136  15.927   7.881 -0.1133  0.0783 -0.0317
   31loPI    C1  481  17.803   9.808   9.117  0.2078 -0.2013 -0.1595
   31loPI    C2  482  17.922  10.189   9.090 -0.1313 -0.0936 -0.1786
   31loPI    C3  483  18.178   9.909   9.216  0.0763  0.1647 -0.0142
   31loPI   PO4  484  17.554   9.771   9.212  0.2167  0.1615 -0.0066
   31loPI   GL1  485  17.193   9.759   8.950  0.3159  0.0841  0.4830
   31loPI   GL2  486  17.458   9.756   8.742 -0.0758 -0.3434 -0.1169
   31loPI   C1A  487  16.962  10.044   8.747 -0.0905  0.0065 -0.0182
   31loPI   C2A  488  16.809  10.070   8.298  0.1335  0.0947 -0.1630
   31loPI   C3A  489  17.034  10.028   7.873  0.2298 -0.1127 -0.0644
   31loPI   C4A  490  17.205   9.979   7.562 -0.2223 -0.2160 -0.0498
   31loPI   C5A  491  17.239  10.001   7.209  0.3319  0.1286  0.0800
   31loPI   C6A  492  17.273  10.140   6.873 -0.1368 -0.0031 -0.3052
   31loPI   C1B  493  17.154   9.731   8.342 -0.1491  0.0611  0.1903
   31loPI   C2B  494  17.183   9.591   7.917  0.1663 -0.2423  0.1315
   31loPI   C3B  495  17.489   9.595   7.591  0.1219 -0.1390 -0.1028
   31loPI   C4B  496  17.730   9.990   7.540 -0.1039  0.0063  0.0430
   32loPI    C1  497   5.434  16.218  10.269  0.3703 -0.0166 -0.2733
   32loPI    C2  498   5.691  16.525  10.261  0.2062  0.1447  0.2330
   32loPI    C3  499   5.546  16.395  10.610 -0.1811 -0.1311 -0.0225
   32loPI   PO4  500   5.229  16.259  10.146  0.1172 -0.3291 -0.0580
   32loPI   GL1  501   4.948  16.152   9.881 -0.2343  0.2725  0.2406
   32loPI   GL2  502   4.907  16.417   9.692 -0.0849 -0.1518  0.3676
   32loPI   C1A  503   4.911  15.985   9.410 -0.2395  0.1247  0.2873
   32loPI   C2A  504   4.959  16.095   9.081 -0.2179 -0.0454 -0.0170
   32loPI   C3A  505   4.961  15.813   8.833  0.0207  0.0011  0.2383
   32loPI   C4A  506   4.829  15.657   8.437  0.1746 -0.2022 -0.1601
   32loPI   C5A  507   4.718  15.905   8.074 -0.1014  0.1284 -0.0457
   32loPI   C6A  508   4.806  16.167   7.647 -0.1455 -0.1548 -0.1832
   32loPI   C1B  509   4.981  16.491   9.352  0.0160 -0.0073 -0.1805
   32loPI   C2B  510   5.251  16.518   9.026  0.2700 -0.2706  0.0778
   32loPI   C3B  511   5.309  16.526   8.597 -0.0861 -0.2135 -0.0660
   32loPI   C4B  512   5.472  16.599   8.157  0.2188 -0.0985 -0.0161
   33loPI    C1  513  17.855  13.083  10.023  0.1697  0.1879  0.2450
   33loPI    C2  514  17.503  13.209   9.881  0.0890 -0.0452  0.2343
   33loPI    C3  515  17.609  13.294  10.257 -0.0389 -0.0883  0.2805
   33loPI   PO4  516  18.023  13.144   9.771 -0.2073  0.0426  0.0768
   33loPI   GL1  517  17.847  13.130   9.407  0.0801 -0.0059 -0.0010
   33loPI   GL2  518  17.827  12.877   9.245 -0.1781 -0.1664 -0.3107
   33loPI   C1A  519  17.926  13.318   9.014  0.0686  0.1679  0.0451
   33loPI   C2A  520  18.252  13.643   8.850 -0.0436  0.3935  0.1059
   33loPI   C3A  521  18.544  13.947   8.785 -0.0328 -0.0891 -0.0685
   33loPI   C4A  522  18.672  14.083   8.405  0.3122  0.0735 -0.1997
   33loPI   C5A  523  18.486  14.163   7.964  0.2227  0.0512  0.1417
   33loPI   C6A  524  18.193  13.906   7.711  0.3177  0.0329 -0.3329
   33loPI   C1B  525  17.808  12.876   8.798 -0.0326 -0.0815  0.2519
   33loPI   C2B  526  17.814  13.224   8.511 -0.1172  0.1226 -0.0426
   33loPI   C3B  527  18.089  13.471   8.362 -0.2091 -0.2851 -0.2398
   33loPI   C4B  528  18.243  13.793   8.208 -0.1110  0.0797  0.0124
   34loPI    C1  529   2.863  12.111  10.106 -0.0217 -0.2686 -0.2295
   34loPI    C2  530   2.641  11.862  10.328 -0.1627 -0.2214 -0.3167
   34loPI    C3  531   3.017  11.764  10.232 -0.0754 -0.2098  0.0033
   34loPI   PO4  532   2.735  12.211   9.811 -0.0362  0.0460 -0.0353
   34loPI   GL1  533   2.643  12.316   9.321 -0.1055 -0.1616  0.0751
   34loPI   GL2  534   2.564  12.630   9.551 -0.0074  0.0789 -0.0862
   34loPI   C1A  535   2.697  12.381   8.914 -0.1607  0.1175  0.0015
   34loPI   C2A  536   2.682  12.402   8.497  0.2851 -0.0234  0.0217
   34loPI   C3A  537   2.814  12.327   8.064  0.0012 -0.0903  0.2166
   34loPI   C4A  538   2.989  12.236   7.706 -0.0033  0.1011  0.1961
   34loPI   C5A  539   2.817  12.086   7.362 -0.2634  0.0535 -0.0063
   34loPI   C6A  540   2.631  11.844   7.103 -0.3748  0.0308 -0.0551
   34loPI   C1B  541   2.320  12.675   9.104  0.1714 -0.1853  0.3135
   34loPI   C2B  542   2.417  12.797   8.694  0.1976 -0.1871 -0.0068
   34loPI   C3B  543   2.442  12.783   8.244  0.0163  0.1557 -0.0105
   34loPI   C4B  544   2.464  12.755   7.777  0.3390  0.2729 -0.3625
   35loPI    C1  545   6.546  16.891  10.505  0.0640  0.0725 -0.2644
   35loPI    C2  546   6.783  16.579  10.586 -0.1976 -0.0917 -0.1182
   35loPI    C3  547   6.811  16.914  10.804 -0.1414 -0.1320 -0.0629
   35loPI   PO4  548   6.579  16.938  10.209  0.3734 -0.0914  0.0516
   35loPI   GL1  549   6.798  16.922   9.734  0.2182 -0.1282 -0.0058
   35loPI   GL2  550   6.851  17.201   9.812 -0.2114 -0.0836  0.0522
   35loPI   C1A  551   6.764  16.835   9.269 -0.0877 -0.4006  0.3082
   35loPI   C2A  552   6.841  16.990   8.826 -0.3494 -0.1784  0.1416
   35loPI   C3A  553   6.822  17.019   8.371  0.1087  0.0705 -0.0557
   35loPI   C4A  554   6.813  17.206   8.047  0.1948  0.1245  0.4705
   35loPI   C5A  555   6.587  17.638   8.020  0.0623  0.1348  0.0562
   35loPI   C6A  556   6.630  18.008   8.126  0.4771 -0.2800  0.0296
   35loPI   C1B  557   6.847  17.306   9.370  0.1017 -0.1654  0.1000
   35loPI   C2B  558   6.704  17.479   8.914  0.3231 -0.2278 -0.0214
   35loPI   C3B  559   6.612  17.807   8.696 -0.0776 -0.1524 -0.1337
   35loPI   C4B  560   6.551  18.167   8.587 -0.0223  0.4772  0.0390
   36loPI    C1  561  17.746  12.680   9.715 -0.1074 -0.3426 -0.0008
   36loPI    C2  562  17.845  12.503  10.060 -0.0794 -0.0706  0.1329
   36loPI    C3  563  18.131  12.625   9.808 -0.0785  0.2856  0.3001
   36loPI   PO4  564  17.547  12.769   9.718  0.0502  0.2236 -0.0754
   36loPI   GL1  565  17.228  12.800   9.657  0.1872 -0.1392  0.3212
   36loPI   GL2  566  16.960  12.640   9.662 -0.0332 -0.1785 -0.1681
   36loPI   C1A  567  17.227  12.739   9.195  0.3519  0.2100 -0.0956
   36loPI   C2A  568  17.385  12.545   8.833 -0.4007 -0.3563 -0.2233
   36loPI   C3A  569  17.475  12.431   8.404 -0.0505  0.0963 -0.1381
   36loPI   C4A  570  17.488  12.488   7.978  0.0107 -0.1367  0.0697
   36loPI   C5A  571  17.636  12.800   7.874  0.0613  0.1402  0.0737
   36loPI   C6A  572  17.619  13.236   7.981  0.2492  0.2452 -0.0678
   36loPI   C1B  573  16.766  12.504   9.208 -0.1312 -0.2399  0.0050
   36loPI   C2B  574  16.748  12.568   8.770 -0.1667  0.0525 -0.1463
   36loPI   C3B  575  16.763  12.639   8.267 -0.2522  0.0451  0.0287
   36loPI   C4B  576  17.101  12.821   7.928  0.1603  0.2540 -0.1073
   37loPI    C1  577  12.399  11.096  10.137 -0.0908  0.1069 -0.1322
   37loPI    C2  578  12.166  10.775  10.087 -0.0783  0.0714  0.0344
   37loPI    C3  579  12.530  10.735  10.248  0.0236  0.1342 -0.1773
   37loPI   PO4  580  12.422  11.282   9.958 -0.0802  0.2622  0.2482
   37loPI   GL1  581  12.593  11.260   9.565 -0.0617  0.1481 -0.1883
   37loPI   GL2  582  12.776  11.551   9.660 -0.0304  0.1427 -0.0814
   37loPI   C1A  583  12.562  11.124   9.180  0.1625 -0.2719  0.1412
   37loPI   C2A  584  12.293  11.089   8.788 -0.2592 -0.0389 -0.1476
   37loPI   C3A  585  12.163  11.059   8.341  0.0840 -0.0718  0.1206
   37loPI   C4A  586  12.209  10.863   7.910 -0.1042 -0.0294 -0.0872
   37loPI   C5A  587  12.217  10.430   7.897  0.2382 -0.2784 -0.2627
   37loPI   C6A  588  12.252  10.070   8.122  0.0147 -0.0080 -0.0359
   37loPI   C1B  589  12.975  11.509   9.365 -0.2515 -0.2270  0.3601
   37loPI   C2B  590  12.945  11.433   8.995  0.1237  0.0248 -0.1093
   37loPI   C3B  591  12.779  11.113   8.639 -0.2465 -0.0691 -0.1166
   37loPI   C4B  592  12.941  10.960   8.279 -0.0263  0.1665  0.0349
   38loPI    C1  593   7.435  17.789  10.279  0.0041  0.1384 -0.0288
   38loPI    C2  594   7.772  17.738  10.488 -0.0695 -0.0031  0.0564
   38loPI    C3  595   7.417  17.667  10.659 -0.1257 -0.2401 -0.1509
   38loPI   PO4  596   7.605  18.091  10.173  0.0427 -0.1489  0.3179
   38loPI   GL1  597   7.712  18.038   9.761 -0.0955  0.0578 -0.2829
   38loPI   GL2  598   7.502  17.881   9.644 -0.2515  0.2523  0.0693
   38loPI   C1A  599   7.942  18.194   9.367  0.1095  0.1134 -0.1132
   38loPI   C2A  600   8.297  18.195   9.084 -0.1531 -0.1191 -0.1463
   38loPI   C3A  601   8.382  18.225   8.705  0.0765 -0.1032 -0.0872
   38loPI   C4A  602   8.490  18.256   8.326 -0.1219 -0.1858  0.1008
   38loPI   C5A  603   8.514  18.055   7.868  0.1685 -0.1702  0.0247
   38loPI   C6A  604   8.318  17.950   7.607  0.0317  0.1354 -0.0048
   38loPI   C1B  605   7.528  17.901   9.271 -0.0552 -0.1632 -0.0193
   38loPI   C2B  606   7.795  17.945   8.945 -0.2201 -0.0714 -0.0631
   38loPI   C3B  607   7.937  18.050   8.548 -0.1640 -0.2240  0.1746
   38loPI   C4B  608   8.060  18.025   8.075 -0.0866 -0.0473 -0.4458
   39loPI    C1  609   6.940  14.010  10.061  0.0956 -0.2472 -0.0694
   39loPI    C2  610   7.033  14.110  10.437  0.0282 -0.0065 -0.1146
   39loPI    C3  611   6.674  13.954  10.354  0.0212 -0.0046 -0.0879
   39loPI   PO4  612   7.199  14.035   9.953  0.0563 -0.0535 -0.3541
   39loPI   GL1  613   7.501  14.148   9.639 -0.0194  0.1055 -0.1184
   39loPI   GL2  614   7.696  14.411   9.807  0.0053  0.1656  0.0841
   39loPI   C1A  615   7.677  14.296   9.220 -0.0827 -0.0092 -0.1342
   39loPI   C2A  616   7.735  14.482   8.835 -0.2434 -0.1309 -0.2159
   39loPI   C3A  617   7.759  14.432   8.435  0.0719  0.0717 -0.0124
   39loPI   C4A  618   7.791  14.359   8.070 -0.1131  0.2347 -0.0585
   39loPI   C5A  619   7.916  14.510   7.709  0.0938 -0.2988  0.0580
   39loPI   C6A  620   7.685  14.359   7.355 -0.0946 -0.1105 -0.1703
   39loPI   C1B  621   7.950  14.571   9.462  0.1080  0.0457  0.2422
   39loPI   C2B  622   8.084  14.815   9.076  0.1916  0.0625 -0.1968
   39loPI   C3B  623   8.114  14.721   8.613 -0.1544  0.0653 -0.2765
   39loPI   C4B  624   8.180  14.602   8.252 -0.1203  0.1980  0.0023
   40loPI    C1  625   2.478  16.096  10.130 -0.2941  0.0186  0.2179
   40loPI    C2  626   2.364  16.379  10.389  0.0854  0.3372  0.0485
   40loPI    C3  627   2.362  16.455   9.997  0.1580  0.0897 -0.0019
   40loPI   PO4  628   2.373  15.900  10.141  0.3435 -0.0270  0.1402
   40loPI   GL1  629   2.257  15.609   9.848  0.2293  0.0928 -0.2290
   40loPI   GL2  630   2.345  15.246   9.670  0.0487 -0.1600 -0.0588
   40loPI   C1A  631   2.353  15.679   9.358  0.0276  0.0328  0.0552
   40loPI   C2A  632   2.512  15.892   9.040  0.0404 -0.1019 -0.1580
   40loPI   C3A  633   2.600  15.982   8.601 -0.0204  0.0897 -0.3286
   40loPI   C4A  634   2.627  16.042   8.233 -0.0915  0.0036 -0.0477
   40loPI   C5A  635   2.728  16.380   7.916  0.0645  0.0684 -0.2542
   40loPI   C6A  636   2.989  16.687   8.030  0.0267  0.0493  0.0164
   40loPI   C1B  637   2.519  15.117   9.348 -0.1333 -0.0710  0.0574
   40loPI   C2B  638   2.480  14.997   8.936  0.0734 -0.0689  0.1917
   40loPI   C3B  639   2.570  15.060   8.469  0.0801  0.5358 -0.0938
   40loPI   C4B  640   2.275  15.167   8.046 -0.2616  0.2130  0.2468
   41loPI    C1  641  12.907   1.143  10.632 -0.1546 -0.0744 -0.0617
   41loPI    C2  642  12.620   1.414  10.565 -0.2367 -0.0566  0.3395
   41loPI    C3  643  12.820   1.416  10.911  0.4278  0.0910 -0.0296
   41loPI   PO4  644  12.789   0.921  10.514 -0.0384  0.0276  0.1043
   41loPI   GL1  645  12.746   0.893  10.119  0.1297  0.1648 -0.0920
   41loPI   GL2  646  12.286   0.878  10.147  0.0064  0.3903  0.0384
   41loPI   C1A  647  12.822   0.694   9.735 -0.0794 -0.1432 -0.1409
   41loPI   C2A  648  12.810   0.743   9.207 -0.0091 -0.0336  0.1000
   41loPI   C3A  649  12.469   0.849   8.877  0.3512  0.1105 -0.2248
   41loPI   C4A  650  12.080   0.892   8.577  0.0987 -0.2833 -0.1002
   41loPI   C5A  651  11.708   0.833   8.388  0.1360  0.1988 -0.1889
   41loPI   C6A  652  11.557   0.548   8.115  0.1211  0.0292 -0.1442
   41loPI   C1B  653  12.276   0.872   9.742 -0.0765 -0.2175 -0.0488
   41loPI   C2B  654  12.172   0.865   9.271  0.1843 -0.1363  0.0430
   41loPI   C3B  655  11.842   0.794   8.983 -0.1419 -0.2138 -0.0650
   41loPI   C4B  656  11.733   0.414   8.648  0.0908 -0.1314  0.1091
   42loPI    C1  657  18.230  10.964   9.425 -0.0957  0.0139 -0.0004
   42loPI    C2  658  18.339  10.822   9.783  0.0235 -0.1434 -0.0977
   42loPI    C3  659  18.617  10.951   9.526 -0.0665  0.0313 -0.1092
   42loPI   PO4  660  17.985  11.099   9.473  0.1363 -0.1255 -0.3172
   42loPI   GL1  661  17.633  11.206   9.370 -0.0338  0.0469 -0.0063
   42loPI   GL2  662  17.801  11.539   9.373 -0.1067 -0.0626 -0.2435
   42loPI   C1A  663  17.613  11.000   8.937  0.1261  0.1049  0.2540
   42loPI   C2A  664  17.581  10.872   8.587  0.1891 -0.1847  0.1665
   42loPI   C3A  665  17.381  10.851   8.145  0.1083  0.2273 -0.0926
   42loPI   C4A  666  17.229  10.711   7.826 -0.1995  0.0645  0.0555
   42loPI   C5A  667  17.410  10.419   7.531  0.1809  0.3137 -0.1068
   42loPI   C6A  668  17.696  10.396   7.167 -0.0789  0.3638  0.1660
   42loPI   C1B  669  17.597  11.492   8.988  0.1924 -0.1703 -0.1478
   42loPI   C2B  670  17.715  11.390   8.507 -0.0647 -0.0340  0.1465
   42loPI   C3B  671  17.529  11.339   8.054 -0.1741  0.3434 -0.1085
   42loPI   C4B  672  17.635  11.013   7.737  0.0592 -0.0375  0.0208
   43loPI    C1  673   9.603   8.063  10.724 -0.0974 -0.0698  0.1788
   43loPI    C2  674   9.811   8.315  10.954  0.1238 -0.1665  0.0875
   43loPI    C3  675   9.443   8.414  10.831  0.1253  0.0184  0.2266
   43loPI   PO4  676   9.796   7.943  10.497  0.1097 -0.3203  0.1553
   43loPI   GL1  677  10.061   8.066  10.121 -0.0105 -0.1285  0.2398
   43loPI   GL2  678  10.134   7.717   9.915 -0.0212  0.3724 -0.1478
   43loPI   C1A  679  10.032   8.350   9.810 -0.1983 -0.2265 -0.0239
   43loPI   C2A  680  10.053   8.431   9.383  0.2092  0.2729 -0.0017
   43loPI   C3A  681  10.044   8.371   8.863 -0.2282  0.0678 -0.5069
   43loPI   C4A  682   9.995   8.346   8.421 -0.0168 -0.1905 -0.1360
   43loPI   C5A  683   9.886   8.565   8.055 -0.1276  0.0229 -0.3434
   43loPI   C6A  684   9.974   8.770   7.614 -0.1635 -0.1780  0.2015
   43loPI   C1B  685  10.005   7.901   9.532 -0.1880 -0.0128 -0.0748
   43loPI   C2B  686   9.981   7.917   9.098  0.0006  0.0877  0.0438
   43loPI   C3B  687  10.028   7.833   8.703  0.0103  0.1306  0.0384
   43loPI   C4B  688   9.983   7.610   8.222  0.1614  0.1510 -0.1563
   44loPI    C1  689   2.549   7.126   9.523  0.1366  0.0736  0.1749
   44loPI    C2  690   2.149   7.117   9.521  0.1378 -0.0616 -0.1635
   44loPI    C3  691   2.343   7.380   9.753 -0.1463  0.0354 -0.0319
   44loPI   PO4  692   2.627   6.918   9.514  0.3849  0.1616 -0.3222
   44loPI   GL1  693   2.769   6.650   9.306 -0.3799 -0.0466 -0.1010
   44loPI   GL2  694   3.005   6.481   9.430 -0.1378  0.1865 -0.0479
   44loPI   C1A  695   2.937   6.494   8.906 -0.0844 -0.0964 -0.1501
   44loPI   C2A  696   3.026   6.210   8.595 -0.1741 -0.0040 -0.1425
   44loPI   C3A  697   3.270   5.872   8.365  0.5197  0.3075  0.2817
   44loPI   C4A  698   3.342   5.696   7.999  0.3000  0.2020  0.0443
   44loPI   C5A  699   3.359   5.725   7.565  0.2438 -0.0004 -0.2689
   44loPI   C6A  700   3.618   5.776   7.186 -0.2817 -0.1598 -0.0070
   44loPI   C1B  701   3.209   6.195   9.163  0.0257  0.0377  0.1373
   44loPI   C2B  702   3.404   5.919   8.871  0.1868  0.0778 -0.2115
   44loPI   C3B  703   3.651   5.540   8.633  0.2299 -0.1981 -0.2386
   44loPI   C4B  704   3.503   5.188   8.624  0.3247  0.1011 -0.0272
   45loPI    C1  705   1.006  16.313  10.276 -0.0420 -0.0100 -0.0287
   45loPI    C2  706   0.768  16.468  10.558 -0.0497  0.0588 -0.0727
   45loPI    C3  707   1.058  16.691  10.395  0.3265 -0.1537  0.2870
   45loPI   PO4  708   0.865  16.252  10.117 -0.3948  0.0518  0.0885
   45loPI   GL1  709   0.747  16.352   9.726 -0.1314 -0.3434  0.1376
   45loPI   GL2  710   0.451  16.404   9.566 -0.2421  0.0292  0.1158
   45loPI   C1A  711   0.763  16.472   9.215  0.2132  0.3162  0.0350
   45loPI   C2A  712   0.979  16.439   8.844 -0.1731 -0.0892 -0.2647
   45loPI   C3A  713   1.074  16.483   8.459 -0.0962 -0.0316 -0.2164
   45loPI   C4A  714   1.538  16.443   8.213  0.2879  0.1474  0.1726
   45loPI   C5A  715   1.949  16.428   7.936  0.0152  0.0536  0.0536
   45loPI   C6A  716   2.276  16.506   7.678  0.0308  0.3017 -0.2536
   45loPI   C1B  717   0.233  16.343   9.293 -0.2439  0.0435  0.1943
   45loPI   C2B  718   0.294  16.356   8.884 -0.1192  0.0887 -0.0317
   45loPI   C3B  719   0.242  16.176   8.448  0.0258  0.1428 -0.1093
   45loPI   C4B  720  -0.051  15.976   8.262 -0.0727  0.2733  0.0930
   46loPI    C1  721   3.375  16.326  10.599 -0.0100 -0.0493 -0.0420
   46loPI    C2  722   3.738  16.175  10.674  0.0596  0.0641 -0.1463
   46loPI    C3  723   3.515  16.318  10.974  0.0594 -0.0965 -0.0685
   46loPI   PO4  724   3.454  16.240  10.249  0.2807 -0.1444  0.1609
   46loPI   GL1  725   3.178  16.315   9.954 -0.1533  0.2491  0.0736
   46loPI   GL2  726   2.855  16.490   9.951 -0.0754 -0.3532  0.3755
   46loPI   C1A  727   3.164  16.429   9.505 -0.2815  0.3270  0.0403
   46loPI   C2A  728   3.188  16.543   9.149 -0.1111 -0.1307  0.0663
   46loPI   C3A  729   3.034  16.687   8.772 -0.3274  0.4427  0.0772
   46loPI   C4A  730   2.940  17.052   8.544  0.1304 -0.2120 -0.1673
   46loPI   C5A  731   3.200  17.488   8.401  0.1292 -0.0158  0.2907
   46loPI   C6A  732   2.964  17.673   8.024 -0.1365  0.0548  0.1008
   46loPI   C1B  733   3.054  16.823   9.766 -0.1561  0.1086 -0.1329
   46loPI   C2B  734   3.301  17.158   9.596  0.2367 -0.1717 -0.1804
   46loPI   C3B  735   3.298  17.613   9.469  0.2191  0.1855 -0.1478
   46loPI   C4B  736   3.046  17.903   9.161  0.3275  0.3197 -0.0866
   47loPI    C1  737  15.243   3.633  10.075  0.3966  0.1916  0.2285
   47loPI    C2  738  15.487   3.337   9.963  0.0977 -0.0026  0.0783
   47loPI    C3  739  15.287   3.311  10.308 -0.0914 -0.0780 -0.0351
   47loPI   PO4  740  15.039   3.672   9.958 -0.0064 -0.0175  0.2556
   47loPI   GL1  741  14.615   3.867   9.842 -0.0137  0.0466  0.1211
   47loPI   GL2  742  14.874   3.950   9.530  0.0232  0.2091  0.2193
   47loPI   C1A  743  14.560   3.529   9.516  0.0227 -0.0207 -0.2511
   47loPI   C2A  744  14.499   3.490   9.077 -0.0033 -0.0590  0.1831
   47loPI   C3A  745  14.588   3.380   8.641  0.1596  0.0965 -0.1906
   47loPI   C4A  746  14.533   3.181   8.268  0.1786  0.0099 -0.3070
   47loPI   C5A  747  14.690   3.268   7.787 -0.2804  0.0636 -0.2025
   47loPI   C6A  748  15.048   3.276   7.515 -0.2158 -0.1555 -0.0202
   47loPI   C1B  749  14.828   3.804   9.159 -0.0928 -0.3187 -0.0996
   47loPI   C2B  750  14.765   3.820   8.722  0.1856  0.3431  0.0949
   47loPI   C3B  751  14.627   3.871   8.379  0.2443 -0.1683 -0.1897
   47loPI   C4B  752  14.361   3.656   8.148 -0.1234  0.2547  0.1755
   48loPI    C1  753  17.438   5.329   9.724  0.1415  0.1922 -0.1173
   48loPI    C2  754  17.795   5.472   9.835 -0.0112  0.1443  0.4677
   48loPI    C3  755  17.574   5.262  10.094 -0.2964 -0.1684 -0.0129
   48loPI   PO4  756  17.381   5.550   9.588  0.1240 -0.0817  0.0012
   48loPI   GL1  757  17.451   5.854   9.239  0.1055  0.0195  0.0348
   48loPI   GL2  758  17.634   6.135   9.116  0.2887  0.0292  0.0988
   48loPI   C1A  759  17.477   5.658   8.881 -0.0855  0.5597 -0.1816
   48loPI   C2A  760  17.449   5.395   8.467  0.2178 -0.1743  0.1677
   48loPI   C3A  761  17.284   5.194   8.109  0.0009  0.0545  0.1040
   48loPI   C4A  762  17.218   5.017   7.762 -0.1073 -0.0071 -0.1473
   48loPI   C5A  763  16.962   4.982   7.451  0.0878 -0.3690 -0.2743
   48loPI   C6A  764  16.720   5.182   7.147 -0.2054  0.1707  0.1751
   48loPI   C1B  765  17.270   6.168   8.804  0.0417  0.1575  0.1687
   48loPI   C2B  766  17.105   6.186   8.329 -0.0575 -0.2460  0.2348
   48loPI   C3B  767  17.111   6.195   7.812 -0.1588  0.1095 -0.0678
   48loPI   C4B  768  17.119   6.004   7.395 -0.0704  0.0136 -0.0607
   49loPI    C1  769   3.631   4.391  10.241  0.0357  0.1948  0.1823
   49loPI    C2  770   3.406   4.269  10.548 -0.1027 -0.1374 -0.0459
   49loPI    C3  771   3.662   4.571  10.597 -0.5220  0.1828  0.2461
   49loPI   PO4  772   3.439   4.477  10.047 -0.0161  0.0515  0.1699
   49loPI   GL1  773   3.621   4.498   9.617 -0.0271 -0.2590 -0.1222
   49loPI   GL2  774   3.806   4.354   9.436  0.2355 -0.0824 -0.0807
   49loPI   C1A  775   3.195   4.698   9.369  0.1054 -0.1972 -0.1241
   49loPI   C2A  776   2.855   4.684   9.139  0.0272  0.0795  0.0990
   49loPI   C3A  777   2.931   4.461   8.704 -0.0448  0.2083 -0.2511
   49loPI   C4A  778   2.924   4.382   8.332  0.2585  0.2176 -0.3226
   49loPI   C5A  779   2.784   4.320   7.920  0.0651 -0.0991  0.2200
   49loPI   C6A  780   2.704   4.244   7.498 -0.1703  0.1206 -0.0019
   49loPI   C1B  781   3.746   4.500   9.040  0.0636  0.1172  0.1194
   49loPI   C2B  782   3.768   4.676   8.639  0.2452  0.0820  0.3159
   49loPI   C3B  783   3.600   4.817   8.229  0.1185  0.3286  0.1554
   49loPI   C4B  784   3.512   5.261   8.004 -0.1850  0.0750  0.0715
   50loPI    C1  785   5.209  15.429  10.512  0.1507 -0.1705  0.2322
   50loPI    C2  786   5.224  15.815  10.612  0.0403 -0.0597 -0.1618
   50loPI    C3  787   4.871  15.627  10.592  0.0823 -0.1451 -0.1050
   50loPI   PO4  788   5.378  15.329  10.355  0.1618 -0.1820 -0.0474
   50loPI   GL1  789   5.444  15.329   9.903 -0.1041 -0.1112  0.2184
   50loPI   GL2  790   5.142  15.263   9.876 -0.3070 -0.1329  0.1857
   50loPI   C1A  791   5.987  15.462   9.770 -0.0936  0.2696 -0.1853
   50loPI   C2A  792   6.207  15.438   9.372 -0.1768 -0.1566  0.3507
   50loPI   C3A  793   6.132  15.653   9.004  0.2331 -0.0638  0.1256
   50loPI   C4A  794   5.921  15.862   8.921  0.1813 -0.3084  0.1577
   50loPI   C5A  795   5.703  15.714   8.704  0.1315 -0.2309 -0.1808
   50loPI   C6A  796   5.475  15.720   8.323  0.3229  0.2175  0.0091
   50loPI   C1B  797   5.252  15.040   9.495  0.3732 -0.2391 -0.0986
   50loPI   C2B  798   5.298  14.937   8.996 -0.0061 -0.1062  0.0259
   50loPI   C3B  799   5.244  14.799   8.647  0.0897 -0.2287  0.0265
   50loPI   C4B  800   5.194  14.610   8.270 -0.1634 -0.0564 -0.0363
   51loPI    C1  801  10.959  18.165  11.520 -0.1946 -0.0696  0.0836
   51loPI    C2  802  10.576  18.183  11.635 -0.1835 -0.0265  0.1142
   51loPI    C3  803  10.867  18.265  11.897 -0.1448 -0.2837  0.1541
   51loPI   PO4  804  10.844  18.122  11.148  0.0525 -0.2109  0.0245
   51loPI   GL1  805  10.931  18.234  10.706 -0.2638 -0.2020  0.1332
   51loPI   GL2  806  11.180  18.161  10.604  0.3102 -0.2089 -0.0944
   51loPI   C1A  807  10.725  18.114  10.315 -0.0761 -0.0887 -0.1096
   51loPI   C2A  808  10.902  18.162   9.894  0.0439 -0.2484 -0.1115
   51loPI   C3A  809  11.002  18.427   9.604 -0.1711  0.1947 -0.1222
   51loPI   C4A  810  10.926  18.465   9.121  0.0381  0.0413 -0.0037
   51loPI   C5A  811  10.950  18.538   8.746 -0.1749  0.4205 -0.1884
   51loPI   C6A  812  11.219  18.285   8.461  0.1093  0.1009  0.0682
   51loPI   C1B  813  11.558  18.035  10.277  0.1884  0.1344 -0.0039
   51loPI   C2B  814  11.957  18.145  10.114 -0.0363  0.0044  0.3531
   51loPI   C3B  815  12.302  18.258   9.799  0.2961  0.3545 -0.2110
   51loPI   C4B  816  12.280  18.506   9.429  0.1914  0.1241  0.0409
   52loPI    C1  817   4.347   1.937  10.377 -0.1355 -0.1062  0.0324
   52loPI    C2  818   4.577   1.610  10.393 -0.1952 -0.1525 -0.0523
   52loPI    C3  819   4.622   1.900  10.665 -0.0004 -0.1375 -0.0991
   52loPI   PO4  820   4.270   1.899  10.147 -0.1288 -0.1495  0.6766
   52loPI   GL1  821   4.186   2.049   9.696 -0.0639 -0.1377  0.0205
   52loPI   GL2  822   4.267   2.330   9.595  0.0468 -0.0671 -0.0852
   52loPI   C1A  823   4.369   1.772   9.379  0.0274 -0.1791 -0.0689
   52loPI   C2A  824   4.448   1.498   9.288  0.1094 -0.1050 -0.0334
   52loPI   C3A  825   4.785   1.488   9.064  0.2417  0.1664  0.1776
   52loPI   C4A  826   5.008   1.501   8.724 -0.0314 -0.0755 -0.0769
   52loPI   C5A  827   5.277   1.644   8.372 -0.4366  0.0287 -0.1011
   52loPI   C6A  828   5.537   1.622   8.084  0.0822 -0.3080  0.1759
   52loPI   C1B  829   4.323   2.172   9.085 -0.0212 -0.0508  0.2371
   52loPI   C2B  830   4.438   1.909   8.901 -0.1197  0.2607 -0.0876
   52loPI   C3B  831   4.495   1.848   8.552  0.1430 -0.1419  0.1370
   52loPI   C4B  832   4.750   1.765   8.206 -0.0730 -0.1020  0.0930
   53loPI    C1  833   0.099  17.586  10.572 -0.2977  0.0015  0.0242
   53loPI    C2  834   0.332  17.311  10.744 -0.1821  0.0967  0.0218
   53loPI    C3  835   0.135  17.575  10.970 -0.0540  0.2025  0.0107
   53loPI   PO4  836   0.283  17.682  10.297 -0.2669  0.3814 -0.0074
   53loPI   GL1  837   0.428  17.770   9.811 -0.1953 -0.0851  0.0950
   53loPI   GL2  838   0.389  17.442   9.767 -0.0253 -0.0829  0.2684
   53loPI   C1A  839   0.603  17.710   9.391 -0.5046  0.0712 -0.0109
   53loPI   C2A  840   0.877  17.654   9.102  0.1680  0.3709  0.2320
   53loPI   C3A  841   1.326  17.847   9.132 -0.0280 -0.0170 -0.0814
   53loPI   C4A  842   1.512  18.222   8.917 -0.1060  0.0582 -0.3045
   53loPI   C5A  843   1.352  18.198   8.402  0.0690  0.1258 -0.0364
   53loPI   C6A  844   1.411  18.167   8.014 -0.0932 -0.1687 -0.2344
   53loPI   C1B  845   0.162  17.523   9.474  0.0627 -0.3393 -0.1845
   53loPI   C2B  846  -0.090  17.709   9.153  0.2124  0.3382 -0.3455
   53loPI   C3B  847  -0.139  17.667   8.777 -0.0479 -0.1097 -0.1829
   53loPI   C4B  848  -0.162  17.676   8.487  0.0345  0.2166  0.0489
   54loPI    C1  849  10.280   5.449  10.537  0.0143  0.0401  0.1611
   54loPI    C2  850  10.255   5.773  10.770  0.1420 -0.0699  0.3303
   54loPI    C3  851  10.459   5.453  10.894  0.0241 -0.2130  0.1606
   54loPI   PO4  852  10.466   5.445  10.239  0.1287 -0.0868 -0.0940
   54loPI   GL1  853  10.712   5.571   9.920 -0.1181  0.0747 -0.0579
   54loPI   GL2  854  10.865   5.797  10.102 -0.0628 -0.0129 -0.2551
   54loPI   C1A  855  10.796   5.663   9.579 -0.0955 -0.2183 -0.0547
   54loPI   C2A  856  10.981   5.716   9.342  0.3235  0.0455  0.0225
   54loPI   C3A  857  11.022   5.694   8.878 -0.1049 -0.1196 -0.0085
   54loPI   C4A  858  11.017   5.841   8.440  0.1408  0.2228  0.1065
   54loPI   C5A  859  11.024   5.970   7.938 -0.1479  0.3915  0.1992
   54loPI   C6A  860  11.409   5.921   7.696  0.0844  0.0565  0.1967
   54loPI   C1B  861  11.006   6.100   9.675 -0.1088 -0.1605  0.1979
   54loPI   C2B  862  11.047   6.229   9.225 -0.1697  0.1979 -0.2157
   54loPI   C3B  863  11.087   6.213   8.781 -0.2485 -0.0067 -0.2836
   54loPI   C4B  864  11.034   6.313   8.350  0.1348  0.1043 -0.0526
   55loPI    C1  865  13.158   6.562  10.184  0.0891  0.1379 -0.0495
   55loPI    C2  866  13.463   6.795  10.297  0.1471 -0.0392  0.1665
   55loPI    C3  867  13.165   6.718  10.553 -0.0893  0.1456 -0.0483
   55loPI   PO4  868  13.076   6.610  10.029 -0.1646 -0.1939  0.0222
   55loPI   GL1  869  12.900   6.547   9.654 -0.0972  0.0573  0.1982
   55loPI   GL2  870  13.233   6.439   9.534  0.0191 -0.0984 -0.1011
   55loPI   C1A  871  12.900   6.582   9.187 -0.0856 -0.0210  0.1933
   55loPI   C2A  872  12.656   6.657   8.920  0.0406 -0.0505  0.1103
   55loPI   C3A  873  12.555   6.612   8.502  0.1303  0.3437 -0.2400
   55loPI   C4A  874  12.444   6.328   8.215  0.1523  0.0497 -0.1223
   55loPI   C5A  875  12.199   6.091   7.912  0.0488  0.0198  0.0625
   55loPI   C6A  876  11.868   6.056   7.760 -0.0027 -0.0938 -0.1359
   55loPI   C1B  877  13.364   6.448   9.108  0.1305 -0.2910  0.3764
   55loPI   C2B  878  13.137   6.433   8.784  0.2275 -0.0952 -0.3134
   55loPI   C3B  879  13.007   6.531   8.302  0.0986 -0.1563 -0.1043
   55loPI   C4B  880  12.745   6.597   7.943  0.0918  0.2418  0.0161
   56loPI    C1  881   5.037   8.177  10.287  0.0500 -0.2238 -0.0616
   56loPI    C2  882   4.713   8.412  10.278 -0.1138 -0.4494 -0.1748
   56loPI    C3  883   4.798   8.202  10.607  0.1821 -0.0328  0.0235
   56loPI   PO4  884   5.053   8.108  10.017  0.0562  0.1456 -0.3015
   56loPI   GL1  885   5.121   8.126   9.683 -0.2036 -0.0113  0.2067
   56loPI   GL2  886   4.972   8.316   9.387 -0.2618 -0.1120  0.2884
   56loPI   C1A  887   5.378   7.982   9.351  0.3740 -0.0382 -0.0055
   56loPI   C2A  888   5.461   8.000   8.910  0.2022  0.1440 -0.1557
   56loPI   C3A  889   5.505   7.952   8.581 -0.2793  0.1888 -0.3121
   56loPI   C4A  890   5.647   7.767   8.258 -0.2031 -0.3006 -0.1538
   56loPI   C5A  891   5.739   7.782   7.895 -0.1486  0.3504  0.3025
   56loPI   C6A  892   5.475   7.968   7.593 -0.0290  0.1878  0.1157
   56loPI   C1B  893   5.209   8.429   9.008 -0.0694  0.2585  0.3573
   56loPI   C2B  894   5.388   8.483   8.613  0.0027 -0.0587 -0.2795
   56loPI   C3B  895   5.519   8.338   8.229  0.0887  0.0323 -0.2978
   56loPI   C4B  896   5.616   8.377   7.869 -0.2666 -0.0584 -0.1627
   57loPI    C1  897  10.087  14.232  10.398  0.0780  0.0062  0.0441
   57loPI    C2  898   9.799  14.507  10.427  0.1593  0.1233 -0.2249
   57loPI    C3  899  10.124  14.534  10.658 -0.0062  0.0353  0.0225
   57loPI   PO4  900  10.184  14.292  10.073  0.1118 -0.2945  0.1980
   57loPI   GL1  901  10.271  14.150   9.628 -0.3438 -0.0335  0.0405
   57loPI   GL2  902  10.215  13.858   9.576 -0.0660  0.0748 -0.1121
   57loPI   C1A  903  10.090  14.494   9.246 -0.1876  0.0637  0.2420
   57loPI   C2A  904   9.860  14.377   8.769 -0.0874 -0.0399 -0.1601
   57loPI   C3A  905   9.818  14.268   8.412 -0.2861 -0.0824 -0.0981
   57loPI   C4A  906   9.502  14.430   8.096 -0.1443  0.2007 -0.2829
   57loPI   C5A  907   9.135  14.476   8.172  0.0439 -0.2985  0.0083
   57loPI   C6A  908   8.901  14.372   7.885  0.1991  0.1954 -0.1530
   57loPI   C1B  909  10.356  13.916   9.192 -0.0054 -0.2250 -0.0799
   57loPI   C2B  910  10.211  13.999   8.764  0.0851 -0.2217 -0.0298
   57loPI   C3B  911  10.320  14.112   8.384  0.1905 -0.4700  0.1193
   57loPI   C4B  912  10.413  13.957   7.991 -0.0046  0.0904  0.1939
   58loPI    C1  913   9.276  18.563  10.686 -0.1143  0.1043  0.0015
   58loPI    C2  914   9.019  18.365  10.452 -0.1195  0.4454 -0.2896
   58loPI    C3  915   8.882  18.614  10.735 -0.1121  0.0961  0.0288
   58loPI   PO4  916   9.459  18.650  10.490 -0.3281 -0.0866 -0.0910
   58loPI   GL1  917   9.597  18.569  10.128  0.1621  0.0562 -0.0817
   58loPI   GL2  918   9.394  18.290  10.084  0.2890 -0.1891 -0.0027
   58loPI   C1A  919   9.888  18.380  10.028  0.2739 -0.1676  0.3029
   58loPI   C2A  920   9.946  18.347   9.602 -0.4128  0.1036 -0.2064
   58loPI   C3A  921  10.181  18.345   9.227  0.1269 -0.1942  0.1075
   58loPI   C4A  922  10.396  18.326   8.844  0.0768 -0.0202  0.0695
   58loPI   C5A  923  10.344  18.103   8.531  0.1577 -0.4030 -0.1775
   58loPI   C6A  924   9.947  17.941   8.398 -0.0207 -0.0132 -0.1024
   58loPI   C1B  925   9.445  18.392   9.683 -0.0033 -0.0256 -0.1217
   58loPI   C2B  926   9.581  18.395   9.256 -0.0282 -0.2670  0.1107
   58loPI   C3B  927   9.753  18.338   9.026 -0.1414 -0.0814 -0.0893
   58loPI   C4B  928   9.993  18.110   8.840  0.0539  0.1999 -0.3254
   59loPI    C1  929   3.598   3.454  10.124  0.0005 -0.1165 -0.1613
   59loPI    C2  930   3.412   3.560  10.462  0.4663  0.1101  0.0335
   59loPI    C3  931   3.505   3.176  10.397 -0.0718 -0.0098 -0.0767
   59loPI   PO4  932   3.494   3.486   9.851  0.2328  0.0308 -0.1628
   59loPI   GL1  933   3.395   3.372   9.442 -0.0662 -0.1833 -0.0019
   59loPI   GL2  934   3.203   3.734   9.449 -0.2382  0.0344  0.3658
   59loPI   C1A  935   3.561   3.243   9.079  0.0610 -0.1840 -0.1161
   59loPI   C2A  936   3.534   3.172   8.758  0.1058  0.2018  0.1109
   59loPI   C3A  937   3.445   3.303   8.372  0.0385  0.1147 -0.0161
   59loPI   C4A  938   3.480   3.111   7.985 -0.0752  0.0624  0.0149
   59loPI   C5A  939   3.776   2.921   7.807  0.1775  0.1334 -0.1613
   59loPI   C6A  940   4.242   2.918   7.557  0.0002 -0.0338 -0.2306
   59loPI   C1B  941   3.255   3.817   9.058 -0.1691 -0.1234 -0.0877
   59loPI   C2B  942   3.393   3.657   8.788 -0.0499  0.2000 -0.1203
   59loPI   C3B  943   3.562   3.818   8.409 -0.0810  0.0785  0.0593
   59loPI   C4B  944   3.828   3.809   8.082  0.1329  0.1191 -0.0528
   60loPI    C1  945   1.336   7.733   9.598 -0.1366 -0.0320  0.1222
   60loPI    C2  946   1.504   7.370   9.592 -0.1142 -0.0217  0.1208
   60loPI    C3  947   1.513   7.588   9.927 -0.0076  0.0335  0.0825
   60loPI   PO4  948   1.230   7.702   9.400  0.2459  0.2542  0.5390
   60loPI   GL1  949   1.405   7.625   9.037  0.2556 -0.0620 -0.1606
   60loPI   GL2  950   1.599   7.897   9.107  0.1381 -0.2781 -0.2607
   60loPI   C1A  951   1.512   7.599   8.609  0.1183  0.0874  0.0067
   60loPI   C2A  952   1.626   7.888   8.252  0.1747  0.2177 -0.1226
   60loPI   C3A  953   1.685   7.822   7.792 -0.0039  0.1387  0.2387
   60loPI   C4A  954   1.855   7.808   7.440 -0.0624 -0.2325  0.1413
   60loPI   C5A  955   2.136   8.107   7.267  0.4671 -0.0686  0.0099
   60loPI   C6A  956   2.491   8.168   7.011  0.4212 -0.2082  0.0108
   60loPI   C1B  957   1.663   8.069   8.738  0.3996 -0.0938  0.1427
   60loPI   C2B  958   1.836   8.339   8.443 -0.3167  0.0355 -0.2142
   60loPI   C3B  959   1.717   8.325   7.979 -0.2103 -0.2990 -0.1063
   60loPI   C4B  960   1.733   8.258   7.527 -0.2469 -0.0187  0.0249
   61loPI    C1  961   4.575   3.863  10.217 -0.2177 -0.1335 -0.1044
   61loPI    C2  962   4.347   3.600  10.413 -0.0486 -0.1601  0.0601
   61loPI    C3  963   4.671   3.754  10.590 -0.0570  0.0383 -0.0935
   61loPI   PO4  964   4.688   3.764  10.035 -0.0810  0.0390  0.2122
   61loPI   GL1  965   5.085   3.974   9.835 -0.1024 -0.0825 -0.0460
   61loPI   GL2  966   4.920   3.914   9.597  0.0463  0.0167  0.0684
   61loPI   C1A  967   5.282   4.337   9.515 -0.1364 -0.1721  0.0666
   61loPI   C2A  968   5.239   4.343   9.080  0.1662 -0.2903 -0.3474
   61loPI   C3A  969   5.186   4.401   8.666  0.0019 -0.2380  0.0063
   61loPI   C4A  970   5.006   4.403   8.243  0.2301 -0.2985  0.2287
   61loPI   C5A  971   4.783   4.374   7.866 -0.2294  0.1594  0.1998
   61loPI   C6A  972   4.647   4.100   7.732 -0.3327 -0.1107 -0.0932
   61loPI   C1B  973   4.785   4.019   9.172 -0.3441 -0.0574  0.0849
   61loPI   C2B  974   4.908   3.975   8.664 -0.0499  0.0514 -0.3657
   61loPI   C3B  975   5.035   3.937   8.217 -0.1182  0.2171 -0.1938
   61loPI   C4B  976   5.138   4.057   7.761 -0.4570  0.0756  0.0963
   62loPI    C1  977   2.274  10.985   9.393  0.0393  0.2562  0.1211
   62loPI    C2  978   2.426  10.881   9.748 -0.0642 -0.0885  0.0693
   62loPI    C3  979   2.547  11.218   9.569  0.0395  0.0530  0.3975
   62loPI   PO4  980   2.147  10.732   9.337  0.0576  0.1020 -0.0486
   62loPI   GL1  981   2.061  10.364   9.066  0.1607  0.0795  0.0893
   62loPI   GL2  982   2.352  10.731   8.918  0.1976 -0.0865  0.1087
   62loPI   C1A  983   2.036  10.450   8.651 -0.1309 -0.3667  0.0653
   62loPI   C2A  984   1.818  10.580   8.255  0.0689 -0.0833  0.1950
   62loPI   C3A  985   1.864  10.712   7.836 -0.0930 -0.3069  0.0501
   62loPI   C4A  986   1.854  11.031   7.466  0.0748  0.0735  0.0596
   62loPI   C5A  987   1.905  11.147   7.019 -0.1737 -0.1272 -0.1957
   62loPI   C6A  988   1.725  11.010   6.678 -0.0126 -0.1089  0.2411
   62loPI   C1B  989   2.393  10.827   8.545  0.2912 -0.1681  0.2223
   62loPI   C2B  990   2.245  11.006   8.126  0.2235 -0.2363  0.1398
   62loPI   C3B  991   2.251  11.313   7.779 -0.0834 -0.2312 -0.1287
   62loPI   C4B  992   2.192  11.399   7.327  0.2316  0.0817  0.2782
   63loPI    C1  993   0.236  14.774   9.902  0.0740 -0.1407  0.0176
   63loPI    C2  994   0.336  14.568  10.230  0.1762  0.1379  0.1648
   63loPI    C3  995   0.621  14.733  10.002  0.0960  0.1098  0.0431
   63loPI   PO4  996   0.004  14.833   9.959  0.0057  0.0164 -0.2577
   63loPI   GL1  997  -0.158  14.819   9.542 -0.1318 -0.3485 -0.0844
   63loPI   GL2  998  -0.283  15.037   9.613 -0.3171 -0.1161  0.2039
   63loPI   C1A  999  -0.152  14.445   9.306 -0.0619  0.0850  0.0807
   63loPI   C2A 1000  -0.189  14.426   8.864  0.1037 -0.1686  0.1905
   63loPI   C3A 1001  -0.275  14.455   8.417 -0.0212 -0.1339 -0.1766
   63loPI   C4A 1002  -0.586  14.327   8.064  0.4340 -0.0489 -0.0876
   63loPI   C5A 1003  -0.995  14.265   7.777  0.2584 -0.0741  0.1295
   63loPI   C6A 1004  -1.459  14.374   7.649  0.0045 -0.0715 -0.2034
   63loPI   C1B 1005  -0.134  14.910   9.092 -0.0846 -0.2969  0.0753
   63loPI   C2B 1006  -0.087  14.851   8.622 -0.0537  0.0729 -0.1197
   63loPI   C3B 1007  -0.183  14.897   8.163 -0.1287 -0.1025  0.0883
   63loPI   C4B 1008  -0.326  14.597   7.773 -0.1806 -0.3197  0.1268
   64loPI    C1 1009  17.271  14.204  10.242 -0.2764 -0.0632  0.2560
   64loPI    C2 1010  17.118  13.882  10.422 -0.2676 -0.3143 -0.1717
   64loPI    C3 1011  17.444  13.847  10.194 -0.1696  0.0309 -0.0907
   64loPI   PO4 1012  17.049  14.368  10.084  0.0950 -0.0179  0.3199
   64loPI   GL1 1013  17.234  14.458   9.662  0.1151  0.1323  0.1104
   64loPI   GL2 1014  17.576  14.454   9.611  0.1227 -0.6851 -0.0294
   64loPI   C1A 1015  17.068  14.465   9.235  0.1942 -0.1864  0.1760
   64loPI   C2A 1016  17.099  14.531   8.868 -0.0807  0.0278 -0.1247
   64loPI   C3A 1017  17.062  14.826   8.467  0.0161  0.2107 -0.3108
   64loPI   C4A 1018  16.991  15.149   8.053  0.0529 -0.2802 -0.1672
   64loPI   C5A 1019  16.765  15.329   7.826 -0.2393 -0.2070  0.0931
   64loPI   C6A 1020  16.499  15.498   7.677 -0.0969 -0.0525  0.0470
   64loPI   C1B 1021  17.595  14.213   9.279  0.1156 -0.1829  0.0047
   64loPI   C2B 1022  17.522  14.173   8.765 -0.0351  0.2797  0.0489
   64loPI   C3B 1023  17.551  14.335   8.296 -0.1577 -0.0938 -0.1218
   64loPI   C4B 1024  17.290  14.646   8.070 -0.0117  0.0231  0.2369
   65loPI    C1 1025   8.876   7.244  10.269  0.2110  0.2076  0.1676
   65loPI    C2 1026   8.850   7.604  10.441 -0.1916  0.1955  0.1402
   65loPI    C3 1027   8.648   7.295  10.594  0.2052 -0.0381  0.2035
   65loPI   PO4 1028   9.171   7.255  10.226 -0.0482  0.2827  0.1133
   65loPI   GL1 1029   9.339   7.224   9.796  0.0517  0.0692 -0.2467
   65loPI   GL2 1030   9.555   6.919   9.758  0.2144 -0.0983 -0.1857
   65loPI   C1A 1031   9.094   7.231   9.601 -0.1873  0.2445 -0.0026
   65loPI   C2A 1032   9.127   7.246   9.133  0.0164 -0.1723  0.0952
   65loPI   C3A 1033   8.819   7.250   8.807 -0.2922  0.4261  0.1528
   65loPI   C4A 1034   8.838   7.073   8.464  0.1594  0.1102 -0.2673
   65loPI   C5A 1035   8.575   6.894   8.221 -0.1273 -0.2258 -0.0115
   65loPI   C6A 1036   8.219   7.139   7.972  0.0893  0.2231 -0.2967
   65loPI   C1B 1037   9.551   7.119   9.341  0.2729  0.2098  0.0269
   65loPI   C2B 1038   9.561   7.030   8.970 -0.0967 -0.1374  0.0530
   65loPI   C3B 1039   9.323   7.077   8.614  0.0566  0.0303  0.1556
   65loPI   C4B 1040   9.267   6.958   8.221 -0.1222 -0.1903 -0.1072
   66loPI    C1 1041   8.686   2.939  10.916 -0.3114  0.1187  0.3255
   66loPI    C2 1042   9.007   3.160  10.825 -0.2483 -0.0567  0.1148
   66loPI    C3 1043   8.795   3.241  11.154 -0.1353  0.2183  0.1220
   66loPI   PO4 1044   8.581   2.826  10.647 -0.1508 -0.0139  0.1243
   66loPI   GL1 1045   8.639   2.811  10.205 -0.3144 -0.1252 -0.1638
   66loPI   GL2 1046   8.433   2.886  10.003 -0.0379 -0.1995 -0.2088
   66loPI   C1A 1047   8.894   2.797   9.814  0.0353 -0.1461  0.0167
   66loPI   C2A 1048   9.165   2.900   9.372 -0.0040 -0.1500 -0.0421
   66loPI   C3A 1049   9.079   3.056   8.952  0.1732  0.4330  0.0630
   66loPI   C4A 1050   9.027   3.107   8.535 -0.1225  0.2184  0.1369
   66loPI   C5A 1051   8.645   3.154   8.339  0.1206  0.0438 -0.1590
   66loPI   C6A 1052   8.317   3.467   8.070 -0.1041  0.1545 -0.0921
   66loPI   C1B 1053   8.234   2.940   9.608 -0.0562  0.3458 -0.3793
   66loPI   C2B 1054   8.161   2.881   9.133  0.2950  0.1190  0.0266
   66loPI   C3B 1055   7.963   2.793   8.657  0.2601 -0.0056 -0.1350
   66loPI   C4B 1056   8.069   3.067   8.368 -0.1632  0.1864  0.0671
   67loPI    C1 1057   8.597   6.058  10.562 -0.1414  0.0579 -0.1936
   67loPI    C2 1058   8.334   6.140  10.853 -0.0717 -0.1751 -0.0625
   67loPI    C3 1059   8.587   6.423  10.727 -0.0278 -0.1029  0.1811
   67loPI   PO4 1060   8.550   5.901  10.460 -0.1322 -0.1235 -0.1311
   67loPI   GL1 1061   8.696   5.852  10.028  0.0228 -0.0675 -0.1532
   67loPI   GL2 1062   8.969   6.051  10.115 -0.4083 -0.1760 -0.1776
   67loPI   C1A 1063   8.460   5.618   9.772  0.1055 -0.1522  0.0227
   67loPI   C2A 1064   8.526   5.603   9.381 -0.0420  0.2411  0.0064
   67loPI   C3A 1065   8.572   5.534   9.016  0.0797 -0.0053 -0.0870
   67loPI   C4A 1066   8.772   5.498   8.570  0.0609 -0.2221 -0.1843
   67loPI   C5A 1067   8.908   5.191   8.320 -0.2082 -0.0097  0.0102
   67loPI   C6A 1068   9.227   5.139   8.142  0.1627 -0.3709 -0.2651
   67loPI   C1B 1069   9.256   5.731   9.808 -0.4011  0.0915  0.1039
   67loPI   C2B 1070   9.578   5.605   9.387  0.0904 -0.0320  0.2299
   67loPI   C3B 1071   9.680   5.440   8.994 -0.0150 -0.1438  0.0711
   67loPI   C4B 1072   9.865   5.360   8.660 -0.0271  0.0563 -0.3701
   68loPI    C1 1073   5.092   0.252  10.677  0.0120 -0.0834  0.0237
   68loPI    C2 1074   4.726   0.386  10.763  0.0412  0.0626 -0.0763
   68loPI    C3 1075   4.974   0.278  11.058 -0.1659 -0.2662 -0.0174
   68loPI   PO4 1076   5.110   0.264  10.369  0.3185 -0.0388 -0.1030
   68loPI   GL1 1077   4.943   0.337   9.973 -0.0928 -0.2661 -0.1728
   68loPI   GL2 1078   4.704   0.114  10.024 -0.2078  0.1453  0.2034
   68loPI   C1A 1079   5.201   0.370   9.505  0.2621 -0.0390 -0.0732
   68loPI   C2A 1080   5.209   0.052   9.144 -0.0707 -0.0665 -0.1807
   68loPI   C3A 1081   5.119   0.085   8.670  0.5480 -0.2207 -0.0017
   68loPI   C4A 1082   4.717   0.275   8.467  0.1151  0.0934 -0.3128
   68loPI   C5A 1083   4.441   0.513   8.174  0.0220 -0.3889 -0.0982
   68loPI   C6A 1084   4.414   0.335   7.716  0.1904  0.2231 -0.0093
   68loPI   C1B 1085   4.654   0.342   9.566  0.0578  0.0422  0.2281
   68loPI   C2B 1086   4.468   0.523   9.245 -0.0980  0.2459  0.1324
   68loPI   C3B 1087   4.483   0.627   8.866 -0.0404 -0.0684  0.3515
   68loPI   C4B 1088   4.538   0.828   8.513 -0.3389 -0.2149  0.0880
   69loPI    C1 1089  14.215  17.288  10.234  0.0465  0.2469  0.2278
   69loPI    C2 1090  13.964  17.226  10.539 -0.0107 -0.2755  0.0843
   69loPI    C3 1091  14.258  16.965  10.467  0.0767 -0.0930 -0.2364
   69loPI   PO4 1092  14.342  17.469  10.274  0.4585 -0.0518 -0.0020
   69loPI   GL1 1093  14.402  17.796  10.111  0.1879  0.0240  0.3291
   69loPI   GL2 1094  14.008  17.761  10.119  0.0449  0.1431  0.3017
   69loPI   C1A 1095  14.575  17.858   9.736  0.0550 -0.1885 -0.2529
   69loPI   C2A 1096  14.476  17.881   9.350  0.2948  0.0580  0.1275
   69loPI   C3A 1097  14.456  17.963   8.981  0.0461  0.1526 -0.2197
   69loPI   C4A 1098  14.284  18.189   8.696  0.1440  0.0620 -0.2164
   69loPI   C5A 1099  14.274  18.206   8.260 -0.2109  0.3496 -0.2070
   69loPI   C6A 1100  14.355  18.592   8.089  0.0459 -0.1403 -0.0720
   69loPI   C1B 1101  14.113  17.752   9.646 -0.3662 -0.2743  0.0119
   69loPI   C2B 1102  13.963  17.937   9.202  0.3669  0.1089 -0.1281
   69loPI   C3B 1103  13.771  18.129   8.869 -0.0857  0.2674  0.1231
   69loPI   C4B 1104  13.415  18.135   8.560  0.1819  0.2167 -0.0411
   70loPI    C1 1105   3.467  18.532  10.429  0.1909  0.1729 -0.1570
   70loPI    C2 1106   3.854  18.565  10.524  0.2310 -0.1789 -0.1860
   70loPI    C3 1107   3.590  18.445  10.800  0.1278  0.1348 -0.1448
   70loPI   PO4 1108   3.492  18.431  10.173 -0.1515  0.1233 -0.0678
   70loPI   GL1 1109   3.639  18.091   9.887  0.0811 -0.1500  0.1280
   70loPI   GL2 1110   3.446  18.344   9.679 -0.2465  0.0485 -0.2596
   70loPI   C1A 1111   3.747  17.902   9.461 -0.0067 -0.3899 -0.0855
   70loPI   C2A 1112   3.758  18.047   9.033  0.4125  0.1619  0.2289
   70loPI   C3A 1113   3.975  18.201   8.721  0.0984 -0.0167 -0.3880
   70loPI   C4A 1114   4.159  18.246   8.397  0.0385 -0.2619  0.0515
   70loPI   C5A 1115   4.519  18.284   8.199 -0.0556 -0.1280  0.1087
   70loPI   C6A 1116   4.786  17.981   8.105  0.0797 -0.1308 -0.1397
   70loPI   C1B 1117   3.796  18.444   9.437  0.1628 -0.2370  0.0927
   70loPI   C2B 1118   3.783  18.572   8.939  0.0211  0.0182 -0.1118
   70loPI   C3B 1119   3.666  18.901   8.764 -0.1091 -0.1060  0.0653
   70loPI   C4B 1120   3.297  18.995   8.434  0.1404 -0.3102  0.1816
   71loPI    C1 1121   7.634   3.699  10.393 -0.0836  0.0389  0.0479
   71loPI    C2 1122   7.791   3.359  10.254 -0.1981  0.0175 -0.0304
   71loPI    C3 1123   7.721   3.401  10.645 -0.2462 -0.0748 -0.0287
   71loPI   PO4 1124   7.454   3.748  10.302 -0.0446 -0.0478 -0.1827
   71loPI   GL1 1125   7.255   3.713   9.880  0.4074 -0.1577 -0.0203
   71loPI   GL2 1126   7.442   3.893   9.747 -0.1343 -0.1463 -0.1088
   71loPI   C1A 1127   7.076   3.919   9.445 -0.0397  0.1072 -0.3036
   71loPI   C2A 1128   6.866   3.971   9.045  0.1076 -0.0707  0.1914
   71loPI   C3A 1129   6.851   3.891   8.694 -0.1676 -0.1915 -0.1816
   71loPI   C4A 1130   6.998   4.299   8.310 -0.2507  0.1589 -0.1368
   71loPI   C5A 1131   7.391   4.290   8.029  0.1773  0.1620 -0.1653
   71loPI   C6A 1132   7.755   4.382   7.837 -0.0753 -0.2686 -0.1853
   71loPI   C1B 1133   7.610   4.100   9.312 -0.1560 -0.0672  0.4809
   71loPI   C2B 1134   7.378   3.980   8.890  0.2788 -0.2057  0.2367
   71loPI   C3B 1135   7.314   3.845   8.428  0.2842 -0.1831  0.2776
   71loPI   C4B 1136   7.354   3.757   7.947 -0.2299 -0.0481 -0.1429
   72loPI    C1 1137  13.397  11.038  10.137  0.0550 -0.0313  0.0325
   72loPI    C2 1138  13.586  11.391  10.126  0.1763 -0.0953  0.0419
   72loPI    C3 1139  13.375  11.287  10.450  0.1533 -0.0382  0.0453
   72loPI   PO4 1140  13.538  10.893   9.915  0.2266  0.0862  0.1489
   72loPI   GL1 1141  13.339  10.738   9.610  0.1409 -0.1988 -0.1754
   72loPI   GL2 1142  13.051  10.528   9.555 -0.0007 -0.0107 -0.3491
   72loPI   C1A 1143  13.485  10.749   9.242  0.1643 -0.0417 -0.0248
   72loPI   C2A 1144  13.567  10.495   8.869  0.3282 -0.2505 -0.2543
   72loPI   C3A 1145  13.315  10.231   8.575 -0.2289  0.0719  0.1341
   72loPI   C4A 1146  13.146   9.904   8.418 -0.0812 -0.2583 -0.3111
   72loPI   C5A 1147  13.284   9.630   8.133  0.0991 -0.0283  0.1547
   72loPI   C6A 1148  13.300   9.283   8.020 -0.1337  0.1662  0.0769
   72loPI   C1B 1149  13.085  10.442   9.126 -0.0165  0.0193  0.4365
   72loPI   C2B 1150  12.913  10.202   8.916 -0.0383 -0.0487 -0.0604
   72loPI   C3B 1151  12.979   9.852   8.882  0.1354 -0.0913 -0.1536
   72loPI   C4B 1152  13.066   9.448   8.674 -0.2149 -0.0866 -0.0024
   73loPI    C1 1153   7.817   5.936  10.201 -0.1689 -0.5195 -0.0449
   73loPI    C2 1154   8.073   5.823  10.487  0.1935 -0.1161 -0.1990
   73loPI    C3 1155   8.154   5.745  10.103 -0.0095 -0.1525 -0.2356
   73loPI   PO4 1156   7.743   6.220  10.185  0.0374  0.2463  0.0547
   73loPI   GL1 1157   7.815   6.463   9.745  0.1101  0.2326 -0.0203
   73loPI   GL2 1158   7.796   6.190   9.609 -0.0515 -0.1043 -0.3516
   73loPI   C1A 1159   8.190   6.529   9.401  0.4772  0.0759 -0.0240
   73loPI   C2A 1160   8.154   6.583   8.939  0.0692 -0.0942 -0.2668
   73loPI   C3A 1161   8.179   6.689   8.555 -0.1892 -0.1027 -0.1464
   73loPI   C4A 1162   7.940   6.571   8.268 -0.3558 -0.0347  0.4448
   73loPI   C5A 1163   7.876   6.740   7.845  0.1477 -0.0871 -0.3717
   73loPI   C6A 1164   7.530   6.993   7.819  0.2423 -0.0968  0.0001
   73loPI   C1B 1165   7.705   6.312   9.209 -0.1357  0.0629 -0.2370
   73loPI   C2B 1166   7.553   6.276   8.807  0.1394 -0.1012 -0.1513
   73loPI   C3B 1167   7.439   6.446   8.483  0.0023  0.0572  0.4004
   73loPI   C4B 1168   7.443   6.552   8.042  0.1364  0.3915  0.0464
   74loPI    C1 1169  10.867  10.570  10.238  0.3947  0.3130 -0.0189
   74loPI    C2 1170  10.735  10.937  10.150  0.0788  0.2704  0.2567
   74loPI    C3 1171  10.526  10.704  10.400  0.3885 -0.0173  0.2539
   74loPI   PO4 1172  10.985  10.521   9.986  0.2119 -0.0298  0.1182
   74loPI   GL1 1173  11.045  10.755   9.722  0.0846  0.1383  0.3318
   74loPI   GL2 1174  11.122  11.078   9.810  0.0389 -0.0014  0.0498
   74loPI   C1A 1175  11.085  10.840   9.303  0.1578  0.1549  0.1563
   74loPI   C2A 1176  10.902  10.642   8.984  0.1661  0.4357  0.2447
   74loPI   C3A 1177  10.950  10.642   8.571 -0.1346  0.2223 -0.0754
   74loPI   C4A 1178  10.620  10.764   8.264  0.1075 -0.1112 -0.0651
   74loPI   C5A 1179  10.403  10.797   7.896 -0.0861 -0.0755 -0.2253
   74loPI   C6A 1180  10.186  10.558   7.583 -0.1920 -0.1544  0.0213
   74loPI   C1B 1181  10.883  11.294   9.445 -0.0371 -0.2091 -0.0699
   74loPI   C2B 1182  10.968  11.402   8.999  0.0478 -0.1125  0.3897
   74loPI   C3B 1183  11.021  11.597   8.599  0.1488 -0.1095  0.0593
   74loPI   C4B 1184  10.884  11.590   8.237  0.0362  0.1196  0.0578
   75loPI    C1 1185   8.053   9.377  10.400 -0.0079 -0.1663 -0.1794
   75loPI    C2 1186   7.800   9.686  10.402  0.0128 -0.1493 -0.1707
   75loPI    C3 1187   8.053   9.634  10.707 -0.0791 -0.2481 -0.1102
   75loPI   PO4 1188   8.154   9.504  10.019  0.0389  0.2317  0.4695
   75loPI   GL1 1189   8.271   9.616   9.674 -0.1504 -0.0806  0.0412
   75loPI   GL2 1190   8.508   9.496   9.426 -0.0705 -0.0588 -0.0938
   75loPI   C1A 1191   7.828   9.539   9.378 -0.2142 -0.0868  0.3357
   75loPI   C2A 1192   7.749   9.340   8.977  0.0769  0.1544  0.1561
   75loPI   C3A 1193   7.848   9.378   8.577  0.3305  0.0151  0.2625
   75loPI   C4A 1194   8.024   9.446   8.174 -0.1409 -0.1559 -0.1654
   75loPI   C5A 1195   7.683   9.540   7.901  0.0200  0.1636  0.0986
   75loPI   C6A 1196   7.387   9.543   7.618 -0.4700  0.0284 -0.4458
   75loPI   C1B 1197   8.343   9.539   9.023  0.1020 -0.0017  0.1053
   75loPI   C2B 1198   8.264   9.689   8.619 -0.0521  0.0945 -0.3828
   75loPI   C3B 1199   8.344   9.916   8.372 -0.0046 -0.0609  0.2200
   75loPI   C4B 1200   8.470  10.225   8.025  0.1004 -0.0661 -0.2315
   76loPI    C1 1201   7.021   0.588  10.360  0.1569 -0.2372 -0.1587
   76loPI    C2 1202   7.221   0.610  10.706 -0.0170  0.0603 -0.0738
   76loPI    C3 1203   7.102   0.944  10.522 -0.1804 -0.1049 -0.2733
   76loPI   PO4 1204   7.172   0.343  10.255 -0.2431  0.0616 -0.1010
   76loPI   GL1 1205   7.454   0.320   9.911  0.1105 -0.0389  0.3188
   76loPI   GL2 1206   7.435  -0.040   9.853 -0.2049  0.1671 -0.0568
   76loPI   C1A 1207   7.521   0.341   9.466 -0.2591  0.0753 -0.0528
   76loPI   C2A 1208   7.665   0.409   9.108 -0.0710 -0.3616  0.2314
   76loPI   C3A 1209   8.072   0.499   8.841 -0.1522  0.0567 -0.1622
   76loPI   C4A 1210   8.174   0.515   8.383  0.2378 -0.1287 -0.0731
   76loPI   C5A 1211   8.003   0.533   8.004 -0.0632 -0.1156 -0.0630
   76loPI   C6A 1212   7.719   0.540   7.582  0.2567 -0.1109 -0.0264
   76loPI   C1B 1213   7.470  -0.241   9.515  0.0489  0.1182  0.1202
   76loPI   C2B 1214   7.558  -0.140   9.078  0.2301 -0.3566  0.1126
   76loPI   C3B 1215   7.582  -0.290   8.690  0.0464 -0.4146 -0.1390
   76loPI   C4B 1216   7.738  -0.248   8.274  0.1238 -0.0875 -0.0471
   77loPI    C1 1217  16.836  16.509  10.290  0.1581 -0.1409 -0.1743
   77loPI    C2 1218  16.873  16.223  10.567  0.1379  0.1343  0.1182
   77loPI    C3 1219  17.198  16.410  10.428  0.1370  0.0889  0.0547
   77loPI   PO4 1220  16.616  16.412  10.130  0.0021 -0.1228  0.0456
   77loPI   GL1 1221  16.495  16.276   9.680 -0.3416 -0.1014  0.1404
   77loPI   GL2 1222  16.319  16.534   9.719  0.0467 -0.1150  0.1627
   77loPI   C1A 1223  16.687  16.123   9.209  0.3151  0.0395 -0.0015
   77loPI   C2A 1224  16.606  16.148   8.787 -0.1239 -0.0401 -0.1662
   77loPI   C3A 1225  16.370  16.211   8.445  0.3164  0.1319 -0.0066
   77loPI   C4A 1226  16.211  16.165   8.106  0.1373  0.1896  0.1241
   77loPI   C5A 1227  15.787  16.120   7.882  0.0068 -0.0568 -0.2800
   77loPI   C6A 1228  15.362  16.159   7.697 -0.0661  0.3464 -0.2020
   77loPI   C1B 1229  16.105  16.405   9.364  0.1169 -0.0329 -0.0969
   77loPI   C2B 1230  16.062  16.736   9.047 -0.0728  0.2207 -0.1925
   77loPI   C3B 1231  16.104  16.722   8.639 -0.1253 -0.1199  0.3348
   77loPI   C4B 1232  15.936  16.588   8.223  0.0593  0.3868 -0.1353
   78loPI    C1 1233  14.743  18.182  10.584  0.1447  0.2160  0.3276
   78loPI    C2 1234  14.664  17.790  10.578 -0.0640  0.2571  0.2907
   78loPI    C3 1235  14.677  17.986  10.926  0.0065  0.2246  0.3067
   78loPI   PO4 1236  14.580  18.276  10.355 -0.1596 -0.2059 -0.2587
   78loPI   GL1 1237  14.709  18.309   9.900  0.0887 -0.0557  0.2684
   78loPI   GL2 1238  14.557  18.657   9.932  0.1737  0.0013 -0.1580
   78loPI   C1A 1239  14.693  18.305   9.409 -0.0719 -0.1584 -0.0019
   78loPI   C2A 1240  14.731  18.429   9.054  0.2442  0.1151  0.0573
   78loPI   C3A 1241  14.657  18.681   8.719  0.0696 -0.0461 -0.0043
   78loPI   C4A 1242  14.702  18.844   8.346  0.2388 -0.0320  0.1047
   78loPI   C5A 1243  14.731  18.770   7.881  0.1807  0.2401  0.0792
   78loPI   C6A 1244  15.048  18.874   7.557  0.2311 -0.0375 -0.2887
   78loPI   C1B 1245  14.616  18.837   9.607  0.3630 -0.0694  0.1360
   78loPI   C2B 1246  14.569  18.851   9.202 -0.2366  0.2201  0.0825
   78loPI   C3B 1247  14.597  19.138   8.939  0.0257  0.1546 -0.1947
   78loPI   C4B 1248  14.546  19.319   8.590  0.2269 -0.1703 -0.1793
   79loPI    C1 1249  17.393   2.781  10.042  0.0222  0.0366 -0.1932
   79loPI    C2 1250  17.745   2.798  10.230 -0.1238  0.1536  0.0758
   79loPI    C3 1251  17.415   2.702  10.434 -0.2630  0.1394 -0.1540
   79loPI   PO4 1252  17.422   2.704   9.682  0.1475 -0.1012 -0.0155
   79loPI   GL1 1253  17.500   2.467   9.327 -0.2279 -0.0062 -0.1953
   79loPI   GL2 1254  17.697   2.160   9.290 -0.3229 -0.1161  0.1164
   79loPI   C1A 1255  17.428   2.714   8.976 -0.0776  0.0796 -0.2036
   79loPI   C2A 1256  17.345   2.775   8.655 -0.0779  0.0680 -0.2552
   79loPI   C3A 1257  17.700   2.705   8.299  0.0788  0.2283 -0.1523
   79loPI   C4A 1258  17.876   2.690   7.862 -0.2427  0.0584 -0.1007
   79loPI   C5A 1259  18.241   2.988   7.697  0.1219 -0.0015 -0.3058
   79loPI   C6A 1260  18.551   3.161   7.586 -0.0023 -0.1811 -0.3305
   79loPI   C1B 1261  17.930   2.016   8.963  0.0039  0.0443 -0.4897
   79loPI   C2B 1262  17.826   1.598   8.942 -0.3082 -0.2099 -0.0673
   79loPI   C3B 1263  17.868   1.187   8.855  0.2828  0.3289  0.1570
   79loPI   C4B 1264  18.014   0.829   9.006 -0.0329 -0.2050 -0.1127
   80loPI    C1 1265   5.560   3.533  10.123 -0.0651  0.0380 -0.1371
   80loPI    C2 1266   5.672   3.678  10.479 -0.0964 -0.1005 -0.0701
   80loPI    C3 1267   5.675   3.283  10.414 -0.2200 -0.0841 -0.1795
   80loPI   PO4 1268   5.576   3.748  10.003 -0.0286  0.1268 -0.1377
   80loPI   GL1 1269   5.506   3.779   9.564  0.1616 -0.0460  0.1657
   80loPI   GL2 1270   5.846   3.711   9.523  0.1445  0.0978 -0.1798
   80loPI   C1A 1271   5.327   3.871   9.234 -0.1637 -0.0866  0.0378
   80loPI   C2A 1272   5.385   3.942   8.864  0.1854  0.1999 -0.1781
   80loPI   C3A 1273   5.502   4.063   8.470 -0.0300 -0.4389 -0.1332
   80loPI   C4A 1274   5.542   4.054   8.043 -0.1118  0.0800  0.1381
   80loPI   C5A 1275   5.623   3.849   7.669 -0.2919  0.4119 -0.0363
   80loPI   C6A 1276   5.679   3.394   7.611 -0.0896 -0.2183 -0.1961
   80loPI   C1B 1277   5.824   3.733   9.048 -0.2605  0.2003 -0.2775
   80loPI   C2B 1278   5.902   3.830   8.620  0.0434 -0.1654  0.0424
   80loPI   C3B 1279   6.014   3.993   8.219  0.0583  0.0423 -0.0025
   80loPI   C4B 1280   6.008   4.152   7.956 -0.0938  0.1490 -0.1621
   81loPI    C1 1281   2.275   3.161  10.085 -0.4572 -0.0208 -0.0737
   81loPI    C2 1282   2.215   3.536  10.209 -0.0230  0.0940 -0.1965
   81loPI    C3 1283   2.412   3.278  10.442 -0.1977 -0.0182 -0.1720
   81loPI   PO4 1284   2.052   3.083   9.928 -0.1657 -0.2048  0.4199
   81loPI   GL1 1285   1.806   2.967   9.526 -0.2519 -0.0072  0.0164
   81loPI   GL2 1286   1.862   3.304   9.448  0.1521  0.1610  0.2829
   81loPI   C1A 1287   1.947   2.727   9.181  0.2027  0.0280  0.0930
   81loPI   C2A 1288   2.073   2.782   8.732  0.0354 -0.1903  0.1567
   81loPI   C3A 1289   2.211   2.750   8.273 -0.1108 -0.1746  0.1771
   81loPI   C4A 1290   2.244   2.553   7.879  0.0229  0.2062  0.2685
   81loPI   C5A 1291   1.922   2.217   7.762  0.1525 -0.4432  0.0685
   81loPI   C6A 1292   2.040   1.790   7.958 -0.1690 -0.1234  0.0518
   81loPI   C1B 1293   2.002   3.222   9.056 -0.0607  0.2098 -0.3524
   81loPI   C2B 1294   2.234   3.275   8.738 -0.0442 -0.0065 -0.1055
   81loPI   C3B 1295   2.354   3.206   8.281 -0.0411  0.1088 -0.0997
   81loPI   C4B 1296   2.586   3.028   7.949  0.0103 -0.2029 -0.1896
   82loPI    C1 1297  12.998  12.265  10.361 -0.0198  0.2500 -0.0243
   82loPI    C2 1298  12.763  12.134  10.656  0.0488 -0.0785 -0.1118
   82loPI    C3 1299  13.160  12.146  10.707  0.0505 -0.0036 -0.1418
   82loPI   PO4 1300  12.840  12.248  10.215 -0.0542  0.0793  0.2632
   82loPI   GL1 1301  12.756  12.096   9.852  0.0091  0.3851 -0.3126
   82loPI   GL2 1302  13.079  11.925   9.839 -0.1105 -0.1819 -0.1567
   82loPI   C1A 1303  12.940  12.062   9.383  0.0998  0.2259 -0.0600
   82loPI   C2A 1304  13.037  12.070   8.868  0.1962  0.3502 -0.0556
   82loPI   C3A 1305  12.890  11.783   8.530 -0.0349  0.0821  0.2853
   82loPI   C4A 1306  12.961  11.480   8.224  0.1034 -0.1333  0.5550
   82loPI   C5A 1307  12.751  11.300   7.948  0.0144 -0.0283 -0.0562
   82loPI   C6A 1308  12.392  11.305   7.868  0.0182 -0.2608 -0.0587
   82loPI   C1B 1309  13.346  11.792   9.478  0.4150 -0.0009  0.0435
   82loPI   C2B 1310  13.362  11.724   9.066 -0.1155  0.1113 -0.1217
   82loPI   C3B 1311  13.323  11.592   8.634 -0.0083 -0.3415 -0.1039
   82loPI   C4B 1312  13.484  11.637   8.195  0.1098 -0.0035  0.2571
   83loPI    C1 1313  12.188  13.361  10.223  0.1794 -0.0949  0.0421
   83loPI    C2 1314  12.030  13.061  10.435  0.0124  0.0725  0.1573
   83loPI    C3 1315  12.051  13.428  10.593 -0.0706  0.1894 -0.0975
   83loPI   PO4 1316  12.121  13.281   9.977 -0.1699 -0.0847 -0.1544
   83loPI   GL1 1317  11.951  13.611   9.629  0.1423  0.0573 -0.4044
   83loPI   GL2 1318  11.665  13.493   9.577 -0.0174  0.1239  0.0859
   83loPI   C1A 1319  12.216  13.730   9.222 -0.0379  0.3229  0.0285
   83loPI   C2A 1320  12.531  13.587   8.999  0.1307 -0.0307 -0.1685
   83loPI   C3A 1321  12.926  13.720   8.788 -0.0962 -0.1964  0.0010
   83loPI   C4A 1322  13.212  13.837   8.400 -0.2238 -0.0910  0.0705
   83loPI   C5A 1323  13.425  13.832   8.015 -0.0055 -0.1312  0.0452
   83loPI   C6A 1324  13.883  13.698   7.933 -0.0355  0.3340  0.0261
   83loPI   C1B 1325  11.767  13.549   9.096 -0.3350  0.0267  0.0003
   83loPI   C2B 1326  11.757  13.510   8.589 -0.2842 -0.0562  0.0663
   83loPI   C3B 1327  11.767  13.762   8.217 -0.0427  0.0380 -0.1503
   83loPI   C4B 1328  11.797  13.579   7.788  0.0643 -0.3150  0.1986
   84loPI    C1 1329  12.665   3.165  10.681  0.0245 -0.1128  0.0041
   84loPI    C2 1330  12.665   3.072  11.070  0.1363 -0.4813 -0.0803
   84loPI    C3 1331  13.002   3.196  10.895  0.0144 -0.0102  0.0059
   84loPI   PO4 1332  12.523   2.891  10.562 -0.0039  0.1195  0.0552
   84loPI   GL1 1333  12.434   2.935  10.198 -0.0005 -0.0789 -0.0864
   84loPI   GL2 1334  12.708   2.821  10.093  0.0234 -0.2061 -0.0369
   84loPI   C1A 1335  11.985   3.101  10.008  0.1337 -0.1315  0.0482
   84loPI   C2A 1336  11.528   3.036   9.924 -0.1133  0.3971 -0.0684
   84loPI   C3A 1337  11.385   2.854   9.542  0.1058 -0.0798 -0.2652
   84loPI   C4A 1338  11.210   2.729   9.164 -0.1321  0.0202  0.2243
   84loPI   C5A 1339  11.252   2.496   8.737 -0.0660 -0.1992 -0.0517
   84loPI   C6A 1340  11.009   2.444   8.251  0.1158  0.0032 -0.0298
   84loPI   C1B 1341  12.819   2.974   9.653 -0.4433 -0.0115 -0.2168
   84loPI   C2B 1342  13.026   3.057   9.276 -0.3121 -0.0697 -0.0415
   84loPI   C3B 1343  13.259   3.224   8.996 -0.0899  0.1513  0.0450
   84loPI   C4B 1344  13.360   3.454   8.535  0.0967  0.1516  0.2030
   85loPI    C1 1345  15.279  12.869  10.155 -0.0461 -0.2579 -0.2271
   85loPI    C2 1346  15.499  12.770  10.474 -0.1119 -0.0833 -0.1259
   85loPI    C3 1347  15.100  12.788  10.504 -0.1148 -0.0148 -0.2040
   85loPI   PO4 1348  15.323  13.071  10.113 -0.0567 -0.1594  0.1703
   85loPI   GL1 1349  14.960  13.151   9.840 -0.0447 -0.0707  0.2642
   85loPI   GL2 1350  14.766  13.439  10.009 -0.2394  0.1917  0.1518
   85loPI   C1A 1351  14.883  12.954   9.375 -0.1362 -0.1646 -0.0363
   85loPI   C2A 1352  14.590  13.010   8.967  0.2062  0.1711 -0.0806
   85loPI   C3A 1353  14.622  12.849   8.545 -0.1773  0.0491  0.1240
   85loPI   C4A 1354  14.543  12.909   8.111  0.2229  0.0871 -0.0342
   85loPI   C5A 1355  14.580  13.096   7.706 -0.0111 -0.2251 -0.0676
   85loPI   C6A 1356  14.303  13.507   7.710  0.1300  0.2748  0.2183
   85loPI   C1B 1357  14.699  13.547   9.581 -0.1785 -0.0854  0.3945
   85loPI   C2B 1358  14.493  13.784   9.273 -0.1108  0.0237  0.0567
   85loPI   C3B 1359  14.443  14.049   8.853  0.0966  0.1805  0.2321
   85loPI   C4B 1360  14.158  14.275   8.603 -0.0075  0.1347 -0.0591
   86loPI    C1 1361   7.526  14.801  10.185  0.3781 -0.3744 -0.2287
   86loPI    C2 1362   7.259  14.506  10.225  0.1142 -0.1170 -0.0413
   86loPI    C3 1363   7.650  14.428  10.259  0.0492 -0.4451 -0.0098
   86loPI   PO4 1364   7.405  14.931  10.033 -0.0709 -0.1421  0.0053
   86loPI   GL1 1365   7.311  14.753   9.640  0.1438 -0.0194  0.1677
   86loPI   GL2 1366   7.461  14.685   9.365 -0.0124  0.0525  0.1228
   86loPI   C1A 1367   6.987  14.897   9.382 -0.2288 -0.1287  0.2365
   86loPI   C2A 1368   6.647  14.863   9.169  0.0205 -0.1284  0.0461
   86loPI   C3A 1369   6.355  15.210   8.936  0.4180 -0.2495  0.0253
   86loPI   C4A 1370   6.119  15.322   8.626 -0.3591  0.0639  0.0273
   86loPI   C5A 1371   6.166  15.672   8.408 -0.1457 -0.2431  0.0671
   86loPI   C6A 1372   5.878  16.051   8.351  0.2240 -0.1175 -0.2428
   86loPI   C1B 1373   7.559  14.945   9.007 -0.1963 -0.0661 -0.0234
   86loPI   C2B 1374   7.685  14.969   8.641 -0.1430 -0.0575  0.2260
   86loPI   C3B 1375   7.529  14.814   8.182 -0.0457  0.0327 -0.2913
   86loPI   C4B 1376   7.276  14.402   8.069  0.1143 -0.1879 -0.0857
   87loPI    C1 1377  15.721  13.845  10.669 -0.0020  0.0103 -0.2046
   87loPI    C2 1378  15.361  13.982  10.776 -0.0222 -0.1588 -0.0500
   87loPI    C3 1379  15.686  14.208  10.832 -0.0822 -0.0805 -0.0160
   87loPI   PO4 1380  15.666  13.843  10.391  0.0633 -0.2220  0.2496
   87loPI   GL1 1381  15.810  13.963   9.948 -0.2727 -0.2451  0.0654
   87loPI   GL2 1382  15.626  14.142   9.927 -0.1626 -0.2645 -0.1712
   87loPI   C1A 1383  15.619  13.702   9.610 -0.0279 -0.2156 -0.4505
   87loPI   C2A 1384  15.557  13.669   9.162 -0.1796  0.2419 -0.0166
   87loPI   C3A 1385  15.584  13.680   8.745  0.1440  0.2422 -0.0114
   87loPI   C4A 1386  15.632  13.542   8.361 -0.0506 -0.2353  0.0771
   87loPI   C5A 1387  15.444  13.544   7.973  0.0455 -0.3419 -0.0703
   87loPI   C6A 1388  15.216  13.179   7.917 -0.1365 -0.1431  0.3264
   87loPI   C1B 1389  15.403  14.120   9.464 -0.0975  0.0610 -0.1215
   87loPI   C2B 1390  15.306  14.240   9.110 -0.1140 -0.2159  0.1670
   87loPI   C3B 1391  15.263  14.339   8.757  0.3302 -0.1527  0.2389
   87loPI   C4B 1392  15.384  14.390   8.362 -0.0831  0.2000 -0.1618
   88loPI    C1 1393  12.994  16.825  10.640  0.0202 -0.1547  0.0707
   88loPI    C2 1394  12.631  16.990  10.670  0.0930  0.0518 -0.1606
   88loPI    C3 1395  12.958  17.221  10.676  0.2230 -0.1331  0.0464
   88loPI   PO4 1396  13.044  16.769  10.481  0.1884 -0.0821 -0.0908
   88loPI   GL1 1397  13.031  16.682  10.070  0.1466  0.1848  0.2649
   88loPI   GL2 1398  13.302  16.924  10.027  0.0948  0.1057 -0.1258
   88loPI   C1A 1399  13.209  16.470   9.592  0.1324 -0.1249 -0.0783
   88loPI   C2A 1400  13.407  16.439   9.186  0.0871  0.2137  0.0597
   88loPI   C3A 1401  13.410  16.300   8.747 -0.1497 -0.0562 -0.0306
   88loPI   C4A 1402  13.339  16.508   8.492  0.0165 -0.3416 -0.1892
   88loPI   C5A 1403  13.427  16.773   8.179 -0.1694  0.0558  0.2523
   88loPI   C6A 1404  13.024  17.015   7.950  0.1787  0.1934 -0.3198
   88loPI   C1B 1405  13.424  17.044   9.663 -0.3861 -0.0148 -0.0528
   88loPI   C2B 1406  13.583  16.993   9.184 -0.1215 -0.3094  0.2108
   88loPI   C3B 1407  13.353  16.888   8.847  0.0852 -0.1070  0.2841
   88loPI   C4B 1408  13.187  17.134   8.486 -0.1676 -0.1106  0.1357
   89loPI    C1 1409   2.383   1.292  10.212 -0.2891  0.0110  0.3243
   89loPI    C2 1410   2.724   1.461  10.336 -0.0279 -0.2898  0.0338
   89loPI    C3 1411   2.398   1.686  10.283  0.2002  0.0507  0.0443
   89loPI   PO4 1412   2.395   1.253   9.982 -0.0238 -0.2562  0.3839
   89loPI   GL1 1413   2.345   1.065   9.627  0.1697  0.1179 -0.3353
   89loPI   GL2 1414   2.743   0.868   9.526  0.2391 -0.0053 -0.3669
   89loPI   C1A 1415   2.660   1.291   9.263  0.0484  0.0429  0.0112
   89loPI   C2A 1416   2.644   1.448   8.841  0.1859 -0.2419  0.1643
   89loPI   C3A 1417   2.735   1.428   8.440  0.0508 -0.2411  0.2732
   89loPI   C4A 1418   2.692   1.229   8.073 -0.1888  0.2677  0.0206
   89loPI   C5A 1419   2.632   0.910   7.705  0.1350  0.2202 -0.3400
   89loPI   C6A 1420   2.853   0.597   7.530 -0.0203  0.1043  0.0582
   89loPI   C1B 1421   2.850   0.758   9.169  0.1100 -0.1477 -0.0927
   89loPI   C2B 1422   2.801   0.813   8.698 -0.0829 -0.0465 -0.0105
   89loPI   C3B 1423   2.851   0.669   8.205 -0.0553 -0.1764 -0.0854
   89loPI   C4B 1424   3.259   0.664   8.009  0.1284 -0.0936 -0.1625
   90loPI    C1 1425   1.786   9.872   9.817 -0.2878  0.1030  0.0793
   90loPI    C2 1426   1.944   9.536   9.966  0.0187  0.2374  0.0658
   90loPI    C3 1427   1.742   9.786  10.205  0.0140  0.1712  0.1315
   90loPI   PO4 1428   1.697   9.797   9.534 -0.2943  0.1108 -0.0083
   90loPI   GL1 1429   1.925   9.869   9.238  0.1891  0.2503  0.1553
   90loPI   GL2 1430   2.219   9.887   9.091 -0.1193 -0.3390  0.1053
   90loPI   C1A 1431   1.763  10.047   8.838 -0.3274 -0.1038 -0.1991
   90loPI   C2A 1432   1.703  10.150   8.463 -0.0076 -0.0870  0.2204
   90loPI   C3A 1433   1.781  10.192   7.996 -0.1777  0.2660  0.2432
   90loPI   C4A 1434   1.680  10.229   7.602  0.0455 -0.1142 -0.2025
   90loPI   C5A 1435   1.620  10.268   7.085  0.0844 -0.0560  0.1729
   90loPI   C6A 1436   1.398  10.123   6.744  0.0838  0.0243 -0.0436
   90loPI   C1B 1437   2.215   9.839   8.629  0.3438  0.1100 -0.1370
   90loPI   C2B 1438   2.193   9.884   8.224  0.0212 -0.0161 -0.0980
   90loPI   C3B 1439   2.261  10.145   7.872 -0.2331  0.3050 -0.1595
   90loPI   C4B 1440   2.322  10.424   7.635 -0.0450 -0.2785  0.1506
   91loPI    C1 1441   5.354  17.492  10.665 -0.1964  0.3140  0.1585
   91loPI    C2 1442   5.615  17.621  10.939  0.1781 -0.1356  0.0263
   91loPI    C3 1443   5.454  17.256  10.971 -0.1068 -0.0272 -0.1268
   91loPI   PO4 1444   5.478  17.590  10.431  0.1856  0.2971 -0.0225
   91loPI   GL1 1445   5.337  17.585   9.975  0.2961  0.0746 -0.1032
   91loPI   GL2 1446   5.041  17.645   9.970 -0.1143  0.1788  0.0813
   91loPI   C1A 1447   5.248  17.635   9.411  0.1039  0.1839 -0.0674
   91loPI   C2A 1448   5.193  17.534   8.903 -0.1037 -0.1410  0.3425
   91loPI   C3A 1449   5.270  17.356   8.500  0.5540  0.2320  0.4690
   91loPI   C4A 1450   5.043  17.366   8.181 -0.0346  0.2151 -0.1770
   91loPI   C5A 1451   4.743  17.075   8.060  0.0975  0.1041  0.2981
   91loPI   C6A 1452   4.488  16.908   8.307 -0.0186  0.4095 -0.3854
   91loPI   C1B 1453   4.875  17.403   9.576 -0.1793  0.3006 -0.0910
   91loPI   C2B 1454   4.779  17.265   9.117  0.0122 -0.0964  0.1531
   91loPI   C3B 1455   5.013  16.984   8.844  0.1004  0.0891 -0.0754
   91loPI   C4B 1456   5.023  16.851   8.353 -0.1455 -0.1029 -0.1658
   92loPI    C1 1457   9.134  10.852  10.308 -0.1918  0.0734  0.1269
   92loPI    C2 1458   9.190  10.800  10.701  0.1873 -0.1052  0.0540
   92loPI    C3 1459   9.224  11.165  10.541  0.1059 -0.0442  0.1743
   92loPI   PO4 1460   9.002  10.674  10.210 -0.2320  0.4061 -0.2673
   92loPI   GL1 1461   9.038  10.328   9.872  0.0172  0.1706  0.0798
   92loPI   GL2 1462   9.250  10.053   9.799 -0.0595  0.1643  0.4447
   92loPI   C1A 1463   8.705  10.337   9.665  0.1166 -0.0459  0.0970
   92loPI   C2A 1464   8.668  10.420   9.167 -0.1332 -0.5236  0.0490
   92loPI   C3A 1465   8.888  10.621   8.869 -0.0847  0.0080  0.1482
   92loPI   C4A 1466   9.246  10.531   8.623  0.1616  0.0320  0.0421
   92loPI   C5A 1467   9.358  10.275   8.297  0.2472 -0.0912 -0.1016
   92loPI   C6A 1468   9.448   9.858   8.393 -0.0060  0.0667  0.0464
   92loPI   C1B 1469   8.896   9.876   9.326  0.0117 -0.0004 -0.0966
   92loPI   C2B 1470   8.837   9.665   8.988 -0.0802 -0.0558  0.0319
   92loPI   C3B 1471   8.713   9.493   8.645  0.0077  0.0408 -0.2185
   92loPI   C4B 1472   8.360   9.151   8.449  0.0423  0.1364 -0.1383
   93loPI    C1 1473   5.233   4.423  10.026 -0.2828 -0.2631  0.0408
   93loPI    C2 1474   5.392   4.146  10.267 -0.0073 -0.1109  0.0382
   93loPI    C3 1475   5.571   4.237   9.921 -0.1433  0.0083 -0.0020
   93loPI   PO4 1476   5.091   4.591  10.218 -0.0338  0.0158  0.0412
   93loPI   GL1 1477   4.745   4.897  10.108  0.0252  0.0347 -0.1569
   93loPI   GL2 1478   4.465   4.830  10.033 -0.0548  0.0292  0.1091
   93loPI   C1A 1479   4.815   4.842   9.679 -0.0562  0.0673  0.3004
   93loPI   C2A 1480   4.848   4.771   9.214  0.1925 -0.0518 -0.0441
   93loPI   C3A 1481   4.811   4.793   8.788  0.0786  0.2232  0.3791
   93loPI   C4A 1482   4.910   4.930   8.319 -0.0112  0.0132 -0.0278
   93loPI   C5A 1483   4.549   4.718   8.111 -0.2102  0.1586  0.0731
   93loPI   C6A 1484   4.431   4.634   7.745  0.3215 -0.4078  0.0643
   93loPI   C1B 1485   4.228   4.896   9.618 -0.0910  0.2348  0.0184
   93loPI   C2B 1486   4.029   4.859   9.251 -0.0216  0.0355 -0.3899
   93loPI   C3B 1487   4.223   4.687   8.926  0.2555  0.0334 -0.3127
   93loPI   C4B 1488   4.260   4.593   8.522  0.1284  0.0216  0.0660
   94loPI    C1 1489  13.570  12.339  10.212 -0.1178  0.0081 -0.1303
   94loPI    C2 1490  13.397  12.572  10.487 -0.1025  0.0538 -0.1592
   94loPI    C3 1491  13.794  12.531  10.481 -0.1340 -0.3690  0.1611
   94loPI   PO4 1492  13.374  12.363   9.991 -0.1223 -0.0661 -0.0085
   94loPI   GL1 1493  13.497  12.244   9.623 -0.1855  0.0305  0.0324
   94loPI   GL2 1494  13.670  12.033   9.807  0.0526 -0.1979 -0.3360
   94loPI   C1A 1495  13.511  12.217   9.120  0.2372  0.2420 -0.1087
   94loPI   C2A 1496  13.488  12.248   8.681 -0.1138 -0.1311 -0.0444
   94loPI   C3A 1497  13.326  12.096   8.286  0.1420  0.1099  0.2246
   94loPI   C4A 1498  13.192  12.435   7.977  0.1180  0.0836 -0.3519
   94loPI   C5A 1499  13.345  12.847   7.797  0.0037 -0.2911  0.1240
   94loPI   C6A 1500  13.655  13.129   7.991  0.6542  0.0206 -0.1766
   94loPI   C1B 1501  13.923  12.293   9.383 -0.2411 -0.0343  0.0079
   94loPI   C2B 1502  13.973  12.315   8.921  0.1580  0.0345  0.0435
   94loPI   C3B 1503  13.995  12.374   8.517 -0.0625 -0.0848 -0.0171
   94loPI   C4B 1504  13.697  12.435   8.132 -0.1119  0.0991 -0.0389
   95loPI    C1 1505   9.410  10.457  10.417  0.0694 -0.0066  0.4503
   95loPI    C2 1506   9.414  10.089  10.573  0.0248 -0.1562  0.1086
   95loPI    C3 1507   9.077  10.304  10.577 -0.0111 -0.2121  0.0987
   95loPI   PO4 1508   9.510  10.480  10.154 -0.2399  0.0918 -0.1565
   95loPI   GL1 1509   9.528  10.492   9.769 -0.0152 -0.2065  0.3174
   95loPI   GL2 1510   9.355  10.802   9.757  0.0690 -0.3174  0.2917
   95loPI   C1A 1511   9.770  10.138   9.487 -0.1132  0.1792  0.0315
   95loPI   C2A 1512  10.139  10.072   9.250  0.1557  0.0062  0.0897
   95loPI   C3A 1513  10.055  10.170   8.826 -0.1169 -0.1249  0.1228
   95loPI   C4A 1514   9.634  10.115   8.801  0.0187  0.0146  0.0200
   95loPI   C5A 1515   9.438   9.688   8.834  0.0957  0.1536 -0.1081
   95loPI   C6A 1516   9.213   9.459   9.176 -0.1981  0.4549 -0.1340
   95loPI   C1B 1517   9.570  10.912   9.420 -0.2230 -0.0453  0.3052
   95loPI   C2B 1518   9.668  10.919   8.990 -0.0608 -0.3528  0.1280
   95loPI   C3B 1519   9.801  10.703   8.646  0.0354  0.1277 -0.1418
   95loPI   C4B 1520   9.744  10.568   8.273 -0.0759  0.1393  0.1394
   96loPI    C1 1521   9.578  11.689  10.255  0.1698 -0.1880  0.1988
   96loPI    C2 1522   9.939  11.542  10.344  0.3269 -0.0623 -0.2102
   96loPI    C3 1523   9.874  11.937  10.359  0.2453 -0.0733 -0.2654
   96loPI   PO4 1524   9.448  11.420  10.132  0.0628 -0.1901 -0.0013
   96loPI   GL1 1525   9.344  11.324   9.657  0.1288 -0.1751  0.1625
   96loPI   GL2 1526   9.229  11.660   9.663  0.0370  0.0991 -0.3157
   96loPI   C1A 1527   9.602  11.381   9.234 -0.0620 -0.1473  0.3068
   96loPI   C2A 1528   9.677  11.425   8.805 -0.0168  0.2225 -0.2178
   96loPI   C3A 1529   9.617  11.241   8.430  0.1364  0.1426  0.0290
   96loPI   C4A 1530   9.368  11.305   8.035  0.1767 -0.1878  0.1582
   96loPI   C5A 1531   9.203  10.987   7.707 -0.0806  0.0911  0.1848
   96loPI   C6A 1532   9.053  10.663   7.361  0.0925 -0.1433 -0.1157
   96loPI   C1B 1533   9.137  11.538   9.194  0.0618 -0.3719 -0.0777
   96loPI   C2B 1534   9.204  11.478   8.763 -0.2048 -0.1353 -0.0700
   96loPI   C3B 1535   9.057  11.372   8.387 -0.2481  0.0054 -0.5387
   96loPI   C4B 1536   8.893  11.159   8.074 -0.2869 -0.1570  0.1512
   97loPI    C1 1537   6.279   7.386  10.519  0.0740  0.1480  0.0488
   97loPI    C2 1538   6.073   7.043  10.517  0.1345  0.1117 -0.0144
   97loPI    C3 1539   6.308   7.134  10.827  0.1026  0.1057  0.0116
   97loPI   PO4 1540   6.302   7.416  10.270 -0.1528 -0.1268 -0.0181
   97loPI   GL1 1541   6.671   7.510   9.828 -0.6005  0.0447  0.2069
   97loPI   GL2 1542   6.664   7.838   9.796  0.2558 -0.0810 -0.1432
   97loPI   C1A 1543   6.476   7.424   9.477  0.1046 -0.0466 -0.0286
   97loPI   C2A 1544   6.162   7.428   9.148 -0.0286 -0.0408 -0.0629
   97loPI   C3A 1545   6.146   7.394   8.730  0.0799 -0.0558 -0.2483
   97loPI   C4A 1546   6.440   7.298   8.334  0.1966 -0.1215  0.1739
   97loPI   C5A 1547   6.495   7.650   7.972  0.0020 -0.3799 -0.0219
   97loPI   C6A 1548   6.665   8.112   7.922  0.2209  0.0663  0.1749
   97loPI   C1B 1549   6.484   7.932   9.447 -0.1469  0.1127  0.1295
   97loPI   C2B 1550   6.478   7.821   9.025 -0.0252  0.2280 -0.1550
   97loPI   C3B 1551   6.505   7.750   8.567  0.3668  0.1224  0.0365
   97loPI   C4B 1552   6.884   7.592   8.298  0.1900  0.2060  0.2400
   98loPI    C1 1553   0.903   8.499   9.424 -0.0112  0.0204 -0.1344
   98loPI    C2 1554   0.652   8.287   9.197 -0.0523  0.0809 -0.1457
   98loPI    C3 1555   0.534   8.421   9.555  0.0392 -0.0838 -0.0529
   98loPI   PO4 1556   1.038   8.644   9.264  0.0888  0.1124 -0.1240
   98loPI   GL1 1557   1.139   8.706   8.836 -0.3406  0.0129  0.0594
   98loPI   GL2 1558   1.385   8.467   8.918  0.3135 -0.0970 -0.1799
   98loPI   C1A 1559   1.058   8.969   8.523  0.0122 -0.1509 -0.0120
   98loPI   C2A 1560   1.040   8.976   8.115  0.4701  0.0923 -0.0800
   98loPI   C3A 1561   0.758   9.059   7.779 -0.1135  0.0052  0.2170
   98loPI   C4A 1562   0.544   9.230   7.458  0.1677  0.1806  0.1003
   98loPI   C5A 1563   0.395   9.666   7.369 -0.1197 -0.1315 -0.0961
   98loPI   C6A 1564   0.606   9.837   7.126  0.1001 -0.2079 -0.1381
   98loPI   C1B 1565   1.295   8.519   8.407 -0.1599  0.1447 -0.0484
   98loPI   C2B 1566   1.250   8.534   8.070  0.0229 -0.2593  0.0515
   98loPI   C3B 1567   1.226   8.590   7.735  0.1399 -0.0239  0.0893
   98loPI   C4B 1568   1.226   8.936   7.699 -0.1049  0.0172  0.2928
   99loPI    C1 1569   8.319  16.048  10.072 -0.1297  0.1166 -0.1476
   99loPI    C2 1570   8.420  16.403  10.226  0.0854 -0.0313  0.0607
   99loPI    C3 1571   8.090  16.216  10.353  0.0188  0.0531  0.0132
   99loPI   PO4 1572   8.309  16.022   9.783 -0.1340  0.2451 -0.2965
   99loPI   GL1 1573   8.406  15.676   9.557 -0.3785  0.4059 -0.1237
   99loPI   GL2 1574   8.001  15.692   9.572  0.0648 -0.0662  0.0731
   99loPI   C1A 1575   8.619  15.798   9.177 -0.1103  0.0583 -0.0140
   99loPI   C2A 1576   8.633  15.655   8.809 -0.1759  0.1028 -0.0365
   99loPI   C3A 1577   8.406  15.571   8.475  0.1463  0.2282  0.1963
   99loPI   C4A 1578   8.395  15.380   8.062  0.1479  0.1459 -0.1673
   99loPI   C5A 1579   8.276  15.093   7.778 -0.0525 -0.0893  0.0062
   99loPI   C6A 1580   8.031  14.927   7.502 -0.3518  0.1239 -0.0315
   99loPI   C1B 1581   7.989  15.865   9.114 -0.2982 -0.1674 -0.1753
   99loPI   C2B 1582   8.000  15.723   8.733  0.1034  0.1446  0.1425
   99loPI   C3B 1583   7.911  15.498   8.362 -0.3117  0.0301 -0.0617
   99loPI   C4B 1584   7.974  15.072   8.186  0.0539  0.2138 -0.2219
  100loPI    C1 1585   1.023  12.735  10.011 -0.0067 -0.2472 -0.0685
  100loPI    C2 1586   1.342  12.606  10.216 -0.0613 -0.1990  0.0474
  100loPI    C3 1587   1.172  12.957  10.309  0.0622 -0.0597 -0.2403
  100loPI   PO4 1588   1.036  12.752   9.698 -0.2397 -0.2050  0.0727
  100loPI   GL1 1589   1.339  12.773   9.397 -0.1011 -0.1197  0.0180
  100loPI   GL2 1590   1.233  13.041   9.349  0.1501 -0.0079 -0.2155
  100loPI   C1A 1591   1.406  12.671   9.036  0.1112  0.2943 -0.2746
  100loPI   C2A 1592   1.312  12.756   8.580 -0.3479  0.2471  0.1579
  100loPI   C3A 1593   1.558  12.977   8.310 -0.0660  0.0127  0.1704
  100loPI   C4A 1594   1.658  13.054   7.879 -0.1686 -0.2520 -0.0740
  100loPI   C5A 1595   1.491  13.291   7.528 -0.0369  0.3055  0.0962
  100loPI   C6A 1596   1.216  13.522   7.192 -0.1975  0.2235  0.1162
  100loPI   C1B 1597   1.142  13.066   8.932 -0.5003  0.0836  0.0380
  100loPI   C2B 1598   1.081  13.216   8.542 -0.0486  0.0838 -0.1693
  100loPI   C3B 1599   0.982  12.949   8.197  0.0990 -0.1758  0.1541
  100loPI   C4B 1600   1.056  12.963   7.659 -0.0317 -0.3772  0.2623
  101loPI    C1 1601   5.999   5.654  10.081 -0.2036  0.0126 -0.0770
  101loPI    C2 1602   5.750   5.616   9.770 -0.0389  0.0143 -0.2108
  101loPI    C3 1603   5.734   5.943  10.000 -0.2763 -0.0638 -0.1128
  101loPI   PO4 1604   6.195   5.560   9.959  0.0856 -0.0769 -0.4457
  101loPI   GL1 1605   6.270   5.367   9.560  0.1619 -0.1898  0.3087
  101loPI   GL2 1606   6.452   5.404   9.317  0.3407  0.1671 -0.2189
  101loPI   C1A 1607   5.897   5.575   9.321  0.1047 -0.1035 -0.1242
  101loPI   C2A 1608   5.829   5.631   8.852  0.0201  0.1574  0.2658
  101loPI   C3A 1609   5.718   5.642   8.406  0.2970 -0.1560 -0.1162
  101loPI   C4A 1610   5.502   5.500   8.015  0.2713 -0.0893  0.1911
  101loPI   C5A 1611   5.260   5.053   8.036 -0.3982  0.0486  0.2553
  101loPI   C6A 1612   5.074   4.768   7.828  0.0597 -0.0651 -0.1963
  101loPI   C1B 1613   6.275   5.285   8.952  0.0929  0.1759 -0.1526
  101loPI   C2B 1614   6.204   5.367   8.640  0.2186 -0.0225 -0.2074
  101loPI   C3B 1615   6.261   5.284   8.244  0.0327  0.1052 -0.3061
  101loPI   C4B 1616   6.022   5.362   7.865 -0.0756 -0.3305 -0.1735
  102loPI    C1 1617  15.639   8.254  10.133 -0.0480  0.0141 -0.0498
  102loPI    C2 1618  15.610   8.464  10.472  0.0929 -0.2982  0.1597
  102loPI    C3 1619  15.967   8.408  10.302 -0.0045  0.0625 -0.1771
  102loPI   PO4 1620  15.538   8.318   9.872  0.2864 -0.2258  0.1930
  102loPI   GL1 1621  15.120   8.095   9.737 -0.3064  0.0831 -0.0174
  102loPI   GL2 1622  15.158   7.874   9.500 -0.0252 -0.0496 -0.0968
  102loPI   C1A 1623  15.113   8.315   9.285  0.0602 -0.1654  0.2580
  102loPI   C2A 1624  15.060   8.398   8.933 -0.1120 -0.2067  0.0080
  102loPI   C3A 1625  15.107   8.425   8.516 -0.2095  0.1526  0.2643
  102loPI   C4A 1626  15.310   8.560   8.172 -0.0196  0.0595 -0.1050
  102loPI   C5A 1627  15.561   8.651   7.921  0.2053 -0.0536  0.1017
  102loPI   C6A 1628  15.574   8.636   7.504  0.0767  0.0869  0.1008
  102loPI   C1B 1629  14.972   7.923   9.045  0.0933 -0.1662  0.0187
  102loPI   C2B 1630  14.932   7.945   8.530  0.1791  0.3735  0.0600
  102loPI   C3B 1631  14.647   8.066   8.144  0.0040 -0.1020  0.0617
  102loPI   C4B 1632  14.447   8.043   7.763  0.3409 -0.2624 -0.0811
  103loPI    C1 1633   5.337   8.916  10.084 -0.1412  0.1426  0.1085
  103loPI    C2 1634   5.179   9.238  10.259  0.0848  0.3029  0.0223
  103loPI    C3 1635   5.531   9.096  10.384 -0.0757  0.0078  0.1480
  103loPI   PO4 1636   5.383   8.968   9.853 -0.0032 -0.2962 -0.2271
  103loPI   GL1 1637   5.323   9.047   9.490 -0.3046 -0.1544 -0.1461
  103loPI   GL2 1638   5.166   8.889   9.277  0.5148 -0.2646 -0.2613
  103loPI   C1A 1639   5.260   9.374   9.108  0.1368  0.1442 -0.2124
  103loPI   C2A 1640   4.984   9.506   8.790 -0.1706 -0.2390 -0.0796
  103loPI   C3A 1641   4.813   9.544   8.368 -0.0027  0.1312  0.0143
  103loPI   C4A 1642   4.675   9.128   8.134 -0.1349 -0.3302 -0.1055
  103loPI   C5A 1643   4.830   8.859   7.968  0.1898  0.0209 -0.0871
  103loPI   C6A 1644   5.239   8.780   7.906 -0.1165 -0.2930 -0.1777
  103loPI   C1B 1645   5.265   8.940   8.898  0.1106  0.0234  0.1789
  103loPI   C2B 1646   5.335   9.297   8.554  0.0808 -0.1354  0.1940
  103loPI   C3B 1647   5.214   9.260   8.145 -0.0626  0.2470  0.2025
  103loPI   C4B 1648   5.469   9.187   7.788 -0.0668  0.4295 -0.4062
  104loPI    C1 1649   5.128   7.198  10.492 -0.0911  0.3059  0.2584
  104loPI    C2 1650   4.750   7.235  10.366 -0.0413 -0.0084  0.0032
  104loPI    C3 1651   4.827   7.097  10.734 -0.1730 -0.0056  0.0322
  104loPI   PO4 1652   5.234   7.230  10.154  0.0143 -0.0176  0.0144
  104loPI   GL1 1653   5.422   7.260   9.689 -0.1494  0.2867  0.0338
  104loPI   GL2 1654   5.240   7.481   9.696 -0.0348  0.3074  0.0337
  104loPI   C1A 1655   5.638   7.566   9.426  0.0243  0.3775 -0.1392
  104loPI   C2A 1656   5.649   7.537   9.007 -0.1289  0.0764 -0.2909
  104loPI   C3A 1657   5.621   7.439   8.655  0.2393 -0.1868 -0.2614
  104loPI   C4A 1658   5.881   7.367   8.306  0.0385 -0.1155  0.0682
  104loPI   C5A 1659   6.050   7.372   7.949  0.0867  0.0749  0.1516
  104loPI   C6A 1660   6.363   7.123   7.817 -0.0368 -0.3084  0.1251
  104loPI   C1B 1661   5.216   7.339   9.248 -0.1666 -0.0000 -0.1698
  104loPI   C2B 1662   5.142   7.528   8.861  0.3103  0.1878  0.2495
  104loPI   C3B 1663   5.095   7.480   8.452 -0.0976  0.2205  0.1436
  104loPI   C4B 1664   5.092   7.314   8.100 -0.1514  0.1656 -0.0418
  105loPI    C1 1665  15.479   0.159  10.624  0.3669  0.0540 -0.0234
  105loPI    C2 1666  15.238   0.237  10.934  0.1250 -0.4388 -0.0771
  105loPI    C3 1667  15.611   0.382  10.928 -0.1700  0.3723 -0.0114
  105loPI   PO4 1668  15.317   0.289  10.371  0.2520 -0.2079 -0.1940
  105loPI   GL1 1669  15.237   0.257  10.003 -0.1084  0.4128  0.0584
  105loPI   GL2 1670  15.072   0.112   9.949  0.4970  0.0808  0.0142
  105loPI   C1A 1671  14.978   0.551   9.736  0.0130  0.1770 -0.0102
  105loPI   C2A 1672  14.843   0.674   9.347  0.2974  0.1473 -0.1291
  105loPI   C3A 1673  14.665   0.951   9.187  0.0675 -0.0911 -0.1182
  105loPI   C4A 1674  14.712   1.110   8.840  0.1864  0.5083  0.1492
  105loPI   C5A 1675  14.471   1.268   8.539  0.1276 -0.2654  0.1168
  105loPI   C6A 1676  14.420   1.653   8.267  0.1791 -0.2686 -0.2480
  105loPI   C1B 1677  15.039   0.036   9.536 -0.0997 -0.1083  0.0381
  105loPI   C2B 1678  15.072   0.164   9.263 -0.1120 -0.0213 -0.0774
  105loPI   C3B 1679  15.131   0.107   8.868 -0.0105 -0.1755 -0.1608
  105loPI   C4B 1680  15.487   0.053   8.670  0.2757 -0.3692  0.0286
  106loPI    C1 1681  10.127  15.317  10.540  0.2484  0.2355  0.0094
  106loPI    C2 1682  10.388  15.034  10.649 -0.1163 -0.1235 -0.0214
  106loPI    C3 1683  10.260  15.303  10.917  0.0027 -0.1745  0.0876
  106loPI   PO4 1684  10.185  15.442  10.251  0.1384  0.0371  0.2582
  106loPI   GL1 1685  10.449  15.356   9.879  0.0261 -0.0295  0.2288
  106loPI   GL2 1686  10.360  15.024   9.734 -0.1670  0.1475 -0.2277
  106loPI   C1A 1687  10.393  15.355   9.395 -0.0240  0.1810 -0.0722
  106loPI   C2A 1688  10.181  15.384   8.955 -0.1702 -0.0981  0.0347
  106loPI   C3A 1689  10.060  15.425   8.488 -0.1628  0.2654 -0.1424
  106loPI   C4A 1690   9.889  15.520   8.119  0.0741  0.1927 -0.1894
  106loPI   C5A 1691   9.878  15.316   7.745  0.0934 -0.0492 -0.0547
  106loPI   C6A 1692   9.862  15.439   7.253 -0.0088 -0.0312 -0.3169
  106loPI   C1B 1693  10.457  14.838   9.411 -0.0760 -0.0022  0.2783
  106loPI   C2B 1694  10.684  15.113   9.069  0.0053 -0.1125  0.0295
  106loPI   C3B 1695  10.918  15.021   8.739  0.0119 -0.0158  0.0558
  106loPI   C4B 1696  11.211  15.076   8.382  0.1312  0.0688 -0.1972
  107loPI    C1 1697  10.577  16.965  10.869 -0.1071 -0.0252  0.1126
  107loPI    C2 1698  10.532  17.006  11.264  0.0993 -0.0712  0.1423
  107loPI    C3 1699  10.753  16.706  11.118 -0.3716 -0.3470 -0.0272
  107loPI   PO4 1700  10.727  17.174  10.820 -0.4227 -0.4001  0.2854
  107loPI   GL1 1701  10.659  17.456  10.540 -0.1467 -0.1357 -0.0616
  107loPI   GL2 1702  10.454  17.699  10.410  0.1370  0.2798  0.2147
  107loPI   C1A 1703  10.996  17.583  10.296  0.0591 -0.1543 -0.1208
  107loPI   C2A 1704  11.232  17.768  10.039  0.0203  0.2109  0.0671
  107loPI   C3A 1705  11.352  17.992   9.772  0.0548  0.1669 -0.0632
  107loPI   C4A 1706  11.187  17.996   9.371 -0.0378 -0.1567  0.1444
  107loPI   C5A 1707  11.366  18.217   8.901 -0.2464  0.0810  0.1919
  107loPI   C6A 1708  11.802  18.548   8.725  0.0047  0.2100 -0.0225
  107loPI   C1B 1709  10.610  17.738   9.990 -0.1308 -0.0647  0.2161
  107loPI   C2B 1710  10.844  17.701   9.640 -0.0588  0.0333  0.2086
  107loPI   C3B 1711  10.952  17.416   9.324  0.3445  0.0729 -0.0576
  107loPI   C4B 1712  10.973  17.529   8.907 -0.2173  0.0726 -0.2409
  108loPI    C1 1713  13.813  15.725  10.890  0.1426 -0.0237  0.1410
  108loPI    C2 1714  14.193  15.729  11.015  0.1973 -0.1002 -0.0207
  108loPI    C3 1715  13.938  15.455  11.158  0.1833 -0.0030  0.1428
  108loPI   PO4 1716  13.803  15.735  10.695 -0.0491  0.0628 -0.2224
  108loPI   GL1 1717  13.719  16.037  10.215  0.1297 -0.1583  0.1166
  108loPI   GL2 1718  13.455  15.812  10.196 -0.1227  0.0295 -0.1364
  108loPI   C1A 1719  13.895  15.978   9.773  0.0223  0.5706  0.0070
  108loPI   C2A 1720  13.899  16.132   9.297 -0.2465 -0.4490  0.3107
  108loPI   C3A 1721  13.874  16.026   8.941  0.0414 -0.1988  0.0289
  108loPI   C4A 1722  13.886  15.799   8.541 -0.0976 -0.1278 -0.0903
  108loPI   C5A 1723  13.906  15.370   8.461 -0.0030 -0.3459 -0.0948
  108loPI   C6A 1724  13.688  14.935   8.594 -0.2268  0.1451 -0.0827
  108loPI   C1B 1725  13.490  15.611   9.770 -0.1112  0.0260 -0.3109
  108loPI   C2B 1726  13.604  15.663   9.280  0.1377 -0.3439 -0.1730
  108loPI   C3B 1727  13.611  15.558   8.875 -0.3604 -0.0902 -0.0929
  108loPI   C4B 1728  13.378  15.317   8.556  0.0467  0.1014  0.0640
  109loPI    C1 1729  10.921   9.271  10.394  0.0906  0.1804 -0.0577
  109loPI    C2 1730  10.880   8.946  10.624  0.0060  0.0394 -0.2683
  109loPI    C3 1731  10.970   9.299  10.790 -0.0885 -0.0525 -0.0164
  109loPI   PO4 1732  11.091   9.176  10.124 -0.0318  0.0079 -0.0557
  109loPI   GL1 1733  11.117   9.324   9.767  0.2044 -0.2156 -0.2743
  109loPI   GL2 1734  11.389   9.539   9.755 -0.1010  0.0685  0.0875
  109loPI   C1A 1735  10.962   9.184   9.351  0.0706 -0.0678  0.1077
  109loPI   C2A 1736  10.717   9.088   8.951 -0.0431 -0.0010  0.1458
  109loPI   C3A 1737  10.695   8.963   8.547 -0.1559  0.0397  0.0296
  109loPI   C4A 1738  10.636   9.056   8.181 -0.0357 -0.0194  0.0519
  109loPI   C5A 1739  10.763   9.298   7.801  0.2347 -0.2688  0.0269
  109loPI   C6A 1740  10.810   9.050   7.367  0.0106  0.3831 -0.0109
  109loPI   C1B 1741  11.549   9.842   9.441 -0.0973 -0.0400  0.1365
  109loPI   C2B 1742  11.441   9.927   8.999  0.3284 -0.0154 -0.0586
  109loPI   C3B 1743  11.557  10.190   8.673 -0.2370  0.1774 -0.1283
  109loPI   C4B 1744  11.776  10.273   8.267 -0.1527  0.0151  0.0381
  110loPI    C1 1745  16.627   5.886   9.809 -0.4846  0.0066 -0.1145
  110loPI    C2 1746  16.624   5.654  10.135  0.4537  0.1874  0.0525
  110loPI    C3 1747  16.484   6.029  10.154  0.0665  0.0444  0.1089
  110loPI   PO4 1748  16.514   5.771   9.632 -0.2577  0.1414  0.1282
  110loPI   GL1 1749  16.401   5.837   9.177  0.0138 -0.3805  0.1616
  110loPI   GL2 1750  16.761   5.867   9.106 -0.0226  0.0365 -0.1615
  110loPI   C1A 1751  16.285   5.934   8.827  0.1882 -0.0822  0.1425
  110loPI   C2A 1752  16.399   5.909   8.465 -0.0870  0.1529 -0.1728
  110loPI   C3A 1753  16.567   5.870   8.120  0.1821  0.1746 -0.1924
  110loPI   C4A 1754  16.706   5.903   7.672 -0.0642  0.2486 -0.1039
  110loPI   C5A 1755  16.689   5.757   7.243  0.1034 -0.1881  0.0286
  110loPI   C6A 1756  17.029   5.563   6.939 -0.2352  0.3220  0.1692
  110loPI   C1B 1757  16.850   5.911   8.675  0.1340  0.3168  0.1060
  110loPI   C2B 1758  17.009   5.676   8.349 -0.0221 -0.0322 -0.0540
  110loPI   C3B 1759  17.033   5.555   7.972  0.1319 -0.2083  0.1651
  110loPI   C4B 1760  17.279   5.607   7.573  0.0128  0.0938 -0.0198
  111loPI    C1 1761  15.542   9.105  10.539  0.1719  0.0560 -0.0431
  111loPI    C2 1762  15.284   8.817  10.645 -0.2317  0.3341 -0.2454
  111loPI    C3 1763  15.624   8.867  10.850 -0.3903  0.0352  0.0995
  111loPI   PO4 1764  15.513   9.121  10.279 -0.0258  0.2144 -0.1502
  111loPI   GL1 1765  15.411   9.265   9.901 -0.0472 -0.2030 -0.0842
  111loPI   GL2 1766  15.087   9.445   9.846  0.0462 -0.1823 -0.1200
  111loPI   C1A 1767  15.476   9.341   9.427 -0.2028 -0.0929  0.2061
  111loPI   C2A 1768  15.341   9.447   8.918  0.3862 -0.2817  0.1242
  111loPI   C3A 1769  15.420   9.592   8.564  0.3250 -0.0424  0.0354
  111loPI   C4A 1770  15.171   9.680   8.159  0.0904 -0.0792 -0.0030
  111loPI   C5A 1771  15.033   9.883   7.780  0.0420 -0.0719  0.1824
  111loPI   C6A 1772  14.576   9.811   7.624 -0.1825  0.3235  0.1119
  111loPI   C1B 1773  14.991   9.241   9.511 -0.1000 -0.1252  0.2835
  111loPI   C2B 1774  14.588   9.255   9.328 -0.1812 -0.0676  0.0517
  111loPI   C3B 1775  14.300   9.218   8.985 -0.0350 -0.1917 -0.2197
  111loPI   C4B 1776  14.405   9.108   8.528 -0.1116 -0.4648 -0.0031
  112loPI    C1 1777   3.360  15.379  10.275  0.1714 -0.0774  0.2314
  112loPI    C2 1778   3.158  15.174   9.997  0.1724  0.4600 -0.1813
  112loPI    C3 1779   3.083  15.112  10.385 -0.0519 -0.0773 -0.3016
  112loPI   PO4 1780   3.582  15.426  10.047  0.1463  0.3128  0.2055
  112loPI   GL1 1781   3.557  15.353   9.666 -0.0038  0.0590  0.3528
  112loPI   GL2 1782   3.293  15.440   9.596  0.1371 -0.1187 -0.3451
  112loPI   C1A 1783   3.731  15.357   9.310  0.2114 -0.1960 -0.1425
  112loPI   C2A 1784   3.778  15.387   8.904  0.2460  0.0386 -0.2497
  112loPI   C3A 1785   3.995  15.162   8.605  0.0471 -0.1565  0.0135
  112loPI   C4A 1786   4.073  15.132   8.204  0.0427 -0.0780  0.1890
  112loPI   C5A 1787   3.957  15.282   7.839  0.2183 -0.0037 -0.0795
  112loPI   C6A 1788   3.622  15.511   7.536 -0.1750 -0.1217  0.2453
  112loPI   C1B 1789   3.347  15.596   9.253  0.0684  0.2523  0.0497
  112loPI   C2B 1790   3.424  15.741   8.822  0.1995 -0.1234 -0.2151
  112loPI   C3B 1791   3.488  16.004   8.429  0.2233  0.1562  0.0392
  112loPI   C4B 1792   3.553  16.484   8.163  0.1301  0.0307 -0.1430
  113loPI    C1 1793   4.051   1.454  10.289  0.2314  0.1202 -0.0525
  113loPI    C2 1794   3.978   1.681  10.611  0.0042 -0.0592  0.0249
  113loPI    C3 1795   4.230   1.371  10.637  0.1836  0.0793 -0.0377
  113loPI   PO4 1796   3.832   1.446  10.121  0.0122 -0.2901 -0.0619
  113loPI   GL1 1797   3.622   1.672   9.766  0.1647 -0.4264 -0.2483
  113loPI   GL2 1798   3.912   1.571   9.619  0.3413  0.2449 -0.0995
  113loPI   C1A 1799   3.529   1.630   9.348  0.2755 -0.0514 -0.1091
  113loPI   C2A 1800   3.488   1.556   8.837 -0.3002  0.2179 -0.0582
  113loPI   C3A 1801   3.576   1.398   8.376  0.0101 -0.1507  0.3608
  113loPI   C4A 1802   3.600   1.187   7.998 -0.0386 -0.2183 -0.0985
  113loPI   C5A 1803   3.667   0.833   7.771  0.2509 -0.0218  0.1323
  113loPI   C6A 1804   3.406   0.625   7.482 -0.0090  0.0973 -0.2260
  113loPI   C1B 1805   3.983   1.653   9.136  0.4020 -0.0209  0.0656
  113loPI   C2B 1806   4.117   1.527   8.735 -0.1675  0.0899 -0.1140
  113loPI   C3B 1807   4.228   1.367   8.342 -0.1747 -0.1540  0.0669
  113loPI   C4B 1808   4.293   1.503   7.937  0.0478 -0.1886 -0.2196
  114loPI    C1 1809  11.316   8.424  10.298  0.0212  0.3281 -0.0749
  114loPI    C2 1810  11.565   8.504  10.601 -0.0293 -0.0728  0.0786
  114loPI    C3 1811  11.709   8.452  10.232  0.0470  0.2818  0.0552
  114loPI   PO4 1812  11.115   8.567  10.310 -0.5801 -0.0117 -0.1065
  114loPI   GL1 1813  10.843   8.639  10.059  0.0778 -0.0588  0.4083
  114loPI   GL2 1814  10.645   8.880  10.104  0.0827  0.1100 -0.1271
  114loPI   C1A 1815  10.903   8.527   9.553 -0.1891  0.1676 -0.0756
  114loPI   C2A 1816  10.946   8.362   9.079  0.1706  0.1370 -0.0436
  114loPI   C3A 1817  10.987   8.312   8.570  0.2342  0.3429 -0.0287
  114loPI   C4A 1818  11.035   7.881   8.267  0.0072  0.1729 -0.0371
  114loPI   C5A 1819  11.026   7.429   8.247 -0.0549  0.1022  0.0003
  114loPI   C6A 1820  11.243   7.141   7.967 -0.0311 -0.2297  0.1929
  114loPI   C1B 1821  10.449   8.711   9.710  0.0020  0.1861  0.1034
  114loPI   C2B 1822  10.460   8.646   9.227 -0.2771 -0.1149 -0.0309
  114loPI   C3B 1823  10.516   8.525   8.788  0.1943 -0.2305 -0.0356
  114loPI   C4B 1824  10.530   8.389   8.350  0.0961 -0.1015  0.1670
  115loPI    C1 1825  14.723  14.156  10.621 -0.1797  0.1290  0.0083
  115loPI    C2 1826  14.921  14.157  10.969 -0.0409 -0.0984 -0.0679
  115loPI    C3 1827  14.544  14.290  10.953 -0.0028  0.0391  0.1418
  115loPI   PO4 1828  14.933  14.271  10.456 -0.0294 -0.2108  0.1719
  115loPI   GL1 1829  14.980  14.524  10.084 -0.2057 -0.0962 -0.1332
  115loPI   GL2 1830  15.147  14.280  10.009  0.1348  0.0467  0.2501
  115loPI   C1A 1831  14.801  14.807   9.689  0.0089  0.0182 -0.0856
  115loPI   C2A 1832  14.551  14.606   9.309  0.1188  0.1443 -0.0326
  115loPI   C3A 1833  14.541  14.529   8.923 -0.1193 -0.0000  0.0868
  115loPI   C4A 1834  14.821  14.285   8.556 -0.0337  0.2340  0.1423
  115loPI   C5A 1835  14.701  14.013   8.363  0.2307  0.1003  0.1269
  115loPI   C6A 1836  14.582  13.871   7.954 -0.0245 -0.1282 -0.0030
  115loPI   C1B 1837  15.121  13.833   9.819  0.1692  0.2653  0.0871
  115loPI   C2B 1838  15.146  13.705   9.372 -0.1212  0.0274 -0.0169
  115loPI   C3B 1839  14.966  13.513   9.120  0.2150  0.0540 -0.0556
  115loPI   C4B 1840  14.710  13.611   8.665  0.3608 -0.3436 -0.2071
  116loPI    C1 1841  11.808   4.020  10.437  0.0745  0.0995  0.0288
  116loPI    C2 1842  11.854   4.212  10.785 -0.0646  0.2099 -0.0128
  116loPI    C3 1843  11.541   3.969  10.730  0.0213  0.0995 -0.0196
  116loPI   PO4 1844  11.849   4.246  10.298  0.0456 -0.2058  0.1692
  116loPI   GL1 1845  11.958   4.388   9.952 -0.1075  0.1078  0.0667
  116loPI   GL2 1846  11.882   4.679   9.918 -0.1410  0.2336 -0.0997
  116loPI   C1A 1847  11.872   4.058   9.678  0.0062  0.0149  0.1369
  116loPI   C2A 1848  11.764   3.794   9.378 -0.0094  0.0861 -0.3251
  116loPI   C3A 1849  11.643   3.585   9.040 -0.2037 -0.1385  0.2078
  116loPI   C4A 1850  11.669   3.409   8.713 -0.3775  0.2426 -0.3345
  116loPI   C5A 1851  11.514   3.083   8.454 -0.2179 -0.4818  0.0631
  116loPI   C6A 1852  11.515   3.011   7.965  0.1692  0.0337  0.0592
  116loPI   C1B 1853  12.077   4.627   9.546  0.0825 -0.0715  0.0510
  116loPI   C2B 1854  12.292   4.243   9.446  0.0209  0.0343  0.2176
  116loPI   C3B 1855  12.316   3.734   9.496 -0.1073  0.3446  0.1562
  116loPI   C4B 1856  12.097   3.508   9.178  0.1231 -0.0325 -0.3188
  117loPI    C1 1857  11.089  14.493   9.917 -0.0259  0.0444  0.1903
  117loPI    C2 1858  11.258  14.632  10.252 -0.2178  0.1772  0.2338
  117loPI    C3 1859  10.929  14.405  10.273 -0.0528 -0.0744  0.1495
  117loPI   PO4 1860  11.291  14.633   9.688  0.1508  0.1616 -0.2252
  117loPI   GL1 1861  11.463  14.410   9.428  0.0960 -0.1011 -0.2638
  117loPI   GL2 1862  11.711  14.380   9.484 -0.0937  0.2580 -0.0285
  117loPI   C1A 1863  11.396  14.515   9.064 -0.1258 -0.0625 -0.3668
  117loPI   C2A 1864  11.138  14.478   8.730  0.0607 -0.0517  0.5021
  117loPI   C3A 1865  11.012  14.226   8.432  0.1854 -0.0849  0.1278
  117loPI   C4A 1866  11.040  13.909   8.276  0.0372  0.1065 -0.0554
  117loPI   C5A 1867  11.182  13.671   8.579  0.0668  0.0677 -0.2030
  117loPI   C6A 1868  11.287  13.466   8.885 -0.3869  0.1240 -0.1130
  117loPI   C1B 1869  11.860  14.050   9.186 -0.1261 -0.1233  0.1617
  117loPI   C2B 1870  11.978  13.986   8.718 -0.0676  0.2560 -0.1273
  117loPI   C3B 1871  12.216  13.893   8.332  0.2328 -0.1457 -0.2058
  117loPI   C4B 1872  12.291  13.731   7.946  0.0737  0.4363  0.0311
  118loPI    C1 1873  17.373  16.964  10.194 -0.0587 -0.1281  0.2553
  118loPI    C2 1874  17.225  16.654   9.990  0.0770 -0.0169 -0.0173
  118loPI    C3 1875  17.598  16.640  10.133  0.0341 -0.0345  0.0942
  118loPI   PO4 1876  17.261  17.167   9.992  0.3159 -0.0987 -0.1137
  118loPI   GL1 1877  17.093  17.361   9.599  0.2137  0.0034  0.2676
  118loPI   GL2 1878  17.408  17.401   9.533 -0.0293 -0.2576  0.1277
  118loPI   C1A 1879  17.097  17.599   9.178 -0.0413 -0.3587 -0.1596
  118loPI   C2A 1880  17.255  17.540   8.721 -0.1410 -0.0666  0.2092
  118loPI   C3A 1881  17.198  17.252   8.282 -0.1524 -0.0572 -0.1134
  118loPI   C4A 1882  16.808  17.201   7.979 -0.0324  0.1154  0.1215
  118loPI   C5A 1883  16.590  17.041   7.617 -0.3458 -0.1228  0.2723
  118loPI   C6A 1884  16.475  17.256   7.313 -0.2749 -0.1108  0.0671
  118loPI   C1B 1885  17.629  17.582   9.018 -0.0543  0.4032 -0.1211
  118loPI   C2B 1886  17.933  17.671   8.682  0.0784 -0.1121 -0.0429
  118loPI   C3B 1887  17.931  17.446   8.291  0.0802 -0.2542 -0.2761
  118loPI   C4B 1888  17.915  17.415   7.866  0.0586  0.1652  0.1006
  119loPI    C1 1889   2.971   0.609  10.276  0.0841  0.0886 -0.1613
  119loPI    C2 1890   2.897   0.537   9.889 -0.3241  0.0694 -0.0835
  119loPI    C3 1891   2.756   0.289  10.170  0.0223  0.0491  0.0775
  119loPI   PO4 1892   3.364   0.716  10.290  0.4336  0.0265 -0.0927
  119loPI   GL1 1893   3.612   0.708   9.888  0.3175 -0.4250 -0.0162
  119loPI   GL2 1894   3.321   0.783   9.795  0.1986 -0.2272 -0.3667
  119loPI   C1A 1895   3.669   0.774   9.398  0.3494 -0.1381  0.0814
  119loPI   C2A 1896   4.000   0.675   8.986 -0.0319 -0.0758 -0.0977
  119loPI   C3A 1897   4.123   0.414   8.570 -0.2296  0.0278 -0.0700
  119loPI   C4A 1898   4.210   0.102   8.316 -0.2981  0.0455  0.2553
  119loPI   C5A 1899   4.213  -0.081   7.881 -0.1222  0.1530  0.0187
  119loPI   C6A 1900   4.548  -0.255   7.707 -0.1118  0.0513 -0.1253
  119loPI   C1B 1901   3.167   0.571   9.461 -0.3893 -0.2021 -0.2338
  119loPI   C2B 1902   3.340   0.553   8.957  0.3730  0.0343 -0.0304
  119loPI   C3B 1903   3.523   0.780   8.678 -0.0039  0.0470 -0.3196
  119loPI   C4B 1904   3.682   0.667   8.300 -0.0615 -0.1585  0.0205
  120loPI    C1 1905   2.711   3.319   9.938 -0.0259  0.0072  0.0288
  120loPI    C2 1906   2.987   3.608   9.908  0.0949 -0.1036  0.0628
  120loPI    C3 1907   3.088   3.248  10.050 -0.1015 -0.0987  0.2206
  120loPI   PO4 1908   2.649   3.251   9.728  0.0081 -0.1184  0.2016
  120loPI   GL1 1909   2.878   3.306   9.418  0.4514 -0.0663  0.0716
  120loPI   GL2 1910   2.943   2.947   9.338 -0.0116 -0.5984 -0.0302
  120loPI   C1A 1911   3.019   3.429   9.057  0.0690 -0.0276 -0.1572
  120loPI   C2A 1912   3.056   3.345   8.661 -0.0629  0.1529  0.1313
  120loPI   C3A 1913   2.967   3.260   8.268  0.3527  0.1168 -0.1065
  120loPI   C4A 1914   3.057   3.335   7.841  0.2630 -0.0870 -0.4113
  120loPI   C5A 1915   2.766   3.274   7.544 -0.0024 -0.1605  0.1079
  120loPI   C6A 1916   2.738   3.181   7.117  0.2788 -0.0568  0.0644
  120loPI   C1B 1917   3.138   2.924   8.861  0.0859  0.0811 -0.2407
  120loPI   C2B 1918   3.235   2.854   8.439 -0.1586  0.2948  0.2506
  120loPI   C3B 1919   3.137   2.797   7.906  0.0368 -0.1252 -0.0973
  120loPI   C4B 1920   2.878   2.774   7.589  0.2211  0.2467  0.2140
  121loPI    C1 1921   8.140  13.727   9.887 -0.4603 -0.1049 -0.2628
  121loPI    C2 1922   8.029  14.076  10.047 -0.0383 -0.0674 -0.0366
  121loPI    C3 1923   8.003  13.740  10.262  0.1635 -0.0759 -0.0232
  121loPI   PO4 1924   8.347  13.690   9.799 -0.0375 -0.0048  0.0393
  121loPI   GL1 1925   8.561  13.402   9.601 -0.2160 -0.0133  0.2636
  121loPI   GL2 1926   8.831  13.220   9.332  0.3349  0.3007  0.0536
  121loPI   C1A 1927   8.286  13.042   9.274 -0.3438 -0.1075 -0.1004
  121loPI   C2A 1928   8.089  13.200   8.852 -0.2719  0.0202 -0.1138
  121loPI   C3A 1929   8.017  13.313   8.480 -0.3711  0.2978  0.0932
  121loPI   C4A 1930   7.750  13.438   8.197  0.2456  0.1311 -0.0263
  121loPI   C5A 1931   7.597  13.646   7.832 -0.2110  0.2590 -0.3062
  121loPI   C6A 1932   7.482  14.063   7.741  0.4680 -0.1054 -0.0577
  121loPI   C1B 1933   8.682  13.105   8.885  0.2599 -0.1196 -0.0059
  121loPI   C2B 1934   8.502  13.026   8.580 -0.2686 -0.3499  0.1482
  121loPI   C3B 1935   8.478  12.863   8.233 -0.2998  0.1822  0.0493
  121loPI   C4B 1936   8.770  12.742   7.997 -0.2445 -0.3701  0.3183
  122loPI    C1 1937   1.152   6.660   9.291 -0.0431 -0.2498  0.1067
  122loPI    C2 1938   1.290   6.905   9.575 -0.1777 -0.1167  0.0583
  122loPI    C3 1939   1.094   6.572   9.677 -0.1843 -0.0935  0.1222
  122loPI   PO4 1940   1.349   6.606   9.111 -0.1302  0.0675 -0.1807
  122loPI   GL1 1941   1.432   6.289   8.737  0.0878  0.0773  0.0967
  122loPI   GL2 1942   1.178   6.458   8.656 -0.3784  0.3195  0.1236
  122loPI   C1A 1943   1.520   6.289   8.304 -0.0448  0.1300 -0.2289
  122loPI   C2A 1944   1.382   6.221   7.904  0.0630  0.1273 -0.0107
  122loPI   C3A 1945   1.594   6.338   7.578 -0.5686 -0.2561 -0.0796
  122loPI   C4A 1946   1.711   6.319   7.163 -0.1050  0.0295 -0.2725
  122loPI   C5A 1947   1.731   6.095   6.788  0.1685  0.0452 -0.1513
  122loPI   C6A 1948   1.772   5.744   6.434  0.1550 -0.1276  0.0634
  122loPI   C1B 1949   1.045   6.571   8.267  0.0204  0.1102 -0.1864
  122loPI   C2B 1950   0.991   6.619   7.683 -0.0037 -0.0274 -0.2516
  122loPI   C3B 1951   0.762   6.348   7.525 -0.2689 -0.0157 -0.0838
  122loPI   C4B 1952   0.728   6.130   7.162 -0.3065  0.1563 -0.2081
  123loPI    C1 1953  13.757   3.334  10.451 -0.1632  0.1507  0.0231
  123loPI    C2 1954  13.739   3.589  10.758 -0.2692  0.0127  0.1328
  123loPI    C3 1955  14.069   3.371  10.699 -0.1851  0.1606  0.0492
  123loPI   PO4 1956  13.487   3.308  10.427 -0.1735 -0.0550 -0.0282
  123loPI   GL1 1957  13.222   3.383   9.976  0.1818  0.0287  0.1359
  123loPI   GL2 1958  12.868   3.319  10.081 -0.1141  0.1991  0.0104
  123loPI   C1A 1959  13.253   3.365   9.520 -0.0975 -0.1898 -0.2433
  123loPI   C2A 1960  13.106   3.601   9.221  0.1000 -0.2248  0.0884
  123loPI   C3A 1961  12.923   3.604   8.863  0.2189  0.0169 -0.0349
  123loPI   C4A 1962  12.880   3.665   8.458 -0.1069  0.0033 -0.0716
  123loPI   C5A 1963  13.135   3.630   8.078 -0.0156  0.0300 -0.1315
  123loPI   C6A 1964  13.433   3.510   7.806  0.0856 -0.0049  0.3940
  123loPI   C1B 1965  12.751   3.547   9.640 -0.0700 -0.2005 -0.1046
  123loPI   C2B 1966  12.649   3.383   9.236 -0.0025  0.2110  0.1141
  123loPI   C3B 1967  12.768   3.162   8.869  0.0845  0.1074  0.2439
  123loPI   C4B 1968  12.586   2.851   8.641  0.1877 -0.0993  0.1080
  124loPI    C1 1969  12.629  16.488  10.983 -0.0929  0.0521  0.0441
  124loPI    C2 1970  12.560  16.616  11.356  0.0390 -0.1209  0.1296
  124loPI    C3 1971  12.838  16.795  11.132 -0.1857  0.1192  0.0370
  124loPI   PO4 1972  12.480  16.201  10.915 -0.1008  0.1999 -0.2966
  124loPI   GL1 1973  12.406  16.144  10.506 -0.0046  0.0883  0.3731
  124loPI   GL2 1974  12.718  16.355  10.498 -0.0926 -0.0732 -0.0050
  124loPI   C1A 1975  12.213  16.351  10.218 -0.0157 -0.5154 -0.2206
  124loPI   C2A 1976  12.033  16.422   9.774  0.2209 -0.1188  0.1744
  124loPI   C3A 1977  11.907  16.495   9.303  0.0477  0.0856  0.0629
  124loPI   C4A 1978  11.859  16.548   8.846 -0.2644  0.1061 -0.0558
  124loPI   C5A 1979  11.691  16.939   8.604  0.0256  0.1867  0.3039
  124loPI   C6A 1980  11.481  17.086   8.262  0.0861  0.1872 -0.1503
  124loPI   C1B 1981  12.693  16.355  10.178 -0.0619  0.1838 -0.1343
  124loPI   C2B 1982  12.593  16.347   9.776  0.1897 -0.1466 -0.2401
  124loPI   C3B 1983  12.757  16.254   9.389  0.3224 -0.1950  0.1636
  124loPI   C4B 1984  12.907  16.433   8.971  0.0240 -0.2990 -0.0333
  125loPI    C1 1985  14.181  10.860   9.918  0.0954 -0.1448  0.0317
  125loPI    C2 1986  13.962  11.090  10.162 -0.0976  0.0573 -0.3241
  125loPI    C3 1987  13.887  10.697  10.136 -0.2602  0.0835 -0.2653
  125loPI   PO4 1988  14.275  11.038   9.774 -0.0997 -0.0440 -0.1712
  125loPI   GL1 1989  14.332  10.860   9.394  0.0837 -0.1081 -0.2996
  125loPI   GL2 1990  14.555  10.798   9.352 -0.1053  0.1516  0.2092
  125loPI   C1A 1991  13.998  10.955   9.045 -0.2031  0.0893  0.0940
  125loPI   C2A 1992  13.902  10.816   8.693 -0.1460  0.1713  0.0977
  125loPI   C3A 1993  14.017  10.543   8.331  0.3529  0.0020 -0.1577
  125loPI   C4A 1994  13.743  10.323   8.074 -0.1682 -0.3046  0.0834
  125loPI   C5A 1995  13.337  10.121   8.036  0.1491 -0.0813  0.0301
  125loPI   C6A 1996  13.092   9.995   7.626 -0.1653 -0.2831  0.2806
  125loPI   C1B 1997  14.474  11.077   8.928  0.2962  0.0758 -0.0882
  125loPI   C2B 1998  14.821  11.072   8.486 -0.0859 -0.4764 -0.2982
  125loPI   C3B 1999  14.700  11.219   8.157 -0.2799 -0.0150 -0.0988
  125loPI   C4B 2000  14.456  11.483   8.008 -0.5391  0.0163  0.0091
  126loPI    C1 2001   8.482   1.545  11.006 -0.0314  0.1748 -0.3537
  126loPI    C2 2002   8.146   1.745  10.924 -0.0980  0.2490  0.0762
  126loPI    C3 2003   8.135   1.426  11.166  0.0944  0.0576 -0.1625
  126loPI   PO4 2004   8.656   1.656  10.723  0.4455 -0.0190  0.2342
  126loPI   GL1 2005   8.805   1.609  10.221  0.0643  0.1244  0.2950
  126loPI   GL2 2006   9.045   1.763  10.263 -0.1922  0.1913 -0.0164
  126loPI   C1A 2007   8.799   1.218   9.990  0.0889 -0.2094 -0.4378
  126loPI   C2A 2008   9.044   1.041   9.717 -0.0189  0.0541 -0.0033
  126loPI   C3A 2009   9.334   0.667   9.533 -0.0014  0.0949 -0.0772
  126loPI   C4A 2010   9.675   0.631   9.205  0.3321 -0.3735  0.2751
  126loPI   C5A 2011   9.948   0.848   9.007  0.0600 -0.2625  0.1249
  126loPI   C6A 2012  10.121   0.952   8.604  0.1636 -0.0613 -0.1412
  126loPI   C1B 2013   9.210   1.532   9.940 -0.3840 -0.2506 -0.1784
  126loPI   C2B 2014   9.040   1.517   9.510  0.0886 -0.1650  0.2454
  126loPI   C3B 2015   9.036   1.636   9.135  0.1620 -0.0799 -0.1890
  126loPI   C4B 2016   8.812   1.707   8.840 -0.4591  0.0010 -0.0534
  127loPI    C1 2017   1.864   9.272   9.507  0.0751 -0.0953 -0.1044
  127loPI    C2 2018   2.211   9.154   9.666 -0.0227  0.0298  0.2114
  127loPI    C3 2019   1.868   8.995   9.795 -0.1067  0.1564  0.1461
  127loPI   PO4 2020   1.904   9.261   9.249  0.3983  0.1472 -0.3683
  127loPI   GL1 2021   1.797   9.530   8.885  0.1059 -0.0107  0.1280
  127loPI   GL2 2022   2.083   9.386   8.787  0.0632  0.0260  0.2361
  127loPI   C1A 2023   1.779   9.653   8.493 -0.3168  0.3499  0.1058
  127loPI   C2A 2024   1.708   9.736   8.080 -0.1929  0.0981 -0.0448
  127loPI   C3A 2025   1.877   9.776   7.606  0.1033  0.0025 -0.2423
  127loPI   C4A 2026   2.191   9.577   7.466  0.0796  0.2372 -0.2702
  127loPI   C5A 2027   2.566   9.248   7.475 -0.0522 -0.1107 -0.1226
  127loPI   C6A 2028   2.819   9.102   7.729  0.0896  0.0004 -0.1115
  127loPI   C1B 2029   2.091   9.323   8.280 -0.0716 -0.2237 -0.1523
  127loPI   C2B 2030   1.986   9.281   7.919 -0.0599  0.2715 -0.1056
  127loPI   C3B 2031   1.690   9.211   7.479  0.1714 -0.2171 -0.0321
  127loPI   C4B 2032   1.610   9.188   6.925  0.0502 -0.1065  0.1084
  128loPI    C1 2033   4.859  14.896  10.101 -0.0381  0.0703  0.0958
  128loPI    C2 2034   5.012  15.003  10.455 -0.0678  0.3515  0.0256
  128loPI    C3 2035   4.824  15.274  10.228 -0.1611  0.1430 -0.1489
  128loPI   PO4 2036   4.755  14.663  10.098  0.1722 -0.1835 -0.1569
  128loPI   GL1 2037   4.606  14.592   9.719 -0.2517 -0.2146  0.1799
  128loPI   GL2 2038   4.370  14.728   9.702 -0.1110  0.2702 -0.0649
  128loPI   C1A 2039   4.540  14.420   9.297  0.0309 -0.2908 -0.4336
  128loPI   C2A 2040   4.411  14.319   8.850 -0.0290 -0.4118 -0.0642
  128loPI   C3A 2041   4.525  14.241   8.340  0.2333  0.2021 -0.1263
  128loPI   C4A 2042   4.549  14.068   7.919 -0.0354  0.0395  0.0468
  128loPI   C5A 2043   4.696  13.982   7.538 -0.0787  0.1128  0.3330
  128loPI   C6A 2044   5.076  14.094   7.316 -0.0166 -0.0668  0.0371
  128loPI   C1B 2045   4.326  14.844   9.332  0.1211  0.3344 -0.0081
  128loPI   C2B 2046   4.233  14.853   8.958 -0.0060  0.0498 -0.0798
  128loPI   C3B 2047   4.198  14.696   8.601 -0.1252  0.0417  0.3653
  128loPI   C4B 2048   4.300  14.711   8.174 -0.3433  0.0889 -0.1764
  129loPI    C1 2049   3.168  17.892  10.204  0.0737  0.0354  0.0421
  129loPI    C2 2050   2.888  17.883  10.489  0.0734 -0.1191  0.0376
  129loPI    C3 2051   3.236  18.068  10.557 -0.0346  0.0873  0.0374
  129loPI   PO4 2052   2.986  17.776   9.973 -0.2154 -0.2343  0.0372
  129loPI   GL1 2053   2.846  17.443   9.742 -0.0609 -0.0856 -0.0665
  129loPI   GL2 2054   2.590  17.681   9.591 -0.2117 -0.0890 -0.1032
  129loPI   C1A 2055   2.899  17.377   9.348  0.2949 -0.1642  0.3777
  129loPI   C2A 2056   3.241  17.121   9.089 -0.1457 -0.3300 -0.0156
  129loPI   C3A 2057   3.470  17.208   8.664 -0.1717  0.1798 -0.0805
  129loPI   C4A 2058   3.720  17.329   8.304 -0.2147 -0.1603 -0.0377
  129loPI   C5A 2059   3.709  17.686   7.946 -0.2420  0.1254 -0.1975
  129loPI   C6A 2060   3.467  17.907   7.847  0.0943 -0.0895 -0.0998
  129loPI   C1B 2061   2.405  17.644   9.172 -0.1637  0.0578  0.0629
  129loPI   C2B 2062   2.411  17.607   8.666 -0.0030  0.0706 -0.0638
  129loPI   C3B 2063   2.604  17.405   8.327  0.3275  0.0567  0.1097
  129loPI   C4B 2064   2.853  17.163   7.975  0.0846  0.1585 -0.2717
  130loPI    C1 2065   4.262   8.606  10.029  0.5300 -0.0639  0.0508
  130loPI    C2 2066   4.313   8.706  10.413  0.2384  0.0069  0.0727
  130loPI    C3 2067   4.192   8.337  10.317 -0.1321  0.1227  0.0788
  130loPI   PO4 2068   4.487   8.691   9.946  0.2299  0.2722 -0.2758
  130loPI   GL1 2069   4.582   8.649   9.531 -0.0948 -0.0403 -0.1621
  130loPI   GL2 2070   4.722   8.782   9.430 -0.4405 -0.1964  0.2485
  130loPI   C1A 2071   4.716   8.480   8.999  0.0377 -0.3324  0.0937
  130loPI   C2A 2072   4.502   8.345   8.583  0.0808 -0.1731  0.0449
  130loPI   C3A 2073   4.593   8.178   8.182  0.2385  0.0472 -0.0716
  130loPI   C4A 2074   4.478   7.965   7.821  0.0825  0.0903  0.1750
  130loPI   C5A 2075   4.028   7.782   7.765 -0.0079  0.1531  0.0268
  130loPI   C6A 2076   3.593   7.940   7.746  0.1250 -0.0810 -0.0271
  130loPI   C1B 2077   4.729   9.059   8.978 -0.0788  0.2174 -0.0048
  130loPI   C2B 2078   4.872   8.856   8.601 -0.0740  0.1538  0.1860
  130loPI   C3B 2079   4.998   8.542   8.268  0.2155  0.2803  0.3068
  130loPI   C4B 2080   4.911   8.356   7.846  0.4803  0.0391  0.2157
  131loPI    C1 2081  17.230   4.676  10.005  0.1483 -0.2123 -0.0700
  131loPI    C2 2082  17.442   4.398  10.200  0.0229 -0.1585  0.1467
  131loPI    C3 2083  17.341   4.738  10.384 -0.5088 -0.3103  0.1513
  131loPI   PO4 2084  17.337   4.787   9.812  0.3879  0.0286  0.2162
  131loPI   GL1 2085  17.155   4.819   9.292  0.1784  0.1456  0.0889
  131loPI   GL2 2086  17.273   5.076   9.285 -0.0033 -0.0635 -0.1667
  131loPI   C1A 2087  16.885   4.774   8.847  0.0029  0.0930  0.2776
  131loPI   C2A 2088  16.839   4.649   8.440  0.1124  0.1186  0.1702
  131loPI   C3A 2089  16.845   4.539   7.987  0.1656  0.1340 -0.1336
  131loPI   C4A 2090  16.873   4.367   7.662  0.1207 -0.2830 -0.1855
  131loPI   C5A 2091  16.954   4.243   7.323 -0.0727  0.0802 -0.3180
  131loPI   C6A 2092  17.253   4.046   7.057  0.1065  0.0159 -0.2000
  131loPI   C1B 2093  17.221   5.122   8.913 -0.0542  0.1853  0.3302
  131loPI   C2B 2094  16.991   5.159   8.526 -0.2418 -0.1917 -0.1318
  131loPI   C3B 2095  16.817   5.004   8.087  0.1724 -0.0165  0.2269
  131loPI   C4B 2096  16.575   4.961   7.740  0.0712 -0.0965 -0.1336
  132loPI    C1 2097   6.745   2.217  10.413  0.0556 -0.0178  0.0641
  132loPI    C2 2098   7.058   1.990  10.515 -0.0420 -0.0905  0.2043
  132loPI    C3 2099   6.702   1.929  10.687 -0.1855 -0.1475 -0.1061
  132loPI   PO4 2100   6.694   2.187  10.110 -0.2408  0.0800 -0.3704
  132loPI   GL1 2101   6.733   2.261   9.682 -0.0811  0.0364 -0.0191
  132loPI   GL2 2102   6.636   2.549   9.729 -0.1140  0.3792  0.1464
  132loPI   C1A 2103   6.928   2.003   9.313  0.2713 -0.0440  0.2255
  132loPI   C2A 2104   6.914   1.654   8.981 -0.0631 -0.0515 -0.2786
  132loPI   C3A 2105   7.081   1.471   8.622  0.5365 -0.2231 -0.2934
  132loPI   C4A 2106   7.362   1.417   8.372  0.1800 -0.1810  0.1418
  132loPI   C5A 2107   7.455   1.591   8.073  0.1241 -0.0402 -0.1379
  132loPI   C6A 2108   7.589   1.952   7.802 -0.1287 -0.3112  0.1600
  132loPI   C1B 2109   6.868   2.514   9.307 -0.0152 -0.0966  0.3143
  132loPI   C2B 2110   6.990   2.433   8.847  0.0738 -0.1173 -0.0664
  132loPI   C3B 2111   6.895   2.424   8.333 -0.0716  0.2324  0.0390
  132loPI   C4B 2112   6.547   2.577   8.077  0.2028 -0.1192 -0.1059
  133loPI    C1 2113  13.636   4.155  10.224  0.0958  0.1006 -0.2616
  133loPI    C2 2114  13.879   3.886  10.395 -0.1731 -0.0592 -0.1233
  133loPI    C3 2115  13.935   4.277  10.460 -0.0516 -0.1026  0.0374
  133loPI   PO4 2116  13.684   4.155  10.008 -0.0180 -0.1100 -0.0001
  133loPI   GL1 2117  13.908   3.969   9.762 -0.1565  0.1404 -0.2769
  133loPI   GL2 2118  14.018   3.678   9.648  0.2447  0.1272 -0.0912
  133loPI   C1A 2119  13.892   4.130   9.325  0.0104  0.0690  0.0031
  133loPI   C2A 2120  13.824   4.047   8.992 -0.0371  0.0515 -0.1072
  133loPI   C3A 2121  13.607   3.927   8.612 -0.0679 -0.1864  0.2922
  133loPI   C4A 2122  13.587   4.129   8.115 -0.1828  0.2103  0.2386
  133loPI   C5A 2123  13.226   4.306   7.864 -0.3861  0.2619  0.0587
  133loPI   C6A 2124  12.854   4.102   7.871  0.0334  0.2107 -0.0318
  133loPI   C1B 2125  14.072   3.654   9.246 -0.1930 -0.0056 -0.1528
  133loPI   C2B 2126  14.091   3.590   8.805  0.0142  0.1437  0.0325
  133loPI   C3B 2127  13.937   3.403   8.538 -0.1369 -0.1587  0.3225
  133loPI   C4B 2128  13.825   3.556   8.123  0.1703  0.2892 -0.0636
  134loPI    C1 2129  18.488   0.880  10.385 -0.2630  0.2254  0.0264
  134loPI    C2 2130  18.853   1.042  10.385 -0.1527 -0.0119 -0.2653
  134loPI    C3 2131  18.695   0.905  10.726 -0.0548  0.2726 -0.1016
  134loPI   PO4 2132  18.543   1.005  10.005  0.0813 -0.2426 -0.0179
  134loPI   GL1 2133  18.328   1.049   9.608  0.0898 -0.0347  0.0211
  134loPI   GL2 2134  18.507   1.278   9.549  0.0516 -0.1620 -0.0824
  134loPI   C1A 2135  18.267   0.675   9.471  0.4083  0.0858 -0.1471
  134loPI   C2A 2136  18.336   0.467   9.025  0.2523  0.0351 -0.0510
  134loPI   C3A 2137  18.308   0.520   8.623  0.1942 -0.0942  0.1764
  134loPI   C4A 2138  18.118   0.880   8.507 -0.0284  0.0175  0.1602
  134loPI   C5A 2139  18.300   1.202   8.292  0.1602  0.3027 -0.1878
  134loPI   C6A 2140  18.244   1.484   8.009  0.0287  0.1535 -0.1656
  134loPI   C1B 2141  18.571   0.948   9.179  0.1223  0.2269 -0.0017
  134loPI   C2B 2142  18.532   0.979   8.785 -0.0791 -0.0845 -0.0360
  134loPI   C3B 2143  18.667   0.788   8.419 -0.3359 -0.0070  0.1427
  134loPI   C4B 2144  18.389   0.468   8.106 -0.2227 -0.1092  0.3767
  135loPI    C1 2145  14.237   3.556  10.159 -0.0833  0.3974 -0.0441
  135loPI    C2 2146  14.611   3.412  10.150 -0.2179  0.0488 -0.3258
  135loPI    C3 2147  14.470   3.582  10.483  0.0943 -0.0796 -0.1239
  135loPI   PO4 2148  14.111   3.305   9.962 -0.1911 -0.1671 -0.1589
  135loPI   GL1 2149  14.015   3.186   9.533 -0.0879 -0.0920  0.2906
  135loPI   GL2 2150  13.672   3.196   9.662 -0.0871 -0.0583  0.2500
  135loPI   C1A 2151  14.146   3.113   9.033 -0.1842  0.2054 -0.1805
  135loPI   C2A 2152  14.214   3.039   8.694 -0.0839 -0.0112 -0.1483
  135loPI   C3A 2153  14.069   2.938   8.298  0.1715 -0.1763 -0.0504
  135loPI   C4A 2154  14.150   3.206   7.926  0.2218  0.1764 -0.0407
  135loPI   C5A 2155  14.238   3.426   7.591 -0.1826  0.0892 -0.1902
  135loPI   C6A 2156  14.023   3.700   7.313 -0.0540  0.1418  0.2571
  135loPI   C1B 2157  13.572   3.024   9.297  0.0299  0.0662 -0.1124
  135loPI   C2B 2158  13.591   2.712   9.017 -0.2954  0.2692 -0.2332
  135loPI   C3B 2159  13.619   2.577   8.590 -0.1530 -0.0769 -0.0464
  135loPI   C4B 2160  13.636   2.313   8.266 -0.2462  0.1732 -0.4331
  136loPI    C1 2161   7.332  15.931  10.105  0.0828 -0.0753 -0.1541
  136loPI    C2 2162   7.377  16.315  10.002 -0.0051  0.0177  0.1442
  136loPI    C3 2163   7.567  16.170  10.323 -0.1303 -0.1368  0.1503
  136loPI   PO4 2164   7.379  15.828   9.884  0.0965 -0.3408 -0.0006
  136loPI   GL1 2165   7.363  16.069   9.546 -0.2826 -0.2199 -0.0523
  136loPI   GL2 2166   7.509  15.755   9.325  0.0057 -0.0149 -0.1414
  136loPI   C1A 2167   7.030  16.037   9.235 -0.0171  0.1507 -0.1672
  136loPI   C2A 2168   7.041  16.077   8.815 -0.0458  0.2240 -0.0012
  136loPI   C3A 2169   7.105  16.081   8.430  0.0244  0.1605 -0.2601
  136loPI   C4A 2170   7.090  15.969   7.960  0.1409  0.1473  0.2888
  136loPI   C5A 2171   6.741  15.780   7.841 -0.0013 -0.0080 -0.3024
  136loPI   C6A 2172   6.256  15.777   7.829 -0.1728  0.0847  0.1300
  136loPI   C1B 2173   7.528  16.002   9.020 -0.1477  0.1581 -0.2402
  136loPI   C2B 2174   7.617  16.023   8.592 -0.2956  0.1917 -0.0078
  136loPI   C3B 2175   7.617  15.991   8.285  0.1401 -0.1156  0.0823
  136loPI   C4B 2176   7.552  15.733   8.043 -0.2560 -0.0910  0.4708
  137loPI    C1 2177  17.928  15.004   9.971 -0.2470 -0.1252  0.0090
  137loPI    C2 2178  17.954  14.725  10.256  0.0226 -0.0895  0.0220
  137loPI    C3 2179  18.014  14.626   9.873 -0.2817 -0.1259 -0.0186
  137loPI   PO4 2180  17.682  15.226   9.998  0.1339  0.1151 -0.1290
  137loPI   GL1 2181  17.291  15.221   9.688  0.0979 -0.2112  0.3239
  137loPI   GL2 2182  17.431  14.970   9.575  0.1676  0.1144  0.3501
  137loPI   C1A 2183  17.092  15.091   9.246 -0.0222 -0.2254 -0.0713
  137loPI   C2A 2184  17.087  15.244   8.827  0.0921  0.1587  0.1097
  137loPI   C3A 2185  17.071  15.361   8.487  0.0936 -0.0947 -0.0514
  137loPI   C4A 2186  17.174  15.617   8.080  0.0324 -0.3719 -0.2993
  137loPI   C5A 2187  17.386  15.618   7.751 -0.3841  0.1961 -0.1397
  137loPI   C6A 2188  17.578  15.190   7.707  0.0046  0.2267 -0.1155
  137loPI   C1B 2189  17.488  14.781   9.225  0.1156 -0.1242 -0.1908
  137loPI   C2B 2190  17.434  14.909   8.940  0.0148 -0.1547 -0.1625
  137loPI   C3B 2191  17.558  14.908   8.525 -0.0608  0.1208 -0.0210
  137loPI   C4B 2192  17.530  15.202   8.244  0.1007 -0.0725  0.0155
  138loPI    C1 2193  15.657  11.587  10.378 -0.1544  0.1428  0.0360
  138loPI    C2 2194  15.437  11.791  10.642 -0.1626  0.0176  0.1267
  138loPI    C3 2195  15.768  11.602  10.762  0.0080  0.2227 -0.0132
  138loPI   PO4 2196  15.578  11.699  10.146 -0.3656  0.3390 -0.0357
  138loPI   GL1 2197  15.465  12.035   9.975 -0.1494 -0.1264 -0.0197
  138loPI   GL2 2198  15.271  12.052   9.829 -0.0693 -0.0163  0.1680
  138loPI   C1A 2199  15.789  12.032   9.650  0.0905 -0.0626 -0.1680
  138loPI   C2A 2200  15.932  12.164   9.323  0.1061  0.0893 -0.0131
  138loPI   C3A 2201  15.867  12.005   9.009  0.0656  0.0464  0.0078
  138loPI   C4A 2202  15.849  12.110   8.591 -0.0799  0.0250  0.0814
  138loPI   C5A 2203  15.709  12.074   8.091 -0.0161 -0.0409  0.0261
  138loPI   C6A 2204  15.179  12.190   7.961  0.0255 -0.0787 -0.1300
  138loPI   C1B 2205  15.381  12.107   9.359  0.0556  0.1834 -0.0466
  138loPI   C2B 2206  15.452  12.293   8.925  0.1085 -0.0870  0.0165
  138loPI   C3B 2207  15.468  12.758   8.682  0.1200 -0.0242 -0.0540
  138loPI   C4B 2208  15.463  13.036   8.386 -0.0147  0.1290  0.1083
  139loPI    C1 2209  15.871  14.785  10.673 -0.1755 -0.0427 -0.1720
  139loPI    C2 2210  16.094  14.852  10.347  0.1987 -0.1168  0.0633
  139loPI    C3 2211  16.070  15.130  10.633  0.0459 -0.1389  0.0729
  139loPI   PO4 2212  15.685  14.681  10.608  0.0057  0.3830  0.3846
  139loPI   GL1 2213  15.464  14.684  10.112  0.0287 -0.0040 -0.1183
  139loPI   GL2 2214  15.653  15.007   9.982 -0.2762 -0.3191  0.0709
  139loPI   C1A 2215  15.261  14.741   9.715  0.0685 -0.4005  0.0959
  139loPI   C2A 2216  15.117  14.534   9.424 -0.0823 -0.1121  0.0546
  139loPI   C3A 2217  15.007  14.671   9.194 -0.0931 -0.0352  0.0710
  139loPI   C4A 2218  14.971  14.758   8.799 -0.0292  0.0715 -0.0232
  139loPI   C5A 2219  14.891  14.893   8.375  0.0288  0.1270 -0.2231
  139loPI   C6A 2220  14.602  14.861   7.968 -0.0922  0.2523  0.0966
  139loPI   C1B 2221  15.626  15.045   9.594  0.0581  0.0611 -0.1208
  139loPI   C2B 2222  15.495  15.128   9.286 -0.0939 -0.1266 -0.4050
  139loPI   C3B 2223  15.559  15.311   8.929 -0.1336 -0.1086  0.1653
  139loPI   C4B 2224  15.705  15.334   8.516  0.1122 -0.2561  0.0304
  140loPI    C1 2225   4.288   9.124   9.726 -0.1722 -0.0353  0.1625
  140loPI    C2 2226   4.150   9.430   9.943 -0.1079  0.1607 -0.0685
  140loPI    C3 2227   4.390   9.158  10.111 -0.2518  0.1758  0.1662
  140loPI   PO4 2228   4.358   9.170   9.529  0.2298  0.1397 -0.1660
  140loPI   GL1 2229   4.226   9.163   9.119  0.0739 -0.1369 -0.3255
  140loPI   GL2 2230   4.327   8.854   9.158 -0.1225  0.0173  0.4491
  140loPI   C1A 2231   4.422   9.338   8.694  0.1201  0.1040  0.0235
  140loPI   C2A 2232   4.311   9.449   8.307  0.0845 -0.3599  0.0984
  140loPI   C3A 2233   4.447   9.524   7.883  0.1492 -0.1731 -0.3906
  140loPI   C4A 2234   4.645   9.908   7.722 -0.3002  0.1828  0.0676
  140loPI   C5A 2235   4.845  10.228   7.419 -0.1645  0.1822 -0.2306
  140loPI   C6A 2236   4.632  10.392   7.045  0.2582  0.1367  0.0029
  140loPI   C1B 2237   4.423   8.809   8.692  0.0983 -0.0036 -0.0356
  140loPI   C2B 2238   4.430   8.727   8.269 -0.0211  0.0260 -0.1090
  140loPI   C3B 2239   4.365   8.484   7.915 -0.0000 -0.1205 -0.1918
  140loPI   C4B 2240   4.333   8.337   7.530 -0.2203  0.1900 -0.1931
  141loPI    C1 2241  17.007   3.233   9.913 -0.2347 -0.0965  0.0410
  141loPI    C2 2242  16.934   3.396  10.272 -0.0300 -0.0210  0.0495
  141loPI    C3 2243  17.284   3.216  10.201 -0.1412 -0.1996 -0.0545
  141loPI   PO4 2244  16.979   3.363   9.715 -0.1361  0.1343 -0.2150
  141loPI   GL1 2245  17.073   3.348   9.413  0.0382 -0.2029  0.0430
  141loPI   GL2 2246  17.313   3.146   9.412  0.1533  0.0642  0.0695
  141loPI   C1A 2247  16.712   3.393   9.140 -0.0643 -0.0459  0.0062
  141loPI   C2A 2248  16.485   3.258   8.862  0.0727 -0.4224 -0.0897
  141loPI   C3A 2249  16.282   3.260   8.476 -0.1183 -0.0088 -0.2495
  141loPI   C4A 2250  16.365   3.421   7.997 -0.2061 -0.3458  0.3073
  141loPI   C5A 2251  16.308   3.749   7.792  0.1033  0.1804  0.1272
  141loPI   C6A 2252  16.596   3.956   7.620  0.2712 -0.1736  0.0945
  141loPI   C1B 2253  17.338   3.221   8.970 -0.0360 -0.4232 -0.1763
  141loPI   C2B 2254  17.376   3.201   8.470  0.3555 -0.0376  0.1452
  141loPI   C3B 2255  17.226   3.015   8.106  0.1687  0.1195 -0.0155
  141loPI   C4B 2256  17.451   2.895   7.758  0.2112 -0.0612  0.2643
  142loPI    C1 2257  10.814  15.701  10.691 -0.0038 -0.2038  0.1467
  142loPI    C2 2258  10.674  15.441  10.422 -0.1859  0.0842 -0.0433
  142loPI    C3 2259  10.420  15.674  10.625 -0.0455 -0.0893  0.3409
  142loPI   PO4 2260  11.042  15.793  10.455  0.3554 -0.0000 -0.0282
  142loPI   GL1 2261  11.209  15.880  10.115 -0.0958 -0.1721  0.0252
  142loPI   GL2 2262  11.082  15.521   9.947  0.0321 -0.0988 -0.0017
  142loPI   C1A 2263  11.159  16.039   9.680  0.1282 -0.1676  0.0369
  142loPI   C2A 2264  10.955  16.088   9.381  0.1771  0.1534  0.2776
  142loPI   C3A 2265  11.038  15.951   8.968 -0.0788  0.0179  0.4935
  142loPI   C4A 2266  11.047  16.130   8.576  0.1099 -0.0227 -0.0102
  142loPI   C5A 2267  10.901  16.208   8.085 -0.0487  0.0918 -0.1503
  142loPI   C6A 2268  10.739  16.371   7.714 -0.2391  0.0051 -0.1002
  142loPI   C1B 2269  10.764  15.685   9.602 -0.3879  0.0339 -0.3612
  142loPI   C2B 2270  10.578  15.745   9.206 -0.0712 -0.0685  0.0496
  142loPI   C3B 2271  10.603  15.655   8.842 -0.0980 -0.0320 -0.0510
  142loPI   C4B 2272  10.761  15.405   8.370 -0.0068  0.1007 -0.5119
  143loPI    C1 2273  13.098  13.167  10.450  0.1928 -0.2566 -0.1078
  143loPI    C2 2274  13.487  13.105  10.518  0.1753 -0.2113  0.0390
  143loPI    C3 2275  13.214  12.936  10.756  0.1192  0.1669  0.2511
  143loPI   PO4 2276  13.083  13.216  10.191  0.2932  0.2227  0.4592
  143loPI   GL1 2277  13.335  13.059   9.867 -0.2599 -0.1406 -0.1705
  143loPI   GL2 2278  13.526  12.848   9.998 -0.0870  0.0599 -0.2644
  143loPI   C1A 2279  13.264  13.108   9.444 -0.1024 -0.1705  0.1103
  143loPI   C2A 2280  13.265  13.197   8.929 -0.0199 -0.0409 -0.0725
  143loPI   C3A 2281  13.264  13.282   8.593 -0.2823 -0.0085 -0.3086
  143loPI   C4A 2282  13.198  13.395   8.154 -0.0980  0.0621  0.1144
  143loPI   C5A 2283  13.359  13.366   7.703  0.1572 -0.0082 -0.0515
  143loPI   C6A 2284  13.852  13.357   7.571 -0.4373 -0.1294 -0.1701
  143loPI   C1B 2285  13.708  12.824   9.480  0.2453  0.0713 -0.2148
  143loPI   C2B 2286  13.641  12.711   9.109  0.0297  0.0616 -0.2824
  143loPI   C3B 2287  13.649  12.715   8.731 -0.0844 -0.0623  0.1436
  143loPI   C4B 2288  13.508  12.861   8.392 -0.0769  0.0956  0.0024
  144loPI    C1 2289   8.839  12.150  10.644 -0.2235  0.1011  0.1201
  144loPI    C2 2290   9.147  12.329  10.825 -0.1531  0.0202  0.0810
  144loPI    C3 2291   8.774  12.450  10.900 -0.0886  0.4343 -0.2259
  144loPI   PO4 2292   8.877  12.132  10.327  0.1235  0.0991 -0.0026
  144loPI   GL1 2293   8.776  12.025   9.906 -0.0539 -0.1129 -0.0568
  144loPI   GL2 2294   8.707  12.181   9.612  0.0489  0.1354  0.1392
  144loPI   C1A 2295   8.692  11.669   9.596  0.0297  0.1779  0.2153
  144loPI   C2A 2296   8.790  11.194   9.489  0.1261 -0.2605  0.0569
  144loPI   C3A 2297   9.065  11.055   9.160 -0.2213 -0.1532  0.2145
  144loPI   C4A 2298   9.176  11.004   8.726 -0.1908 -0.2535 -0.2350
  144loPI   C5A 2299   9.250  10.813   8.256  0.3202 -0.0382  0.2495
  144loPI   C6A 2300   9.295  10.520   7.823  0.2927 -0.1161  0.1019
  144loPI   C1B 2301   8.821  12.058   9.214  0.0660 -0.2826  0.1723
  144loPI   C2B 2302   8.831  12.127   8.779  0.1848 -0.1248 -0.3511
  144loPI   C3B 2303   9.053  12.210   8.378  0.0492 -0.3104 -0.2663
  144loPI   C4B 2304   9.087  12.314   7.919  0.4392  0.0167 -0.0496
  145loPI    C1 2305   4.536  17.896  10.850  0.0425  0.3582 -0.1263
  145loPI    C2 2306   4.390  18.128  11.141 -0.0579  0.1793 -0.0323
  145loPI    C3 2307   4.660  17.846  11.227 -0.3568 -0.1177 -0.0471
  145loPI   PO4 2308   4.679  18.081  10.588  0.1174 -0.0210 -0.5364
  145loPI   GL1 2309   4.526  18.200  10.119  0.2502  0.4188 -0.2070
  145loPI   GL2 2310   4.686  18.021  10.090 -0.1271  0.4111  0.0205
  145loPI   C1A 2311   4.667  18.357   9.718  0.1713  0.0908 -0.2605
  145loPI   C2A 2312   4.811  18.433   9.334 -0.0141  0.2229  0.1009
  145loPI   C3A 2313   4.909  18.294   8.925 -0.2224 -0.1649  0.0585
  145loPI   C4A 2314   4.843  18.266   8.551  0.3027  0.2398  0.0763
  145loPI   C5A 2315   5.110  18.341   8.182 -0.3293  0.1842  0.1060
  145loPI   C6A 2316   5.272  18.438   7.792 -0.1996 -0.0266 -0.0550
  145loPI   C1B 2317   4.753  17.876   9.677  0.1122  0.0739 -0.0372
  145loPI   C2B 2318   4.761  17.779   9.295 -0.2095 -0.2305  0.4278
  145loPI   C3B 2319   4.786  17.787   8.870  0.0073 -0.0860 -0.1073
  145loPI   C4B 2320   4.537  17.861   8.636  0.1268 -0.2298  0.1683
  146loPI    C1 2321  15.872   4.667   9.755 -0.3847  0.0139 -0.1466
  146loPI    C2 2322  15.770   4.334   9.557 -0.3801 -0.0445 -0.0514
  146loPI    C3 2323  15.762   4.339   9.957  0.1635 -0.1087 -0.0328
  146loPI   PO4 2324  15.838   4.816   9.480  0.0812 -0.0399 -0.0579
  146loPI   GL1 2325  16.017   5.103   9.301  0.1301 -0.0904  0.2708
  146loPI   GL2 2326  16.138   5.493   9.407  0.0127  0.1184  0.2643
  146loPI   C1A 2327  15.909   4.934   8.806  0.0522  0.0511  0.2605
  146loPI   C2A 2328  15.838   5.120   8.497 -0.2478  0.0248 -0.0756
  146loPI   C3A 2329  16.165   5.114   8.089 -0.3842  0.1525 -0.2326
  146loPI   C4A 2330  16.113   5.283   7.726 -0.3132 -0.2604 -0.2366
  146loPI   C5A 2331  15.845   5.130   7.422  0.1924  0.1128  0.0322
  146loPI   C6A 2332  15.592   4.794   7.309  0.0176 -0.0869 -0.3137
  146loPI   C1B 2333  16.085   5.409   8.937 -0.0704  0.4122  0.0185
  146loPI   C2B 2334  16.058   5.590   8.504 -0.0030 -0.1926  0.1526
  146loPI   C3B 2335  16.080   5.663   8.044 -0.0126  0.2115  0.1902
  146loPI   C4B 2336  16.250   5.761   7.714 -0.0505 -0.1250  0.3871
  147loPI    C1 2337  11.801  10.495  10.359 -0.2393 -0.1954  0.0683
  147loPI    C2 2338  11.872  10.261  10.676 -0.3179 -0.0176  0.2196
  147loPI    C3 2339  12.173  10.458  10.501 -0.2038 -0.4445 -0.0832
  147loPI   PO4 2340  11.705  10.348  10.182  0.2174  0.2516 -0.0937
  147loPI   GL1 2341  11.730  10.278   9.725 -0.1106  0.4125  0.0396
  147loPI   GL2 2342  12.049  10.125   9.801 -0.3338  0.4890  0.0919
  147loPI   C1A 2343  11.816  10.319   9.170  0.2240  0.1141 -0.1926
  147loPI   C2A 2344  12.032  10.486   8.821  0.0688  0.0112 -0.1071
  147loPI   C3A 2345  12.139  10.568   8.429 -0.0172  0.5377 -0.1226
  147loPI   C4A 2346  12.530  10.651   8.257  0.1000 -0.3498 -0.2911
  147loPI   C5A 2347  12.733  10.790   7.884 -0.0388 -0.4266 -0.0341
  147loPI   C6A 2348  12.709  11.114   7.466  0.1065  0.0396  0.0566
  147loPI   C1B 2349  12.058   9.834   9.379 -0.1680  0.0437  0.1367
  147loPI   C2B 2350  12.051   9.895   8.980  0.2155  0.0385 -0.1377
  147loPI   C3B 2351  11.975   9.900   8.532  0.0185 -0.4809  0.0105
  147loPI   C4B 2352  11.880   9.718   8.148 -0.3448 -0.3252 -0.1732
  148loPI    C1 2353  10.383  11.896  10.302  0.1211 -0.0495  0.1570
  148loPI    C2 2354  10.236  12.255  10.204 -0.0324 -0.0958  0.2153
  148loPI    C3 2355  10.334  12.175  10.583 -0.1691 -0.1753  0.2347
  148loPI   PO4 2356  10.391  11.796  10.107 -0.0305  0.0312  0.0618
  148loPI   GL1 2357  10.229  11.600   9.829 -0.1288  0.2300 -0.0121
  148loPI   GL2 2358   9.926  11.434   9.900  0.0892 -0.1448 -0.0056
  148loPI   C1A 2359  10.472  11.625   9.398 -0.1414  0.0515  0.0624
  148loPI   C2A 2360  10.540  11.657   8.979  0.0012 -0.0482  0.2370
  148loPI   C3A 2361  10.423  11.563   8.603 -0.3329 -0.0077 -0.0148
  148loPI   C4A 2362  10.050  11.401   8.478  0.1524  0.0470 -0.2510
  148loPI   C5A 2363   9.879  11.359   8.037 -0.2319 -0.3077 -0.1894
  148loPI   C6A 2364   9.707  10.936   7.845  0.0207  0.3299  0.1974
  148loPI   C1B 2365  10.030  11.211   9.504 -0.0558 -0.2964 -0.0069
  148loPI   C2B 2366  10.143  11.344   9.024  0.1414 -0.0220 -0.2165
  148loPI   C3B 2367  10.176  11.038   8.772  0.1251 -0.2503 -0.2780
  148loPI   C4B 2368  10.110  10.944   8.315 -0.3600 -0.3008  0.0848
  149loPI    C1 2369   5.820   7.114  10.081  0.4079  0.1498  0.0057
  149loPI    C2 2370   5.683   7.293  10.411 -0.0369  0.0592 -0.1228
  149loPI    C3 2371   5.847   7.511  10.119  0.0380  0.1786  0.0070
  149loPI   PO4 2372   5.970   6.831  10.071  0.3906 -0.2092 -0.1260
  149loPI   GL1 2373   6.129   6.703   9.662 -0.3587  0.1413 -0.1188
  149loPI   GL2 2374   5.974   7.123   9.623  0.6074  0.0879  0.2229
  149loPI   C1A 2375   6.220   6.488   9.381  0.1073  0.3470 -0.0830
  149loPI   C2A 2376   6.148   6.390   8.969  0.1377 -0.0787 -0.2745
  149loPI   C3A 2377   6.170   6.405   8.495 -0.0631 -0.2238  0.2697
  149loPI   C4A 2378   6.434   6.345   8.188  0.0965 -0.1813  0.2030
  149loPI   C5A 2379   6.720   6.269   7.875 -0.2563  0.0496 -0.0895
  149loPI   C6A 2380   6.791   6.361   7.482  0.0965 -0.1642 -0.2260
  149loPI   C1B 2381   5.733   7.078   9.297 -0.0551  0.0404 -0.2337
  149loPI   C2B 2382   5.468   7.049   8.960  0.0793  0.0220  0.0529
  149loPI   C3B 2383   5.421   7.033   8.472 -0.0557  0.0233 -0.1725
  149loPI   C4B 2384   5.582   7.072   7.984  0.0499 -0.1121  0.0582
  150loPI    C1 2385  13.147  16.427  10.890  0.2094 -0.1643 -0.1190
  150loPI    C2 2386  13.152  16.131  11.160 -0.0528 -0.0410  0.0243
  150loPI    C3 2387  12.984  16.072  10.802 -0.0104 -0.0979  0.0136
  150loPI   PO4 2388  13.408  16.537  10.782  0.1295 -0.1790 -0.1651
  150loPI   GL1 2389  13.518  16.540  10.345 -0.0659 -0.0686 -0.0843
  150loPI   GL2 2390  13.286  16.328  10.358 -0.1579  0.4202 -0.1028
  150loPI   C1A 2391  13.635  16.482   9.895 -0.1649  0.0392 -0.3863
  150loPI   C2A 2392  13.756  16.584   9.490  0.0587  0.1381  0.0265
  150loPI   C3A 2393  13.832  16.556   8.993  0.1212  0.0571  0.1342
  150loPI   C4A 2394  13.920  16.337   8.561 -0.2357  0.0963  0.0178
  150loPI   C5A 2395  13.746  16.218   8.204  0.1520 -0.2412 -0.0037
  150loPI   C6A 2396  13.365  16.320   7.983 -0.2371 -0.0854  0.2660
  150loPI   C1B 2397  13.208  16.181   9.989 -0.0905 -0.0084  0.0560
  150loPI   C2B 2398  13.357  16.021   9.492  0.0427  0.1023 -0.2549
  150loPI   C3B 2399  13.290  15.951   9.050 -0.0644 -0.1736  0.2912
  150loPI   C4B 2400  13.277  15.806   8.581  0.1386 -0.0541 -0.2086
  151loPI    C1 2401   0.636   8.818   9.866  0.0590  0.0223  0.1862
  151loPI    C2 2402   0.244   8.797   9.942  0.0751 -0.2709  0.1999
  151loPI    C3 2403   0.496   8.925  10.225 -0.0208  0.0300  0.1529
  151loPI   PO4 2404   0.680   8.916   9.518  0.2634 -0.5807  0.1384
  151loPI   GL1 2405   0.489   8.788   9.105  0.0335  0.0589 -0.0667
  151loPI   GL2 2406   0.686   8.933   8.971 -0.1261 -0.0476  0.0600
  151loPI   C1A 2407   0.681   8.500   8.734 -0.3443 -0.0842  0.0481
  151loPI   C2A 2408   0.761   8.564   8.354  0.0254  0.2516  0.2007
  151loPI   C3A 2409   0.749   8.580   7.893 -0.2714 -0.0925  0.1031
  151loPI   C4A 2410   0.810   8.473   7.584 -0.1161  0.1037  0.1505
  151loPI   C5A 2411   1.187   8.463   7.256 -0.0868 -0.3098 -0.2808
  151loPI   C6A 2412   1.527   8.762   7.258  0.1742 -0.1463  0.1069
  151loPI   C1B 2413   0.472   8.953   8.630 -0.1120 -0.0102  0.1450
  151loPI   C2B 2414   0.484   8.920   8.122  0.0107  0.1353 -0.2256
  151loPI   C3B 2415   0.319   8.814   7.703 -0.0586 -0.2236  0.1884
  151loPI   C4B 2416   0.329   8.337   7.561 -0.2237 -0.1155 -0.0301
  152loPI    C1 2417  16.131  15.529   9.865  0.1926  0.2491  0.0229
  152loPI    C2 2418  15.974  15.335  10.177  0.3099 -0.0767 -0.1161
  152loPI    C3 2419  15.879  15.718  10.111 -0.2049 -0.1841 -0.0387
  152loPI   PO4 2420  16.344  15.354   9.910 -0.2202 -0.0425  0.0193
  152loPI   GL1 2421  16.333  14.876   9.784 -0.0578 -0.1165 -0.1220
  152loPI   GL2 2422  16.118  15.062   9.634  0.1369  0.0560  0.1730
  152loPI   C1A 2423  16.242  14.694   9.298  0.0705 -0.0956 -0.1676
  152loPI   C2A 2424  16.167  14.758   8.909  0.1468 -0.1047  0.1591
  152loPI   C3A 2425  16.115  14.618   8.518  0.1317 -0.1179 -0.0147
  152loPI   C4A 2426  15.823  14.652   8.219  0.4919  0.0977  0.1880
  152loPI   C5A 2427  15.548  14.516   7.858 -0.2623  0.0001  0.0135
  152loPI   C6A 2428  15.177  14.779   7.601  0.2957 -0.0688  0.1984
  152loPI   C1B 2429  16.005  15.115   9.219  0.2911  0.2643  0.0459
  152loPI   C2B 2430  16.120  15.193   8.743 -0.0623  0.1040  0.1928
  152loPI   C3B 2431  16.033  15.088   8.170 -0.1091  0.1397  0.0120
  152loPI   C4B 2432  15.670  15.106   8.057  0.1762  0.0625 -0.1109
  153loPI    C1 2433   1.332  13.594  10.226  0.0441  0.0639 -0.1516
  153loPI    C2 2434   1.457  13.411  10.559 -0.3083  0.0393 -0.0289
  153loPI    C3 2435   1.476  13.809  10.531 -0.1997  0.0354 -0.0135
  153loPI   PO4 2436   1.520  13.460  10.016  0.0034  0.2145  0.1558
  153loPI   GL1 2437   1.539  13.431   9.605  0.0326  0.0810 -0.3157
  153loPI   GL2 2438   1.679  13.169   9.505  0.3092  0.1491 -0.1304
  153loPI   C1A 2439   1.486  13.612   9.143 -0.1764 -0.0524 -0.2094
  153loPI   C2A 2440   1.601  13.795   8.781 -0.2165  0.1217  0.1501
  153loPI   C3A 2441   1.581  14.018   8.460 -0.0077 -0.2752 -0.2354
  153loPI   C4A 2442   1.854  14.031   8.101 -0.2084 -0.5460  0.1841
  153loPI   C5A 2443   2.022  13.933   7.675 -0.0992  0.3851 -0.1084
  153loPI   C6A 2444   2.224  14.184   7.332  0.1663  0.0527  0.0100
  153loPI   C1B 2445   1.621  13.184   9.035 -0.0807  0.2796  0.0938
  153loPI   C2B 2446   1.558  13.297   8.664  0.0181  0.0294 -0.0163
  153loPI   C3B 2447   1.693  13.484   8.336  0.1175  0.2252  0.3590
  153loPI   C4B 2448   1.717  13.567   7.941  0.2615 -0.1838 -0.1726
  154loPI    C1 2449   8.220   9.998  10.252 -0.1406  0.0700 -0.2030
  154loPI    C2 2450   8.517   9.740  10.323 -0.2295 -0.0111 -0.1229
  154loPI    C3 2451   8.464  10.054  10.565 -0.1947  0.0164 -0.1508
  154loPI   PO4 2452   8.191   9.995   9.992  0.1303  0.2316 -0.3326
  154loPI   GL1 2453   8.261  10.288   9.653 -0.0044 -0.2090  0.0611
  154loPI   GL2 2454   8.375  10.017   9.435 -0.2967  0.1161  0.0783
  154loPI   C1A 2455   8.328  10.722   9.547  0.2022  0.0303  0.1235
  154loPI   C2A 2456   8.475  10.935   9.202 -0.3173 -0.2987 -0.2062
  154loPI   C3A 2457   8.697  11.101   8.821 -0.0837  0.0018  0.1363
  154loPI   C4A 2458   8.755  10.880   8.481  0.0547 -0.0262  0.4009
  154loPI   C5A 2459   8.440  10.970   8.169 -0.4337 -0.2588  0.0876
  154loPI   C6A 2460   8.094  11.142   7.915  0.0941  0.1872  0.0689
  154loPI   C1B 2461   8.487  10.013   8.964 -0.1304 -0.0194 -0.0221
  154loPI   C2B 2462   8.606  10.306   8.570 -0.0642 -0.0936  0.0796
  154loPI   C3B 2463   8.862  10.428   8.220  0.3384 -0.2306  0.1172
  154loPI   C4B 2464   8.747  10.677   7.855 -0.2875 -0.1687 -0.1856
  155loPI    C1 2465   3.440  10.323   9.825  0.0033 -0.0700 -0.2627
  155loPI    C2 2466   3.121  10.532   9.946  0.1042 -0.0678  0.0066
  155loPI    C3 2467   3.329  10.315  10.209  0.3024 -0.1013 -0.1748
  155loPI   PO4 2468   3.588  10.574   9.684  0.1214  0.1810 -0.0170
  155loPI   GL1 2469   3.790  10.660   9.350 -0.1915 -0.0106 -0.4108
  155loPI   GL2 2470   4.007  10.875   9.301 -0.0157  0.2580  0.2819
  155loPI   C1A 2471   3.776  10.672   8.942 -0.0557 -0.2044 -0.0483
  155loPI   C2A 2472   3.890  10.840   8.557 -0.1407  0.0878 -0.1208
  155loPI   C3A 2473   4.045  10.837   8.080 -0.0263 -0.0845  0.1021
  155loPI   C4A 2474   4.114  10.882   7.621 -0.0674  0.0307 -0.1620
  155loPI   C5A 2475   3.911  11.285   7.505  0.0929  0.2374  0.0784
  155loPI   C6A 2476   3.723  11.640   7.541  0.2187 -0.1028 -0.0347
  155loPI   C1B 2477   4.076  11.128   8.960 -0.2428  0.1137  0.0686
  155loPI   C2B 2478   4.077  11.325   8.590  0.1277 -0.0060 -0.1837
  155loPI   C3B 2479   3.985  11.611   8.380  0.1574  0.2929  0.1025
  155loPI   C4B 2480   4.097  11.871   8.009  0.0056  0.2076 -0.0355
  156loPI    C1 2481   6.416   6.739  10.318 -0.0837 -0.0632 -0.0762
  156loPI    C2 2482   6.582   6.478  10.571  0.2739 -0.0416 -0.2821
  156loPI    C3 2483   6.190   6.553  10.591  0.2843 -0.0824  0.2243
  156loPI   PO4 2484   6.492   6.629  10.044  0.0899 -0.2603  0.1005
  156loPI   GL1 2485   6.634   6.304   9.750  0.3991  0.0965 -0.1135
  156loPI   GL2 2486   6.892   6.484   9.751 -0.0593 -0.1315 -0.0154
  156loPI   C1A 2487   6.707   6.295   9.299 -0.3631  0.0728 -0.1898
  156loPI   C2A 2488   6.605   6.429   8.825  0.0315  0.0610 -0.1331
  156loPI   C3A 2489   6.428   6.815   8.599  0.4047  0.2198  0.2381
  156loPI   C4A 2490   6.581   6.837   8.149  0.2377 -0.1150  0.1934
  156loPI   C5A 2491   6.854   6.712   7.826  0.0699  0.0459  0.0245
  156loPI   C6A 2492   7.231   6.720   7.571  0.1590  0.2892  0.0696
  156loPI   C1B 2493   7.241   6.273   9.446  0.0550 -0.1847 -0.0246
  156loPI   C2B 2494   7.193   6.155   9.113 -0.2113 -0.1142 -0.1321
  156loPI   C3B 2495   7.080   6.122   8.726  0.0491  0.0249 -0.0338
  156loPI   C4B 2496   6.844   6.171   8.341  0.1335 -0.3177  0.2560
  157loPI    C1 2497  10.466   6.209  10.705 -0.1835 -0.0191 -0.0273
  157loPI    C2 2498  10.603   6.452  10.993  0.0316 -0.0061 -0.1390
  157loPI    C3 2499  10.536   6.065  11.072 -0.0067  0.0195 -0.0452
  157loPI   PO4 2500  10.436   6.435  10.474 -0.1448 -0.0187 -0.0206
  157loPI   GL1 2501  10.315   6.434  10.069 -0.4156  0.0736 -0.3096
  157loPI   GL2 2502  10.693   6.413   9.978 -0.3883  0.0920 -0.0662
  157loPI   C1A 2503  10.187   6.471   9.676  0.1272 -0.1593  0.4067
  157loPI   C2A 2504  10.238   6.533   9.291 -0.2693  0.4254  0.2420
  157loPI   C3A 2505  10.280   6.512   8.933  0.0858  0.2273 -0.1037
  157loPI   C4A 2506  10.115   6.481   8.609 -0.1807 -0.1639 -0.0264
  157loPI   C5A 2507   9.844   6.285   8.274 -0.0684  0.2693 -0.1556
  157loPI   C6A 2508   9.631   5.860   8.072  0.2274  0.0187  0.0859
  157loPI   C1B 2509  10.682   6.450   9.548  0.4348 -0.0834  0.0035
  157loPI   C2B 2510  10.737   6.533   9.111 -0.1628 -0.2558 -0.1013
  157loPI   C3B 2511  10.717   6.648   8.670  0.0357 -0.1589  0.1623
  157loPI   C4B 2512  10.524   6.655   8.310  0.0651 -0.3175 -0.1688
  158loPI    C1 2513  11.430  11.636  10.823  0.1018  0.0717  0.0477
  158loPI    C2 2514  11.685  11.432  10.592  0.1458 -0.0904  0.2361
  158loPI    C3 2515  11.823  11.650  10.898  0.0889  0.1317  0.1060
  158loPI   PO4 2516  11.220  11.585  10.643 -0.0661  0.0817  0.1018
  158loPI   GL1 2517  11.412  11.610  10.190 -0.0376 -0.0801 -0.0599
  158loPI   GL2 2518  11.297  11.921  10.128 -0.0062  0.2096  0.0276
  158loPI   C1A 2519  11.492  11.337   9.709 -0.3099  0.2643 -0.0054
  158loPI   C2A 2520  11.585  11.137   9.283 -0.1079 -0.2336  0.7496
  158loPI   C3A 2521  11.298  10.983   8.860 -0.0553 -0.4205  0.0841
  158loPI   C4A 2522  11.263  11.106   8.465  0.1472  0.0499 -0.0442
  158loPI   C5A 2523  11.426  11.303   8.146 -0.1443 -0.1512  0.1841
  158loPI   C6A 2524  11.320  11.762   7.945 -0.0487 -0.3251  0.0031
  158loPI   C1B 2525  11.444  12.230   9.762  0.2297  0.0671 -0.1525
  158loPI   C2B 2526  11.363  11.962   9.410 -0.2269 -0.0071  0.0909
  158loPI   C3B 2527  11.433  11.566   9.261 -0.0972 -0.0098 -0.2209
  158loPI   C4B 2528  11.445  11.438   8.855 -0.1298  0.0393  0.2313
  159loPI    C1 2529   6.786   9.557   9.947  0.1113  0.1199  0.1491
  159loPI    C2 2530   6.524   9.403  10.208 -0.0781  0.0351 -0.0876
  159loPI    C3 2531   6.910   9.299  10.227 -0.1589 -0.2760 -0.0849
  159loPI   PO4 2532   6.708   9.854   9.935  0.3212 -0.1877 -0.1242
  159loPI   GL1 2533   6.813  10.142   9.651  0.2258 -0.1229 -0.0688
  159loPI   GL2 2534   7.113  10.382   9.607 -0.0131  0.1741 -0.0580
  159loPI   C1A 2535   6.976   9.996   9.190  0.2039 -0.5291 -0.0665
  159loPI   C2A 2536   7.003   9.964   8.763 -0.0998  0.2209 -0.1085
  159loPI   C3A 2537   7.346  10.037   8.552  0.1634  0.0189 -0.0759
  159loPI   C4A 2538   7.600  10.361   8.364  0.0105  0.1933 -0.1792
  159loPI   C5A 2539   7.858  10.226   8.033  0.0853  0.0452 -0.0538
  159loPI   C6A 2540   8.085   9.873   7.888 -0.2596  0.1299  0.0589
  159loPI   C1B 2541   7.540  10.166   9.572  0.2401  0.1140  0.1300
  159loPI   C2B 2542   7.877  10.001   9.255 -0.1318 -0.0898 -0.2064
  159loPI   C3B 2543   7.787   9.808   8.815  0.2125  0.0768  0.1679
  159loPI   C4B 2544   7.784   9.881   8.386  0.3092  0.1109 -0.2518
  160loPI    C1 2545   3.340   8.654  10.097 -0.0330  0.0627 -0.1021
  160loPI    C2 2546   2.984   8.786  10.222 -0.0676 -0.1250  0.0016
  160loPI    C3 2547   3.284   9.044  10.166 -0.1489  0.0033  0.1499
  160loPI   PO4 2548   3.273   8.424   9.873 -0.0392 -0.0503  0.1251
  160loPI   GL1 2549   3.225   8.359   9.437 -0.0072 -0.0747 -0.1189
  160loPI   GL2 2550   3.022   8.552   9.282 -0.2612 -0.2817 -0.4087
  160loPI   C1A 2551   3.140   8.223   8.975 -0.0387 -0.1542 -0.0342
  160loPI   C2A 2552   3.092   7.846   8.589  0.1856 -0.1306  0.1617
  160loPI   C3A 2553   2.924   7.632   8.383  0.0606  0.3578 -0.1085
  160loPI   C4A 2554   2.678   7.513   8.004  0.4449 -0.1758 -0.2875
  160loPI   C5A 2555   2.542   7.121   7.716  0.0102  0.0328 -0.1579
  160loPI   C6A 2556   2.822   6.813   7.442 -0.2055 -0.3086  0.3151
  160loPI   C1B 2557   2.776   8.553   8.894  0.0157 -0.3679 -0.0024
  160loPI   C2B 2558   3.065   8.554   8.530  0.2125 -0.0678  0.3234
  160loPI   C3B 2559   3.072   8.253   8.248  0.0895  0.1659  0.0804
  160loPI   C4B 2560   3.194   7.854   8.071  0.0119 -0.0169  0.1828
  161loPI    C1 2561   2.225   4.755   9.764 -0.0933 -0.0908  0.1363
  161loPI    C2 2562   2.136   5.143   9.806  0.0671 -0.0151 -0.1866
  161loPI    C3 2563   2.469   4.995   9.970  0.0565  0.0048 -0.1470
  161loPI   PO4 2564   2.126   4.751   9.552 -0.1917 -0.3124  0.0085
  161loPI   GL1 2565   1.922   4.525   9.287  0.4804 -0.1922  0.0118
  161loPI   GL2 2566   1.892   4.227   9.138 -0.0834 -0.0488 -0.0759
  161loPI   C1A 2567   1.786   4.650   8.905 -0.2721 -0.1384  0.1619
  161loPI   C2A 2568   1.780   4.584   8.463 -0.1133  0.1773  0.1235
  161loPI   C3A 2569   1.727   4.793   8.127  0.0458 -0.0208 -0.1453
  161loPI   C4A 2570   1.521   5.008   7.815  0.1124  0.0339 -0.0958
  161loPI   C5A 2571   1.548   5.284   7.313 -0.0421  0.2232 -0.0947
  161loPI   C6A 2572   1.650   5.636   7.011 -0.1729  0.1040 -0.0992
  161loPI   C1B 2573   1.976   4.201   8.740 -0.1175 -0.0871 -0.0275
  161loPI   C2B 2574   2.059   4.235   8.296 -0.0168  0.2897 -0.1258
  161loPI   C3B 2575   1.849   4.229   7.959 -0.0157 -0.0850  0.1572
  161loPI   C4B 2576   1.800   4.608   7.705  0.2932 -0.2115  0.1475
  162loPI    C1 2577   6.408  10.341   9.949 -0.0664  0.0119 -0.0731
  162loPI    C2 2578   6.380  10.477  10.324 -0.0828 -0.1176 -0.0268
  162loPI    C3 2579   6.683  10.237  10.221 -0.2181 -0.2892 -0.0302
  162loPI   PO4 2580   6.316  10.628   9.848  0.0246 -0.2966  0.0329
  162loPI   GL1 2581   6.344  10.768   9.469 -0.2433 -0.0452 -0.0440
  162loPI   GL2 2582   6.598  10.587   9.445  0.3668  0.0753  0.0773
  162loPI   C1A 2583   6.262  10.713   8.968 -0.2953  0.2369  0.2292
  162loPI   C2A 2584   6.081  10.852   8.493 -0.0971 -0.1018 -0.0022
  162loPI   C3A 2585   6.061  11.121   8.119 -0.2125 -0.0363 -0.1250
  162loPI   C4A 2586   6.449  11.154   7.923  0.0599  0.0727 -0.0711
  162loPI   C5A 2587   6.603  11.036   7.540 -0.3198 -0.1286  0.1484
  162loPI   C6A 2588   6.897  11.221   7.279  0.3269 -0.1850 -0.2991
  162loPI   C1B 2589   6.831  10.464   8.946 -0.1388  0.0359 -0.2641
  162loPI   C2B 2590   7.214  10.437   8.818 -0.0280  0.1737  0.3767
  162loPI   C3B 2591   7.584  10.270   8.938 -0.3173  0.1749  0.0756
  162loPI   C4B 2592   8.031  10.278   8.701 -0.3750  0.0085 -0.5202
  163loPI    C1 2593  11.495  15.560  10.418  0.1120  0.1862  0.0643
  163loPI    C2 2594  11.503  15.308  10.729  0.3071 -0.0771 -0.1485
  163loPI    C3 2595  11.588  15.696  10.782 -0.2158 -0.0034  0.2226
  163loPI   PO4 2596  11.686  15.468  10.251  0.3484  0.2300 -0.1311
  163loPI   GL1 2597  11.635  15.596   9.857  0.0170 -0.3361  0.3100
  163loPI   GL2 2598  11.980  15.631   9.811  0.2427 -0.0645 -0.0638
  163loPI   C1A 2599  11.416  15.706   9.414 -0.0277  0.0813  0.0208
  163loPI   C2A 2600  11.585  15.592   8.962  0.2839  0.1668 -0.0787
  163loPI   C3A 2601  11.579  15.960   8.692  0.4047  0.3049  0.0287
  163loPI   C4A 2602  11.833  16.129   8.303  0.0024  0.2884 -0.2257
  163loPI   C5A 2603  11.586  16.465   8.059  0.2198  0.2403 -0.2753
  163loPI   C6A 2604  11.260  16.602   7.791  0.1699  0.1753  0.1119
  163loPI   C1B 2605  11.897  15.678   9.373  0.0933  0.1745 -0.2480
  163loPI   C2B 2606  11.960  16.038   9.017  0.1188  0.1628 -0.0834
  163loPI   C3B 2607  12.206  15.992   8.564 -0.2661 -0.0829 -0.0032
  163loPI   C4B 2608  12.484  16.082   8.287 -0.4011  0.1216 -0.1766
  164loPI    C1 2609   9.985   6.174  10.401  0.0452  0.1135  0.0209
  164loPI    C2 2610   9.961   6.359  10.755  0.0554 -0.1709  0.1730
  164loPI    C3 2611   9.819   5.987  10.714  0.0708 -0.1464 -0.1181
  164loPI   PO4 2612   9.774   6.288  10.236 -0.0200 -0.1501  0.0414
  164loPI   GL1 2613   9.701   6.470   9.901 -0.3109 -0.1171 -0.2927
  164loPI   GL2 2614   9.367   6.376   9.908  0.0229 -0.0594  0.0024
  164loPI   C1A 2615   9.667   6.543   9.516 -0.1550 -0.1779 -0.3128
  164loPI   C2A 2616   9.763   6.537   9.151 -0.1464 -0.2109 -0.1289
  164loPI   C3A 2617   9.481   6.433   8.864 -0.2620 -0.1505  0.1623
  164loPI   C4A 2618   9.060   6.228   8.843  0.0292  0.2159 -0.0081
  164loPI   C5A 2619   8.858   5.927   9.139 -0.0330  0.0785  0.0302
  164loPI   C6A 2620   8.859   5.977   9.606  0.0612  0.1177 -0.2271
  164loPI   C1B 2621   9.300   6.260   9.356 -0.0319 -0.2413 -0.1899
  164loPI   C2B 2622   9.402   5.945   9.104  0.0062 -0.0178 -0.0327
  164loPI   C3B 2623   9.527   5.846   8.695 -0.0135 -0.0524 -0.0298
  164loPI   C4B 2624   9.378   6.280   8.391 -0.1049  0.1429  0.1127
  165loPI    C1 2625   4.254   2.869  10.294 -0.2146 -0.0551  0.0641
  165loPI    C2 2626   4.040   3.206  10.294  0.0536  0.1215  0.3786
  165loPI    C3 2627   3.962   2.920  10.562  0.1556  0.1510  0.4401
  165loPI   PO4 2628   4.282   2.816  10.049 -0.1151 -0.4657  0.1968
  165loPI   GL1 2629   4.427   3.022   9.652  0.0618  0.3085 -0.0928
  165loPI   GL2 2630   4.570   2.808   9.651 -0.1103 -0.2373 -0.2438
  165loPI   C1A 2631   4.437   3.057   9.233 -0.0141  0.0997 -0.2441
  165loPI   C2A 2632   4.451   3.225   8.895  0.3286 -0.1768  0.0582
  165loPI   C3A 2633   4.397   3.217   8.473  0.0239 -0.0337  0.4217
  165loPI   C4A 2634   4.429   3.399   8.097  0.1878 -0.0790  0.0802
  165loPI   C5A 2635   4.775   3.631   7.886 -0.0458 -0.2217  0.0817
  165loPI   C6A 2636   5.174   3.565   7.632 -0.2837 -0.2309 -0.2062
  165loPI   C1B 2637   4.607   2.612   9.275 -0.0075  0.1923 -0.3246
  165loPI   C2B 2638   4.615   2.742   8.843  0.2160  0.1288  0.2675
  165loPI   C3B 2639   4.401   2.706   8.414 -0.0455  0.2200 -0.0454
  165loPI   C4B 2640   4.213   2.879   8.142 -0.1218  0.1933 -0.1321
  166loPI    C1 2641  18.526  11.311   9.828 -0.0839  0.0727 -0.0312
  166loPI    C2 2642  18.801  11.542  10.006 -0.0348  0.0450 -0.0710
  166loPI    C3 2643  18.914  11.215   9.805 -0.1129 -0.0752  0.0786
  166loPI   PO4 2644  18.406  11.430   9.668 -0.0406 -0.1397 -0.1479
  166loPI   GL1 2645  18.286  11.435   9.204  0.1728  0.4506 -0.2296
  166loPI   GL2 2646  18.256  11.788   9.350  0.1223 -0.3188  0.0133
  166loPI   C1A 2647  18.107  11.319   8.844  0.1497 -0.1726 -0.0096
  166loPI   C2A 2648  18.067  10.979   8.512  0.4493 -0.0860 -0.0643
  166loPI   C3A 2649  17.932  10.978   8.060  0.1879 -0.0274 -0.1365
  166loPI   C4A 2650  18.149  11.057   7.737  0.1473 -0.2176 -0.0274
  166loPI   C5A 2651  18.381  11.011   7.425 -0.3270  0.1483 -0.2494
  166loPI   C6A 2652  18.509  10.667   7.383 -0.0340 -0.3567  0.0073
  166loPI   C1B 2653  17.999  11.805   8.960 -0.0546  0.2040 -0.3193
  166loPI   C2B 2654  18.010  11.824   8.486 -0.4283 -0.0423  0.0845
  166loPI   C3B 2655  18.207  11.887   8.044 -0.0666 -0.1099 -0.0036
  166loPI   C4B 2656  18.241  11.576   7.674  0.1711  0.3645  0.2259
  167loPI    C1 2657   4.104   4.847  10.581  0.0078 -0.1584  0.1021
  167loPI    C2 2658   4.161   5.120  10.294 -0.0265 -0.1692  0.0851
  167loPI    C3 2659   3.935   5.208  10.612 -0.0761 -0.1937  0.0567
  167loPI   PO4 2660   4.131   4.614  10.408  0.0562  0.0069  0.2209
  167loPI   GL1 2661   4.007   4.571   9.972 -0.0650  0.0058 -0.0800
  167loPI   GL2 2662   4.041   4.308   9.922 -0.1674  0.2237 -0.0565
  167loPI   C1A 2663   3.781   4.955   9.739 -0.0963 -0.2594  0.3925
  167loPI   C2A 2664   3.755   5.284   9.522  0.1231  0.2319 -0.1872
  167loPI   C3A 2665   3.950   5.399   9.115 -0.1527  0.0348 -0.1859
  167loPI   C4A 2666   3.962   5.138   8.811  0.2062 -0.0391  0.2535
  167loPI   C5A 2667   3.947   5.086   8.393 -0.1064  0.3495  0.1190
  167loPI   C6A 2668   4.086   5.073   7.956 -0.0714 -0.4234  0.0638
  167loPI   C1B 2669   4.347   4.470   9.514 -0.0764  0.1924 -0.2024
  167loPI   C2B 2670   4.312   4.292   9.188  0.0063 -0.0959  0.1127
  167loPI   C3B 2671   4.561   4.350   8.827 -0.0178 -0.0705  0.1521
  167loPI   C4B 2672   4.531   4.257   8.357 -0.0028  0.2201  0.1442
  168loPI    C1 2673  13.718   2.996  10.100  0.0914 -0.0512  0.1165
  168loPI    C2 2674  13.720   2.829  10.463  0.2163 -0.1568  0.0683
  168loPI    C3 2675  13.926   2.660  10.165  0.2084 -0.0069 -0.0230
  168loPI   PO4 2676  13.442   2.943  10.054 -0.1250  0.2090 -0.0969
  168loPI   GL1 2677  13.334   2.803   9.708 -0.1037 -0.1897 -0.2359
  168loPI   GL2 2678  13.730   2.622   9.660  0.0232  0.1810  0.2564
  168loPI   C1A 2679  13.286   2.530   9.354 -0.0200 -0.0676  0.0163
  168loPI   C2A 2680  13.071   1.981   9.309  0.2420  0.2445 -0.0402
  168loPI   C3A 2681  13.010   1.753   9.044 -0.1375  0.0558  0.0849
  168loPI   C4A 2682  12.917   1.543   8.575  0.0915  0.1827 -0.1878
  168loPI   C5A 2683  12.573   1.242   8.444 -0.0530  0.2879  0.1747
  168loPI   C6A 2684  12.073   1.422   8.511 -0.0238  0.1515  0.1895
  168loPI   C1B 2685  14.036   2.650   9.272 -0.2087 -0.1592  0.2578
  168loPI   C2B 2686  14.067   2.588   8.785 -0.2610 -0.0901 -0.3624
  168loPI   C3B 2687  14.107   2.477   8.446 -0.1025 -0.1071  0.0169
  168loPI   C4B 2688  13.978   2.563   7.995  0.0614 -0.2419  0.0499
  169loPI    C1 2689  13.063   5.848  10.403  0.1479 -0.1420 -0.0370
  169loPI    C2 2690  12.852   6.186  10.373  0.1685 -0.1286 -0.0301
  169loPI    C3 2691  13.151   6.159  10.638  0.3029 -0.0797 -0.1755
  169loPI   PO4 2692  13.097   5.763  10.215  0.1349 -0.1732 -0.1641
  169loPI   GL1 2693  12.907   5.658   9.912  0.1262 -0.1970 -0.3913
  169loPI   GL2 2694  13.066   5.360   9.724  0.4956  0.0701 -0.1678
  169loPI   C1A 2695  12.701   5.635   9.511  0.0401 -0.2183 -0.2788
  169loPI   C2A 2696  12.483   5.534   9.138  0.0632 -0.0277 -0.0061
  169loPI   C3A 2697  12.416   5.700   8.643 -0.0673  0.0629 -0.0115
  169loPI   C4A 2698  12.463   5.809   8.218 -0.1467  0.1782  0.0642
  169loPI   C5A 2699  12.763   6.077   7.948  0.0820  0.1151 -0.0887
  169loPI   C6A 2700  13.074   6.273   7.646 -0.4150 -0.1543  0.0023
  169loPI   C1B 2701  13.000   5.268   9.338 -0.2299  0.1636 -0.2191
  169loPI   C2B 2702  12.880   5.249   9.014 -0.0748 -0.0762  0.1106
  169loPI   C3B 2703  12.896   5.099   8.619  0.3488 -0.2722 -0.0832
  169loPI   C4B 2704  12.653   5.006   8.298 -0.0180 -0.0215 -0.1787
  170loPI    C1 2705   6.239  13.687  10.166 -0.1631 -0.0231  0.0180
  170loPI    C2 2706   6.475  13.414  10.339  0.1562  0.2419  0.0101
  170loPI    C3 2707   6.245  13.311  10.028  0.1080 -0.0673  0.1443
  170loPI   PO4 2708   6.329  13.894   9.979 -0.0543 -0.1256 -0.1611
  170loPI   GL1 2709   6.510  13.855   9.533  0.2133 -0.0217 -0.0193
  170loPI   GL2 2710   6.797  13.989   9.623  0.3733  0.1845 -0.0883
  170loPI   C1A 2711   6.422  14.100   9.209 -0.0762  0.1296  0.5574
  170loPI   C2A 2712   6.212  14.486   9.177  0.2563 -0.1766 -0.2248
  170loPI   C3A 2713   6.209  14.728   8.762 -0.0886 -0.2781 -0.4588
  170loPI   C4A 2714   5.984  14.583   8.599 -0.2957  0.3215 -0.2875
  170loPI   C5A 2715   5.663  14.687   8.320  0.0647  0.1094 -0.2042
  170loPI   C6A 2716   5.546  15.010   8.000 -0.0998  0.0661 -0.0344
  170loPI   C1B 2717   6.938  13.753   9.278 -0.2722  0.0950 -0.1835
  170loPI   C2B 2718   7.093  13.572   8.855 -0.0176 -0.2284  0.1440
  170loPI   C3B 2719   6.947  13.802   8.497  0.1240  0.0437  0.1807
  170loPI   C4B 2720   6.912  13.802   7.989 -0.1105 -0.0641 -0.0108
  171loPI    C1 2721  13.497   9.830  10.345 -0.0394  0.0072 -0.4437
  171loPI    C2 2722  13.862   9.675  10.292  0.0455  0.1087 -0.1732
  171loPI    C3 2723  13.797   9.940  10.584 -0.2424  0.1043 -0.2296
  171loPI   PO4 2724  13.503   9.929  10.069  0.0751 -0.0547  0.0975
  171loPI   GL1 2725  13.360   9.840   9.708  0.4298  0.1166  0.0907
  171loPI   GL2 2726  13.061   9.521   9.609  0.1116 -0.2453  0.1332
  171loPI   C1A 2727  13.076   9.990   9.444  0.3199  0.0945  0.0721
  171loPI   C2A 2728  12.630  10.142   9.401  0.0703  0.1879 -0.1621
  171loPI   C3A 2729  12.395  10.246   9.073  0.4547  0.1025 -0.0503
  171loPI   C4A 2730  12.410  10.134   8.672 -0.2904  0.1736  0.1851
  171loPI   C5A 2731  12.699  10.108   8.298 -0.0478 -0.0532 -0.3438
  171loPI   C6A 2732  12.818   9.823   8.039 -0.0695  0.5297  0.1573
  171loPI   C1B 2733  13.211   9.550   9.208 -0.1543 -0.2741 -0.1227
  171loPI   C2B 2734  13.498   9.555   8.770  0.3961 -0.1076  0.0821
  171loPI   C3B 2735  13.703   9.591   8.447  0.4267  0.3835 -0.1175
  171loPI   C4B 2736  13.915   9.842   8.200 -0.0766  0.2975 -0.1426
  172loPI    C1 2737   8.335   8.424   9.940  0.0498 -0.0104 -0.1064
  172loPI    C2 2738   8.066   8.376  10.232  0.0529  0.1155 -0.0823
  172loPI    C3 2739   7.960   8.318   9.850 -0.0355  0.2616 -0.0808
  172loPI   PO4 2740   8.445   8.677  10.041  0.0315 -0.3060 -0.0523
  172loPI   GL1 2741   8.609   8.948   9.784 -0.1980 -0.0140 -0.5266
  172loPI   GL2 2742   8.293   9.043   9.760  0.0062  0.0275 -0.0650
  172loPI   C1A 2743   8.479   8.762   9.405 -0.2225  0.0617  0.0577
  172loPI   C2A 2744   8.444   8.672   8.986  0.1500  0.3237  0.1645
  172loPI   C3A 2745   8.586   8.603   8.531 -0.0901 -0.2184  0.0224
  172loPI   C4A 2746   8.657   8.498   8.047  0.0346 -0.1194 -0.1045
  172loPI   C5A 2747   8.481   8.548   7.673  0.1114  0.3395  0.3189
  172loPI   C6A 2748   8.698   8.663   7.236  0.0676 -0.1234 -0.0969
  172loPI   C1B 2749   8.185   9.141   9.302  0.0913 -0.0698 -0.1775
  172loPI   C2B 2750   8.114   9.054   8.884 -0.3491  0.0192 -0.0396
  172loPI   C3B 2751   8.082   8.781   8.605 -0.1295  0.0947  0.1008
  172loPI   C4B 2752   8.180   8.683   8.203 -0.1435 -0.1437  0.2047
  173loPI    C1 2753   2.459   0.681  10.262 -0.0620  0.1507 -0.3015
  173loPI    C2 2754   2.675   0.951  10.463  0.0288  0.0220 -0.2246
  173loPI    C3 2755   2.281   0.924  10.525  0.0403  0.0507 -0.1381
  173loPI   PO4 2756   2.491   0.775  10.033  0.0073 -0.0641 -0.1327
  173loPI   GL1 2757   2.345   0.559   9.792 -0.0470  0.1462  0.0664
  173loPI   GL2 2758   2.038   0.573   9.581  0.1875 -0.1417 -0.2217
  173loPI   C1A 2759   2.459   0.518   9.361  0.3438 -0.0625  0.0586
  173loPI   C2A 2760   2.457   0.445   8.907  0.2671  0.4017 -0.0557
  173loPI   C3A 2761   2.522   0.397   8.398  0.3518 -0.1667  0.1937
  173loPI   C4A 2762   2.260   0.114   8.102 -0.0659 -0.1321 -0.0020
  173loPI   C5A 2763   1.952   0.069   7.716 -0.1161 -0.0610 -0.4466
  173loPI   C6A 2764   1.674   0.293   7.406  0.3248  0.0818  0.0714
  173loPI   C1B 2765   2.096   0.897   9.242  0.0013 -0.0633  0.0512
  173loPI   C2B 2766   2.210   0.866   8.864 -0.2253  0.2741  0.0379
  173loPI   C3B 2767   2.399   0.987   8.515 -0.1501  0.1455  0.2649
  173loPI   C4B 2768   2.330   0.780   8.165 -0.2072  0.1091  0.2164
  174loPI    C1 2769  17.739  11.347  10.148 -0.0027 -0.1929  0.2729
  174loPI    C2 2770  18.075  11.194   9.996  0.0052  0.3048 -0.2429
  174loPI    C3 2771  18.090  11.419  10.326  0.0535 -0.3686  0.2352
  174loPI   PO4 2772  17.597  11.292   9.827 -0.0075 -0.1758  0.0880
  174loPI   GL1 2773  17.190  11.363   9.556  0.0423 -0.0906 -0.2734
  174loPI   GL2 2774  17.402  11.755   9.503  0.1926  0.0498 -0.0658
  174loPI   C1A 2775  17.134  11.162   9.191 -0.0765 -0.0568 -0.0358
  174loPI   C2A 2776  17.133  11.173   8.750  0.1337  0.0114 -0.0807
  174loPI   C3A 2777  16.993  11.061   8.343 -0.1174  0.0825 -0.0978
  174loPI   C4A 2778  17.018  11.110   7.937 -0.0104 -0.0366 -0.3324
  174loPI   C5A 2779  17.040  10.979   7.466  0.1336  0.0998 -0.0392
  174loPI   C6A 2780  17.452  10.858   7.310 -0.1322  0.2767 -0.4627
  174loPI   C1B 2781  17.153  11.655   9.133 -0.0361 -0.0288  0.2538
  174loPI   C2B 2782  17.091  11.690   8.736  0.0222 -0.0845  0.1371
  174loPI   C3B 2783  17.157  11.521   8.338 -0.1647 -0.2785 -0.2701
  174loPI   C4B 2784  17.145  11.740   7.992  0.1323  0.1174 -0.1440
  175loPI    C1 2785   3.127  14.542  10.170 -0.1217 -0.0202  0.1190
  175loPI    C2 2786   3.185  14.159  10.068  0.0332  0.0249  0.0354
  175loPI    C3 2787   2.997  14.249  10.409  0.1034 -0.1260  0.1146
  175loPI   PO4 2788   3.028  14.671   9.901  0.0545 -0.0442 -0.0219
  175loPI   GL1 2789   3.048  14.927   9.560 -0.2352  0.0270 -0.0612
  175loPI   GL2 2790   3.373  14.928   9.571 -0.1157 -0.1954  0.2131
  175loPI   C1A 2791   2.960  14.905   9.217  0.2481 -0.0361 -0.0513
  175loPI   C2A 2792   2.958  14.987   8.777  0.0273 -0.3633 -0.1659
  175loPI   C3A 2793   3.088  15.153   8.281 -0.3019 -0.0519 -0.1223
  175loPI   C4A 2794   3.357  14.997   7.951 -0.0295  0.1548  0.3131
  175loPI   C5A 2795   3.618  14.943   7.637  0.1525  0.1207 -0.3719
  175loPI   C6A 2796   3.951  15.150   7.332  0.0809 -0.0350  0.0215
  175loPI   C1B 2797   3.389  15.112   9.089 -0.0859 -0.3383 -0.0874
  175loPI   C2B 2798   3.402  15.143   8.659  0.3879  0.3131 -0.3528
  175loPI   C3B 2799   3.531  15.345   8.313 -0.0106 -0.5993  0.4321
  175loPI   C4B 2800   3.618  15.699   7.971  0.0248 -0.0242 -0.1233
  176loPI    C1 2801  10.177  17.113  10.600 -0.1075  0.2188 -0.1920
  176loPI    C2 2802   9.905  16.834  10.512 -0.0819  0.1568 -0.0766
  176loPI    C3 2803  10.109  16.813  10.855  0.0658  0.2053 -0.1607
  176loPI   PO4 2804  10.292  17.170  10.335 -0.0898  0.1045  0.1329
  176loPI   GL1 2805  10.642  17.021  10.239 -0.2035  0.1225 -0.1145
  176loPI   GL2 2806  10.716  17.277  10.015 -0.0482  0.0294 -0.1383
  176loPI   C1A 2807  11.042  16.894  10.116 -0.2422 -0.1146 -0.2724
  176loPI   C2A 2808  11.449  16.846   9.877  0.0896  0.4846  0.1029
  176loPI   C3A 2809  11.680  16.835   9.549  0.1668 -0.0756 -0.0159
  176loPI   C4A 2810  11.942  16.964   9.245  0.0714 -0.2267  0.4730
  176loPI   C5A 2811  12.122  17.012   8.825 -0.0683  0.2029  0.1522
  176loPI   C6A 2812  12.162  16.772   8.419 -0.0503  0.0302  0.0400
  176loPI   C1B 2813  10.754  16.992   9.687  0.0230  0.0018 -0.0473
  176loPI   C2B 2814  10.735  16.594   9.441 -0.1532  0.1828 -0.3071
  176loPI   C3B 2815  11.000  16.441   9.015 -0.0318 -0.0655 -0.1254
  176loPI   C4B 2816  11.373  16.476   8.724  0.3435  0.1468 -0.0224
  177loPI    C1 2817  13.878   4.764  10.096 -0.0346 -0.1180  0.0999
  177loPI    C2 2818  13.556   4.629   9.901 -0.0471 -0.0378  0.0647
  177loPI    C3 2819  13.550   4.659  10.300 -0.0718 -0.0665  0.0666
  177loPI   PO4 2820  13.908   4.953   9.887  0.1710 -0.0151 -0.1231
  177loPI   GL1 2821  14.286   4.949   9.576  0.0670  0.0363 -0.2608
  177loPI   GL2 2822  14.454   4.778   9.473  0.1816  0.1732 -0.0335
  177loPI   C1A 2823  14.021   5.045   9.177 -0.0673  0.0052  0.4331
  177loPI   C2A 2824  13.721   5.078   8.825  0.1906 -0.1768 -0.0576
  177loPI   C3A 2825  13.426   4.888   8.583  0.0262  0.0745 -0.0512
  177loPI   C4A 2826  13.098   4.656   8.338  0.1817 -0.0837  0.1147
  177loPI   C5A 2827  12.720   4.531   8.167  0.0456  0.0217 -0.1298
  177loPI   C6A 2828  12.344   4.400   8.298 -0.0929  0.0400  0.0651
  177loPI   C1B 2829  14.172   4.545   9.158 -0.0208 -0.0016 -0.2165
  177loPI   C2B 2830  14.041   4.485   8.676 -0.0480 -0.0456 -0.0788
  177loPI   C3B 2831  13.892   4.630   8.325 -0.1081  0.2334  0.0590
  177loPI   C4B 2832  13.531   4.607   8.141 -0.1531  0.1491 -0.0594
  178loPI    C1 2833   0.086   1.873   9.950  0.0553 -0.2332 -0.0347
  178loPI    C2 2834   0.196   1.638  10.254 -0.1107  0.2467  0.4115
  178loPI    C3 2835  -0.151   1.835  10.270 -0.0614  0.3802 -0.0373
  178loPI   PO4 2836   0.082   1.751   9.707  0.1680 -0.1499 -0.0556
  178loPI   GL1 2837   0.254   1.755   9.364  0.4027 -0.0530  0.2875
  178loPI   GL2 2838   0.123   1.414   9.127 -0.1379 -0.0665 -0.2272
  178loPI   C1A 2839   0.610   2.035   9.240 -0.0587 -0.0177 -0.0490
  178loPI   C2A 2840   0.795   2.032   8.907 -0.2981  0.1072 -0.0741
  178loPI   C3A 2841   0.689   2.129   8.585 -0.0135  0.0408 -0.3977
  178loPI   C4A 2842   0.857   2.438   8.309  0.1134  0.2538  0.0512
  178loPI   C5A 2843   1.127   2.480   7.941 -0.2109 -0.0147 -0.1078
  178loPI   C6A 2844   0.970   2.798   7.717 -0.1029 -0.2984  0.3288
  178loPI   C1B 2845   0.179   1.414   8.711 -0.2203 -0.2870 -0.2224
  178loPI   C2B 2846   0.081   1.733   8.332 -0.5474  0.3273  0.0992
  178loPI   C3B 2847  -0.179   1.962   8.067  0.4948 -0.0653  0.3726
  178loPI   C4B 2848  -0.339   2.349   8.055  0.3987  0.0533  0.1790
  179loPI    C1 2849  17.064   7.190  10.000 -0.1417 -0.0878 -0.0243
  179loPI    C2 2850  16.768   7.305  10.243  0.0040 -0.0925  0.1577
  179loPI    C3 2851  17.047   7.052  10.375 -0.0009 -0.2162 -0.0644
  179loPI   PO4 2852  16.962   7.239   9.713  0.0584  0.3203 -0.2743
  179loPI   GL1 2853  17.051   7.134   9.251 -0.2393 -0.4314  0.0635
  179loPI   GL2 2854  17.305   7.136   9.067 -0.0454  0.0037  0.1286
  179loPI   C1A 2855  17.049   7.526   8.926  0.1271 -0.0585  0.1447
  179loPI   C2A 2856  17.312   7.605   8.562  0.0061 -0.0903 -0.1147
  179loPI   C3A 2857  17.354   7.698   8.191  0.0253  0.1064 -0.1124
  179loPI   C4A 2858  17.189   8.067   7.901 -0.0164  0.2129 -0.1294
  179loPI   C5A 2859  17.310   8.112   7.567 -0.0617  0.0995  0.2924
  179loPI   C6A 2860  17.445   7.775   7.264 -0.0060 -0.2306 -0.2293
  179loPI   C1B 2861  17.403   7.038   8.653  0.1896  0.3521 -0.1342
  179loPI   C2B 2862  17.299   7.126   8.125  0.2496 -0.1998  0.4517
  179loPI   C3B 2863  17.281   7.159   7.723  0.1099  0.1152  0.1743
  179loPI   C4B 2864  17.586   7.330   7.468 -0.2822  0.0603 -0.0801
  180loPI    C1 2865  11.555  12.857  10.331  0.1526 -0.1598 -0.0483
  180loPI    C2 2866  11.157  12.824  10.316  0.1283  0.1583 -0.1707
  180loPI    C3 2867  11.339  12.891  10.666  0.0732  0.0398 -0.1188
  180loPI   PO4 2868  11.640  12.749  10.141 -0.2571 -0.2561  0.1775
  180loPI   GL1 2869  11.747  12.732   9.671 -0.0975  0.1043 -0.2027
  180loPI   GL2 2870  11.802  13.000   9.694 -0.2382 -0.3290 -0.1523
  180loPI   C1A 2871  12.017  12.700   9.282  0.2054 -0.0348  0.2246
  180loPI   C2A 2872  12.292  12.750   8.932 -0.6474 -0.1609 -0.0179
  180loPI   C3A 2873  12.520  12.612   8.512 -0.1626 -0.2102  0.2632
  180loPI   C4A 2874  12.762  12.354   8.394 -0.1916 -0.1471  0.2135
  180loPI   C5A 2875  12.702  12.077   8.067  0.0186 -0.2856 -0.0474
  180loPI   C6A 2876  12.400  11.762   7.967 -0.1311  0.1142  0.2260
  180loPI   C1B 2877  12.088  13.257   9.299  0.2001  0.0780  0.2281
  180loPI   C2B 2878  12.230  13.241   8.918  0.1076  0.2593 -0.2191
  180loPI   C3B 2879  12.223  13.328   8.504 -0.2459 -0.0003 -0.0159
  180loPI   C4B 2880  12.022  13.264   8.135  0.2317 -0.2653 -0.0791
  181loPI    C1 2881   4.431  12.384  10.043 -0.1755 -0.1626 -0.1802
  181loPI    C2 2882   4.639  12.044  10.072 -0.0482 -0.0778 -0.0877
  181loPI    C3 2883   4.525  12.238  10.403 -0.2828 -0.1273 -0.1374
  181loPI   PO4 2884   4.511  12.535   9.856  0.0647 -0.0952 -0.0640
  181loPI   GL1 2885   4.704  12.579   9.463  0.1847 -0.0761  0.2206
  181loPI   GL2 2886   4.965  12.704   9.414 -0.0441  0.1253 -0.0421
  181loPI   C1A 2887   4.737  12.379   9.076  0.1497  0.0279  0.0850
  181loPI   C2A 2888   4.712  12.225   8.669  0.1437 -0.0783  0.1351
  181loPI   C3A 2889   4.952  12.213   8.252 -0.0813  0.2644  0.3893
  181loPI   C4A 2890   5.042  12.385   7.848 -0.1618 -0.2977 -0.1599
  181loPI   C5A 2891   4.848  12.344   7.399 -0.4186  0.1171 -0.0775
  181loPI   C6A 2892   4.640  12.019   7.190 -0.0961 -0.1627  0.0432
  181loPI   C1B 2893   4.814  12.995   9.187 -0.2012 -0.1373 -0.0203
  181loPI   C2B 2894   4.861  13.143   8.691  0.2635  0.2058 -0.3321
  181loPI   C3B 2895   4.918  13.060   8.335 -0.3912 -0.1551 -0.2971
  181loPI   C4B 2896   4.793  12.718   8.127  0.2686 -0.0617 -0.4007
  182loPI    C1 2897   5.285  13.240  10.017  0.0049 -0.2280 -0.1136
  182loPI    C2 2898   4.958  13.352  10.218  0.0247 -0.0365 -0.1860
  182loPI    C3 2899   5.118  12.991  10.282  0.1355  0.0877  0.2760
  182loPI   PO4 2900   5.262  13.395   9.814 -0.0709  0.1680 -0.0245
  182loPI   GL1 2901   5.227  13.518   9.440  0.2616 -0.1475  0.0539
  182loPI   GL2 2902   5.272  13.148   9.351  0.2695  0.3033 -0.0284
  182loPI   C1A 2903   5.079  13.566   9.122  0.4068  0.0894  0.3019
  182loPI   C2A 2904   4.747  13.629   8.826  0.2660  0.1676  0.0102
  182loPI   C3A 2905   4.598  13.783   8.500 -0.0831 -0.0603  0.0866
  182loPI   C4A 2906   4.589  13.574   8.021  0.4294 -0.1327 -0.2765
  182loPI   C5A 2907   4.982  13.292   7.845  0.1157 -0.2683 -0.0362
  182loPI   C6A 2908   4.895  12.960   7.506 -0.1969  0.0602 -0.0527
  182loPI   C1B 2909   5.292  13.118   8.968  0.1774  0.2994 -0.1022
  182loPI   C2B 2910   5.348  12.966   8.594 -0.2716  0.1350  0.1313
  182loPI   C3B 2911   5.424  13.195   8.232 -0.0112  0.1423 -0.5125
  182loPI   C4B 2912   5.695  13.140   7.924 -0.4184 -0.2399  0.1925
  183loPI    C1 2913  11.049   0.555  11.143  0.1280  0.1469 -0.1601
  183loPI    C2 2914  11.444   0.511  11.095  0.1791 -0.0016  0.3436
  183loPI    C3 2915  11.261   0.350  11.413 -0.2917  0.0582  0.1121
  183loPI   PO4 2916  10.981   0.540  10.887  0.0817  0.0715  0.3506
  183loPI   GL1 2917  11.252   0.318  10.640  0.0703 -0.2169 -0.1461
  183loPI   GL2 2918  11.101   0.071  10.522 -0.3251  0.1666 -0.0487
  183loPI   C1A 2919  11.408   0.263  10.133  0.1432  0.0038 -0.0144
  183loPI   C2A 2920  11.495   0.240   9.672 -0.1885  0.0445  0.0101
  183loPI   C3A 2921  11.399   0.053   9.333 -0.2140  0.0059 -0.3097
  183loPI   C4A 2922  11.418   0.096   8.945 -0.2483 -0.1194  0.0603
  183loPI   C5A 2923  11.212   0.264   8.588 -0.0950  0.2564 -0.1168
  183loPI   C6A 2924  11.040   0.471   8.228  0.0685  0.0060 -0.0663
  183loPI   C1B 2925  11.124  -0.119  10.250  0.2856  0.1566  0.0400
  183loPI   C2B 2926  11.381  -0.184   9.922  0.1340 -0.1345  0.0295
  183loPI   C3B 2927  11.660  -0.259   9.610 -0.0251 -0.1211 -0.0412
  183loPI   C4B 2928  11.837  -0.246   9.172  0.2633 -0.0658 -0.0751
  184loPI    C1 2929   0.027  13.956  10.109  0.1030  0.1778  0.0605
  184loPI    C2 2930   0.254  13.714  10.333  0.0782  0.2393  0.1521
  184loPI    C3 2931  -0.097  13.847  10.473 -0.1549 -0.0905 -0.1028
  184loPI   PO4 2932   0.136  13.810   9.839 -0.3198  0.2032  0.1460
  184loPI   GL1 2933  -0.107  13.443   9.617 -0.1738 -0.2397  0.0911
  184loPI   GL2 2934  -0.395  13.495   9.516 -0.1182  0.0711 -0.0576
  184loPI   C1A 2935  -0.035  13.397   9.167  0.0106 -0.1546  0.3745
  184loPI   C2A 2936   0.074  13.275   8.754  0.2331 -0.2040 -0.2298
  184loPI   C3A 2937   0.031  13.437   8.400 -0.1030  0.0863 -0.0839
  184loPI   C4A 2938   0.123  13.711   8.023  0.1395 -0.1257  0.2353
  184loPI   C5A 2939   0.314  14.036   7.837  0.1845 -0.2690  0.3078
  184loPI   C6A 2940  -0.030  14.313   7.525  0.1384 -0.1307  0.2281
  184loPI   C1B 2941  -0.826  13.624   9.414 -0.1063 -0.1275  0.0514
  184loPI   C2B 2942  -1.025  13.748   9.134 -0.1645 -0.1692 -0.0866
  184loPI   C3B 2943  -1.002  13.681   8.750 -0.0515 -0.1890  0.0176
  184loPI   C4B 2944  -1.214  13.512   8.331  0.1047  0.3839 -0.1255
  185loPI    C1 2945   5.758   8.122  10.172 -0.1485 -0.1558 -0.2452
  185loPI    C2 2946   5.596   8.058   9.811 -0.0595  0.3298 -0.3778
  185loPI    C3 2947   5.468   8.363  10.037 -0.1822 -0.0277  0.0491
  185loPI   PO4 2948   6.021   8.090  10.148 -0.0209 -0.2418  0.1076
  185loPI   GL1 2949   6.125   8.168   9.786  0.1551 -0.1384 -0.2142
  185loPI   GL2 2950   6.149   8.382   9.545 -0.1776  0.3236  0.0455
  185loPI   C1A 2951   5.947   7.936   9.489 -0.0103 -0.0913 -0.4483
  185loPI   C2A 2952   5.992   7.913   9.058  0.0932  0.3313  0.2490
  185loPI   C3A 2953   5.994   7.864   8.686  0.0793  0.0161  0.1694
  185loPI   C4A 2954   6.124   7.875   8.266  0.3324 -0.3277  0.0511
  185loPI   C5A 2955   6.174   8.110   7.799 -0.0091  0.1708 -0.0969
  185loPI   C6A 2956   6.072   8.565   7.722 -0.0760 -0.0735  0.0883
  185loPI   C1B 2957   6.384   8.374   9.024 -0.0197  0.0320 -0.4734
  185loPI   C2B 2958   6.344   8.231   8.598 -0.0716  0.1313  0.1098
  185loPI   C3B 2959   6.569   8.398   8.249  0.0510  0.0734  0.0794
  185loPI   C4B 2960   6.599   8.605   7.720 -0.0447  0.2220  0.0076
  186loPI    C1 2961   5.920   8.965  10.073  0.1994 -0.2151 -0.1331
  186loPI    C2 2962   5.784   8.671   9.838  0.1374 -0.0828 -0.2645
  186loPI    C3 2963   5.909   8.589  10.209 -0.3677 -0.2002 -0.1121
  186loPI   PO4 2964   6.058   9.085   9.841  0.1518  0.1100 -0.0197
  186loPI   GL1 2965   5.810   9.179   9.470 -0.6623 -0.2338  0.4768
  186loPI   GL2 2966   5.943   8.953   9.327  0.1702 -0.0656  0.1671
  186loPI   C1A 2967   5.738   9.155   8.972 -0.1029 -0.1650 -0.0580
  186loPI   C2A 2968   5.787   8.986   8.656 -0.6258 -0.0436  0.0917
  186loPI   C3A 2969   5.539   8.882   8.327  0.1572 -0.1433  0.2029
  186loPI   C4A 2970   5.824   8.858   8.077 -0.2528  0.1281 -0.0031
  186loPI   C5A 2971   5.997   9.113   7.680 -0.1369 -0.0356 -0.2288
  186loPI   C6A 2972   5.878   9.081   7.272  0.3082  0.1758 -0.3202
  186loPI   C1B 2973   6.254   8.840   9.040 -0.1395 -0.1412 -0.3322
  186loPI   C2B 2974   6.291   8.802   8.651 -0.5137 -0.2261 -0.0924
  186loPI   C3B 2975   6.715   8.828   8.488 -0.3141 -0.0809 -0.0828
  186loPI   C4B 2976   6.863   8.890   8.082  0.1218 -0.2303 -0.0415
  187loPI    C1 2977   6.582   5.257  10.071 -0.1401 -0.0048 -0.1458
  187loPI    C2 2978   6.582   4.980  10.360  0.0811  0.2172  0.0719
  187loPI    C3 2979   6.245   5.176  10.271 -0.0220  0.0436  0.0768
  187loPI   PO4 2980   6.683   5.145   9.830  0.4455  0.2815  0.1910
  187loPI   GL1 2981   6.539   4.969   9.498  0.1117  0.0969 -0.2923
  187loPI   GL2 2982   6.349   4.827   9.506 -0.4513 -0.2056  0.0306
  187loPI   C1A 2983   6.732   5.079   9.098  0.0423 -0.3229 -0.0562
  187loPI   C2A 2984   6.819   5.186   8.677 -0.0952  0.1033  0.3552
  187loPI   C3A 2985   6.976   5.358   8.200  0.0526  0.0705 -0.1581
  187loPI   C4A 2986   7.035   5.664   7.938  0.1972 -0.0092 -0.0434
  187loPI   C5A 2987   6.753   5.843   7.624  0.1739  0.0367 -0.1864
  187loPI   C6A 2988   6.290   6.105   7.578  0.2263  0.2694 -0.0353
  187loPI   C1B 2989   5.977   5.026   9.359 -0.0867 -0.0976  0.1829
  187loPI   C2B 2990   5.928   4.939   8.884  0.0189 -0.0705  0.1991
  187loPI   C3B 2991   5.791   5.029   8.627 -0.2036  0.0799 -0.0789
  187loPI   C4B 2992   5.804   5.000   8.211  0.0898  0.2681 -0.0693
  188loPI    C1 2993   9.597  16.459  10.177 -0.3350 -0.1901 -0.2874
  188loPI    C2 2994   9.533  16.131  10.398 -0.0226 -0.1001 -0.0571
  188loPI    C3 2995   9.284  16.443  10.426 -0.1042 -0.1708  0.0090
  188loPI   PO4 2996   9.829  16.376  10.122  0.2323  0.1503  0.1250
  188loPI   GL1 2997  10.199  16.356  10.087  0.0938  0.1053 -0.1253
  188loPI   GL2 2998  10.196  16.109   9.918  0.0140  0.0542 -0.2890
  188loPI   C1A 2999  10.353  16.615   9.746  0.0006 -0.0815 -0.0729
  188loPI   C2A 3000  10.314  16.683   9.223  0.1113  0.0368  0.1091
  188loPI   C3A 3001  10.505  16.628   8.966  0.0513  0.4442 -0.1398
  188loPI   C4A 3002  10.691  16.507   8.522 -0.0742 -0.2231 -0.2763
  188loPI   C5A 3003  10.535  16.687   8.133 -0.1009  0.1436  0.3020
  188loPI   C6A 3004  10.314  16.594   7.786  0.3710 -0.0140  0.3988
  188loPI   C1B 3005  10.173  15.906   9.510 -0.1789 -0.1486 -0.0034
  188loPI   C2B 3006  10.118  15.921   9.040 -0.0911 -0.0675  0.1402
  188loPI   C3B 3007  10.039  15.898   8.510  0.0995 -0.0360 -0.1644
  188loPI   C4B 3008   9.583  15.884   8.314 -0.2801  0.0556  0.0575
  189loPI    C1 3009  10.650   0.161  10.883  0.1742  0.1602  0.1953
  189loPI    C2 3010  10.565  -0.095  11.178 -0.1228  0.0737  0.0388
  189loPI    C3 3011  10.552   0.299  11.245 -0.1234  0.0541  0.1575
  189loPI   PO4 3012  10.613  -0.021  10.676  0.1288 -0.2254 -0.4584
  189loPI   GL1 3013  10.324  -0.253  10.426  0.2347  0.1128 -0.0893
  189loPI   GL2 3014  10.127  -0.018  10.376 -0.0907 -0.3704  0.0218
  189loPI   C1A 3015  10.549  -0.132  10.038  0.4051 -0.0199  0.1896
  189loPI   C2A 3016  10.574  -0.013   9.599  0.0955 -0.0627 -0.2474
  189loPI   C3A 3017  10.505   0.212   9.231  0.1650  0.0492 -0.2307
  189loPI   C4A 3018  10.403   0.213   8.779  0.0416  0.2780  0.1126
  189loPI   C5A 3019  10.288   0.250   8.326 -0.3785 -0.0369  0.0458
  189loPI   C6A 3020  10.143   0.553   8.163 -0.0437  0.2573 -0.4197
  189loPI   C1B 3021  10.051   0.424  10.301 -0.1000  0.0254  0.5307
  189loPI   C2B 3022  10.015   0.653   9.898  0.0106 -0.0432 -0.1022
  189loPI   C3B 3023  10.182   0.639   9.504 -0.3873 -0.0441 -0.2351
  189loPI   C4B 3024  10.359   0.639   9.001 -0.4048  0.0546  0.0126
  190loPI    C1 3025   7.964  17.271  10.576  0.0412  0.0872  0.2160
  190loPI    C2 3026   8.254  17.032  10.714  0.0049 -0.2053 -0.1957
  190loPI    C3 3027   7.878  16.987  10.845  0.0122 -0.3244 -0.2137
  190loPI   PO4 3028   8.099  17.294  10.299  0.3003  0.0555 -0.1598
  190loPI   GL1 3029   8.231  17.438   9.830 -0.1056 -0.0579  0.0090
  190loPI   GL2 3030   8.139  17.685   9.619  0.1182 -0.3043 -0.2358
  190loPI   C1A 3031   8.578  17.414   9.448 -0.1196 -0.0697 -0.0409
  190loPI   C2A 3032   8.604  17.483   9.108  0.1711 -0.0160  0.1245
  190loPI   C3A 3033   8.610  17.421   8.648 -0.2048 -0.0090 -0.0186
  190loPI   C4A 3034   8.582  17.218   8.294  0.2908  0.1506  0.0841
  190loPI   C5A 3035   8.626  16.795   8.138 -0.2202 -0.0151  0.2722
  190loPI   C6A 3036   8.585  16.674   7.690  0.1044  0.2355 -0.2784
  190loPI   C1B 3037   8.168  17.702   9.217  0.0484  0.4568 -0.2631
  190loPI   C2B 3038   8.245  17.717   8.823 -0.0658  0.0806 -0.3025
  190loPI   C3B 3039   8.269  17.697   8.474  0.1389 -0.2010  0.1226
  190loPI   C4B 3040   8.284  17.570   8.021  0.0957  0.0389 -0.0179
  191loPI    C1 3041  13.984   8.783  10.175 -0.0580  0.2096 -0.4153
  191loPI    C2 3042  13.699   9.062  10.203  0.0078  0.2394  0.0466
  191loPI    C3 3043  13.856   8.903  10.535  0.0859 -0.2339 -0.2080
  191loPI   PO4 3044  13.839   8.584   9.993 -0.2466  0.3782 -0.2520
  191loPI   GL1 3045  13.796   8.508   9.572 -0.0059  0.0971 -0.2538
  191loPI   GL2 3046  13.943   8.729   9.319 -0.1158 -0.4063  0.0752
  191loPI   C1A 3047  13.578   8.257   9.228 -0.0353 -0.1202  0.0825
  191loPI   C2A 3048  13.322   8.471   8.889 -0.0557  0.1865  0.2218
  191loPI   C3A 3049  13.207   8.634   8.489 -0.1540  0.1124 -0.0080
  191loPI   C4A 3050  13.117   8.376   8.105 -0.1750 -0.0532  0.1084
  191loPI   C5A 3051  12.918   8.461   7.690  0.0464 -0.1095 -0.2730
  191loPI   C6A 3052  12.758   8.877   7.466 -0.0819 -0.1931  0.2272
  191loPI   C1B 3053  13.869   8.651   9.020 -0.0586 -0.0767 -0.2944
  191loPI   C2B 3054  14.199   8.633   8.718  0.0126  0.4388  0.1212
  191loPI   C3B 3055  14.236   8.728   8.280  0.0649  0.0077  0.2907
  191loPI   C4B 3056  14.270   9.058   7.962 -0.1686 -0.0841  0.0817
  192loPI    C1 3057   3.820  17.216  10.600 -0.1087 -0.0944  0.2321
  192loPI    C2 3058   3.724  17.344  10.967 -0.1046  0.0210  0.1932
  192loPI    C3 3059   3.907  17.590  10.711  0.0071 -0.0989  0.1567
  192loPI   PO4 3060   3.540  17.106  10.481 -0.1150  0.0475  0.0317
  192loPI   GL1 3061   3.406  16.799  10.200 -0.0819 -0.0988 -0.1893
  192loPI   GL2 3062   3.709  17.016  10.023 -0.0141 -0.2760  0.3513
  192loPI   C1A 3063   3.539  16.621   9.713  0.1854 -0.0248  0.1985
  192loPI   C2A 3064   3.593  16.819   9.330  0.1781 -0.2113  0.1842
  192loPI   C3A 3065   3.634  16.715   8.992 -0.0081  0.3350  0.0135
  192loPI   C4A 3066   3.487  16.700   8.579 -0.0332 -0.1584  0.0509
  192loPI   C5A 3067   3.367  16.964   8.205 -0.0172 -0.0955  0.0268
  192loPI   C6A 3068   3.345  17.281   7.964  0.0199  0.2320  0.2991
  192loPI   C1B 3069   3.930  16.908   9.684  0.2189  0.0141  0.3153
  192loPI   C2B 3070   4.046  16.612   9.365  0.2029 -0.5398  0.1140
  192loPI   C3B 3071   4.175  16.588   8.981 -0.1907  0.3112  0.4414
  192loPI   C4B 3072   4.326  16.529   8.588 -0.0121 -0.1789 -0.0937
  193loPI    C1 3073   2.620   3.984   9.965 -0.0998  0.1518 -0.0278
  193loPI    C2 3074   2.408   4.323   9.978 -0.1821  0.0984  0.0402
  193loPI    C3 3075   2.345   4.037  10.250  0.1280  0.1699  0.1923
  193loPI   PO4 3076   2.907   4.108   9.805  0.2472 -0.0141 -0.4714
  193loPI   GL1 3077   3.086   4.255   9.523 -0.2927 -0.1329 -0.4609
  193loPI   GL2 3078   3.375   4.214   9.317  0.2820 -0.0507 -0.1723
  193loPI   C1A 3079   2.893   4.141   9.127 -0.1662 -0.0146  0.0729
  193loPI   C2A 3080   2.889   3.962   8.685 -0.2797  0.1528 -0.1305
  193loPI   C3A 3081   3.058   3.801   8.211  0.3437 -0.0734 -0.1146
  193loPI   C4A 3082   3.363   3.710   7.973  0.1138 -0.0554 -0.0643
  193loPI   C5A 3083   3.557   3.442   7.591 -0.0913  0.1693 -0.0820
  193loPI   C6A 3084   3.310   3.075   7.494 -0.0679  0.0686 -0.2311
  193loPI   C1B 3085   3.393   4.247   8.843  0.0050  0.2689  0.1587
  193loPI   C2B 3086   3.440   4.321   8.359  0.0165 -0.2521 -0.0410
  193loPI   C3B 3087   3.547   4.256   7.944  0.3066  0.0707 -0.0156
  193loPI   C4B 3088   3.251   4.324   7.638  0.1875  0.0958 -0.0013
  194loPI    C1 3089  13.551   6.328   9.898  0.2562  0.0263  0.0161
  194loPI    C2 3090  13.459   6.192  10.263  0.2256  0.0538  0.0186
  194loPI    C3 3091  13.721   5.993  10.035  0.3206  0.0905  0.0945
  194loPI   PO4 3092  13.594   6.553   9.873  0.0096 -0.1114  0.4282
  194loPI   GL1 3093  13.577   6.757   9.486 -0.0201  0.0431 -0.0316
  194loPI   GL2 3094  13.850   6.569   9.445  0.1747  0.2430 -0.1081
  194loPI   C1A 3095  13.652   6.887   9.039 -0.2129 -0.1098  0.0707
  194loPI   C2A 3096  14.002   6.842   8.705  0.0156 -0.0072 -0.0841
  194loPI   C3A 3097  13.978   6.920   8.314  0.1510 -0.0923  0.3495
  194loPI   C4A 3098  13.883   6.705   7.866  0.0107  0.1399  0.1498
  194loPI   C5A 3099  13.724   6.360   7.758  0.0616 -0.0194 -0.0183
  194loPI   C6A 3100  13.511   5.896   7.596 -0.0704  0.0300  0.0282
  194loPI   C1B 3101  13.853   6.444   9.077 -0.1178 -0.1804  0.0909
  194loPI   C2B 3102  13.965   6.329   8.673  0.1157 -0.2479  0.0621
  194loPI   C3B 3103  14.253   6.393   8.348  0.1658  0.1763 -0.0752
  194loPI   C4B 3104  14.285   6.204   7.974 -0.0741 -0.1031  0.1827
  195loPI    C1 3105  15.005  10.452  10.104  0.0838  0.1168  0.0417
  195loPI    C2 3106  14.825  10.698  10.363  0.1634  0.0354  0.1750
  195loPI    C3 3107  14.926  10.327  10.475 -0.0981 -0.1145 -0.0720
  195loPI   PO4 3108  15.178  10.578  10.032  0.1099  0.0405 -0.0459
  195loPI   GL1 3109  15.320  10.812   9.664  0.1321 -0.0610 -0.1391
  195loPI   GL2 3110  14.996  10.761   9.529 -0.1585  0.1154  0.2219
  195loPI   C1A 3111  15.366  11.183   9.590 -0.0561 -0.1981  0.0141
  195loPI   C2A 3112  15.147  11.517   9.468  0.2352 -0.0881  0.0882
  195loPI   C3A 3113  15.342  11.688   9.080 -0.2818  0.2309 -0.1758
  195loPI   C4A 3114  15.379  11.876   8.716 -0.1475  0.0584  0.1436
  195loPI   C5A 3115  15.411  12.294   8.471  0.5170 -0.1792  0.0345
  195loPI   C6A 3116  15.424  12.614   8.059 -0.2400 -0.3244 -0.1742
  195loPI   C1B 3117  15.198  10.938   9.151 -0.2632 -0.0149 -0.0184
  195loPI   C2B 3118  15.212  10.987   8.731  0.1156  0.2427 -0.0785
  195loPI   C3B 3119  15.293  11.382   8.601 -0.0152  0.0838  0.0245
  195loPI   C4B 3120  15.314  11.800   8.261  0.2945  0.0923 -0.0476
  196loPI    C1 3121  14.404  13.803  10.489  0.2597  0.0502 -0.1190
  196loPI    C2 3122  14.442  13.657  10.860 -0.0585 -0.0166 -0.1104
  196loPI    C3 3123  14.197  13.966  10.790  0.0772  0.0606 -0.2486
  196loPI   PO4 3124  14.622  13.749  10.349 -0.0010 -0.1799  0.0573
  196loPI   GL1 3125  14.720  14.014  10.057 -0.3278  0.0894 -0.1325
  196loPI   GL2 3126  14.562  14.266  10.071 -0.1360  0.2460  0.1162
  196loPI   C1A 3127  14.752  14.180   9.625 -0.2109  0.0809  0.1231
  196loPI   C2A 3128  14.797  14.187   9.231 -0.1211  0.0612 -0.1325
  196loPI   C3A 3129  14.967  13.962   8.917  0.0902 -0.2529 -0.1874
  196loPI   C4A 3130  15.163  13.884   8.497 -0.0242  0.0895 -0.1938
  196loPI   C5A 3131  15.074  13.873   8.074  0.1119  0.2295 -0.3645
  196loPI   C6A 3132  14.940  13.553   7.722  0.4005  0.0772  0.0157
  196loPI   C1B 3133  14.393  14.456   9.747  0.0656 -0.3294 -0.0401
  196loPI   C2B 3134  14.303  14.870   9.722 -0.0075 -0.0751 -0.0072
  196loPI   C3B 3135  14.185  14.968   9.409  0.1495 -0.2467  0.0576
  196loPI   C4B 3136  14.015  15.137   9.008 -0.1682  0.1222  0.1987
  197loPI    C1 3137   9.417  13.794  10.004 -0.0150  0.1988  0.0522
  197loPI    C2 3138   9.332  13.741  10.391 -0.2767  0.0871 -0.0185
  197loPI    C3 3139   9.589  14.026  10.280 -0.1808  0.1031  0.2387
  197loPI   PO4 3140   9.400  13.497   9.941  0.1263 -0.1184  0.2355
  197loPI   GL1 3141   9.645  13.276   9.655  0.4279  0.1020  0.0069
  197loPI   GL2 3142   9.708  13.630   9.562  0.4482  0.0052  0.0854
  197loPI   C1A 3143   9.414  13.081   9.349  0.0048  0.0555 -0.0820
  197loPI   C2A 3144   9.213  13.040   8.949 -0.1413 -0.3038  0.0079
  197loPI   C3A 3145   8.977  13.081   8.441  0.1513 -0.3752  0.1427
  197loPI   C4A 3146   8.681  13.422   8.223  0.0911 -0.2411 -0.1833
  197loPI   C5A 3147   8.319  13.290   7.981  0.2652  0.1623  0.1489
  197loPI   C6A 3148   7.906  13.225   7.773 -0.0712 -0.1518 -0.2286
  197loPI   C1B 3149   9.718  13.460   9.086  0.0053  0.2021 -0.0738
  197loPI   C2B 3150   9.514  13.304   8.708 -0.1317  0.1186  0.0790
  197loPI   C3B 3151   9.552  13.399   8.255  0.1390  0.3706 -0.1339
  197loPI   C4B 3152   9.654  13.208   7.826 -0.1212  0.0787 -0.0455
  198loPI    C1 3153   2.709  11.098  10.196 -0.2179  0.3001  0.0455
  198loPI    C2 3154   2.797  10.960  10.561 -0.1830 -0.0381 -0.0875
  198loPI    C3 3155   2.776  11.354  10.496  0.0058  0.0282  0.2327
  198loPI   PO4 3156   2.833  10.922  10.011 -0.1289  0.1079 -0.3500
  198loPI   GL1 3157   2.957  10.787   9.572  0.0283 -0.0703  0.1256
  198loPI   GL2 3158   3.249  10.567   9.329 -0.0451 -0.5651 -0.2327
  198loPI   C1A 3159   2.799  11.023   9.180 -0.0778  0.0988  0.2550
  198loPI   C2A 3160   2.893  10.991   8.750  0.5444 -0.1379 -0.2193
  198loPI   C3A 3161   2.989  11.022   8.434  0.4324 -0.2698  0.2443
  198loPI   C4A 3162   3.165  11.301   8.148  0.2534  0.1020  0.1330
  198loPI   C5A 3163   3.325  11.304   7.795 -0.0826  0.1722 -0.0494
  198loPI   C6A 3164   3.300  11.252   7.371  0.1820 -0.2787  0.2874
  198loPI   C1B 3165   3.314  10.680   8.874 -0.2573  0.1763 -0.0825
  198loPI   C2B 3166   3.367  10.779   8.457 -0.1388  0.1252  0.3795
  198loPI   C3B 3167   3.472  10.662   8.076  0.3861  0.0858 -0.0560
  198loPI   C4B 3168   3.803  10.456   7.788  0.3584  0.1321  0.1130
  199loPI    C1 3169  12.189  11.456  10.502 -0.1298 -0.0536  0.2028
  199loPI    C2 3170  12.493  11.675  10.643 -0.0121  0.0874 -0.2524
  199loPI    C3 3171  12.309  11.412  10.881  0.2678  0.2154  0.1153
  199loPI   PO4 3172  12.058  11.654  10.360 -0.1971  0.0811  0.2067
  199loPI   GL1 3173  11.785  11.905  10.041 -0.0357  0.1325  0.1390
  199loPI   GL2 3174  11.853  12.259  10.050  0.0061 -0.2889 -0.1037
  199loPI   C1A 3175  11.801  11.754   9.569  0.0251 -0.0116 -0.4182
  199loPI   C2A 3176  11.849  11.906   9.251 -0.0490 -0.0219 -0.0598
  199loPI   C3A 3177  12.005  12.091   8.854 -0.2389  0.0039  0.1167
  199loPI   C4A 3178  12.081  12.383   8.534  0.3481 -0.2357 -0.0072
  199loPI   C5A 3179  12.302  12.366   8.110  0.2390 -0.1961  0.0992
  199loPI   C6A 3180  12.708  12.536   7.843  0.2320  0.1429 -0.1540
  199loPI   C1B 3181  11.900  12.261   9.604 -0.0922 -0.0830 -0.3306
  199loPI   C2B 3182  11.605  12.366   9.268  0.0746 -0.0391 -0.0836
  199loPI   C3B 3183  11.601  12.566   8.755  0.0786 -0.3845  0.3463
  199loPI   C4B 3184  11.607  12.788   8.349  0.5292 -0.1130 -0.0550
  200loPI    C1 3185   6.440  18.067  10.767 -0.1280 -0.1017 -0.1969
  200loPI    C2 3186   6.054  18.025  10.861 -0.0621 -0.0208  0.1226
  200loPI    C3 3187   6.334  17.850  11.086  0.0963  0.0650 -0.0061
  200loPI   PO4 3188   6.350  18.133  10.425 -0.1417  0.0656 -0.1092
  200loPI   GL1 3189   6.415  17.890  10.050 -0.1453  0.0334  0.0318
  200loPI   GL2 3190   6.509  17.568  10.031  0.1784  0.3138  0.1849
  200loPI   C1A 3191   6.150  17.792   9.714  0.1897  0.0164  0.0573
  200loPI   C2A 3192   6.029  18.016   9.297  0.1208  0.2960  0.0802
  200loPI   C3A 3193   5.764  18.104   9.004  0.1850 -0.0815  0.0862
  200loPI   C4A 3194   5.934  18.302   8.549 -0.6306 -0.0726 -0.3659
  200loPI   C5A 3195   6.179  18.223   8.208 -0.0091  0.1966  0.3412
  200loPI   C6A 3196   6.499  18.482   7.991 -0.1748 -0.1864  0.0178
  200loPI   C1B 3197   6.623  17.652   9.610  0.2636 -0.1895  0.4502
  200loPI   C2B 3198   6.716  17.794   9.293 -0.2116  0.2023  0.1754
  200loPI   C3B 3199   6.525  18.133   9.152 -0.0797  0.1435 -0.2223
  200loPI   C4B 3200   6.195  18.289   8.926  0.1868 -0.3670  0.1189
  201loPI    C1 3201  10.630   9.958  10.252 -0.3328 -0.0123 -0.1501
  201loPI    C2 3202  10.337  10.227  10.294 -0.2056  0.0739  0.2238
  201loPI    C3 3203  10.420   9.973  10.592  0.0017 -0.0503  0.0631
  201loPI   PO4 3204  10.718  10.043  10.011  0.0898 -0.2315  0.1033
  201loPI   GL1 3205  10.666  10.252   9.646 -0.0464  0.0490  0.0004
  201loPI   GL2 3206  10.711  10.565   9.436 -0.1450  0.0658 -0.1644
  201loPI   C1A 3207  10.689  10.053   9.275  0.0438 -0.0960  0.0186
  201loPI   C2A 3208  10.517  10.156   8.887 -0.3588 -0.0551 -0.0361
  201loPI   C3A 3209  10.510  10.050   8.468  0.5119  0.1311  0.0914
  201loPI   C4A 3210  10.747  10.233   8.119  0.3282  0.0589  0.1747
  201loPI   C5A 3211  10.857  10.559   7.827  0.0353 -0.1086  0.2174
  201loPI   C6A 3212  11.207  10.699   7.998  0.1321  0.2282  0.0537
  201loPI   C1B 3213  10.419  10.600   9.075 -0.2200 -0.3625  0.1237
  201loPI   C2B 3214  10.386  10.579   8.684  0.0513  0.1413 -0.1909
  201loPI   C3B 3215  10.255  10.445   8.249 -0.1108 -0.0708  0.0798
  201loPI   C4B 3216  10.190  10.027   7.996 -0.1407 -0.2095  0.0609
  202loPI    C1 3217  16.368   2.346  10.205 -0.0309 -0.0521  0.1854
  202loPI    C2 3218  16.463   2.691  10.027 -0.1837 -0.0993  0.0094
  202loPI    C3 3219  16.506   2.651  10.423  0.1317  0.0165 -0.0108
  202loPI   PO4 3220  16.239   2.177   9.955 -0.0674 -0.3549  0.0051
  202loPI   GL1 3221  15.855   2.110   9.781  0.3939 -0.0214 -0.1044
  202loPI   GL2 3222  15.619   1.802   9.836  0.0032 -0.0113 -0.3143
  202loPI   C1A 3223  16.052   2.158   9.355  0.1595 -0.0259 -0.1410
  202loPI   C2A 3224  16.030   2.333   8.998  0.1067 -0.3711 -0.1227
  202loPI   C3A 3225  16.067   2.320   8.602 -0.0026  0.0886  0.1342
  202loPI   C4A 3226  15.943   2.470   8.182 -0.0189  0.0824  0.3327
  202loPI   C5A 3227  15.542   2.498   7.992  0.1625  0.1734 -0.2549
  202loPI   C6A 3228  15.147   2.369   8.216  0.1071 -0.2089 -0.0047
  202loPI   C1B 3229  15.544   1.881   9.350 -0.0078  0.1584  0.1788
  202loPI   C2B 3230  15.346   1.797   8.903 -0.1213  0.1747  0.2478
  202loPI   C3B 3231  15.334   1.946   8.503  0.0459  0.1835  0.1521
  202loPI   C4B 3232  14.997   1.909   8.240  0.0704  0.0347 -0.0545
  203loPI    C1 3233   7.232   9.674  10.340  0.2912  0.2078 -0.0975
  203loPI    C2 3234   6.852   9.764  10.427  0.2903  0.2045 -0.0980
  203loPI    C3 3235   7.068   9.541  10.680  0.3133  0.2646 -0.0645
  203loPI   PO4 3236   7.294   9.551  10.113 -0.0295  0.2723  0.2851
  203loPI   GL1 3237   7.201   9.397   9.665  0.0385 -0.1341  0.0998
  203loPI   GL2 3238   7.421   9.520   9.624  0.1257 -0.3373 -0.0071
  203loPI   C1A 3239   7.217   9.225   9.286 -0.0265  0.0968 -0.2037
  203loPI   C2A 3240   7.328   9.012   8.950  0.1890  0.1761 -0.0847
  203loPI   C3A 3241   7.130   8.970   8.617 -0.2556 -0.0358 -0.1794
  203loPI   C4A 3242   7.204   8.637   8.376  0.0804  0.2838  0.1520
  203loPI   C5A 3243   7.072   8.419   8.050  0.0345 -0.0720 -0.0887
  203loPI   C6A 3244   7.129   7.984   7.905 -0.2952  0.2532 -0.0567
  203loPI   C1B 3245   7.383   9.688   9.126 -0.0003  0.0010  0.0406
  203loPI   C2B 3246   7.332   9.570   8.685 -0.0727  0.0754 -0.2361
  203loPI   C3B 3247   7.376   9.348   8.372  0.1076 -0.2285  0.3406
  203loPI   C4B 3248   7.236   9.262   8.048  0.0457  0.2016  0.1201
  204loPI    C1 3249   2.687  13.486   9.875  0.1008 -0.2323  0.0540
  204loPI    C2 3250   2.444  13.424  10.186  0.0205  0.0299  0.0457
  204loPI    C3 3251   2.743  13.169  10.113 -0.1583 -0.2128  0.1442
  204loPI   PO4 3252   2.808  13.714   9.860 -0.1543 -0.3258  0.0493
  204loPI   GL1 3253   3.108  13.918   9.596  0.3143  0.4467 -0.0923
  204loPI   GL2 3254   2.817  14.069   9.451  0.2931 -0.0154 -0.0527
  204loPI   C1A 3255   3.284  13.573   9.207  0.1885  0.1504  0.0308
  204loPI   C2A 3256   3.189  13.605   8.724 -0.1544  0.0410 -0.3916
  204loPI   C3A 3257   3.354  13.619   8.414 -0.0766 -0.1574  0.3045
  204loPI   C4A 3258   3.485  13.717   8.009  0.0192 -0.2027 -0.1532
  204loPI   C5A 3259   3.521  13.399   7.693  0.2734 -0.1990  0.0090
  204loPI   C6A 3260   3.219  12.991   7.480 -0.0109 -0.1805 -0.1857
  204loPI   C1B 3261   2.964  13.941   9.043  0.2889  0.2223  0.0364
  204loPI   C2B 3262   2.958  14.123   8.669  0.1772  0.3327  0.0953
  204loPI   C3B 3263   2.954  14.170   8.247 -0.0475  0.0219  0.0565
  204loPI   C4B 3264   3.145  14.162   7.919 -0.0656  0.0598  0.0715
  205loPI    C1 3265   4.716   6.036  10.325  0.0594  0.0247  0.1437
  205loPI    C2 3266   4.862   6.336  10.105 -0.1632 -0.1239 -0.2145
  205loPI    C3 3267   4.524   6.387  10.313  0.0623  0.0255  0.1243
  205loPI   PO4 3268   4.762   5.810  10.202 -0.1864  0.0492  0.0508
  205loPI   GL1 3269   4.725   5.735   9.866 -0.2692 -0.1514  0.0640
  205loPI   GL2 3270   4.441   5.673   9.870  0.1052 -0.0501  0.0150
  205loPI   C1A 3271   4.817   5.782   9.446  0.0218  0.0884 -0.1530
  205loPI   C2A 3272   4.648   5.683   9.042  0.2053  0.2398 -0.1554
  205loPI   C3A 3273   4.279   5.614   8.733 -0.1576 -0.1385 -0.1571
  205loPI   C4A 3274   4.076   5.627   8.435 -0.1374 -0.0674  0.1645
  205loPI   C5A 3275   3.912   5.612   8.058  0.0833  0.2496  0.1610
  205loPI   C6A 3276   3.748   5.992   7.794 -0.4792  0.1022 -0.0968
  205loPI   C1B 3277   4.410   5.405   9.473  0.1998  0.1302  0.1268
  205loPI   C2B 3278   4.443   5.136   9.082 -0.4865  0.2479 -0.6229
  205loPI   C3B 3279   4.383   5.042   8.593 -0.0161 -0.0077 -0.3031
  205loPI   C4B 3280   4.443   5.296   8.206 -0.0748 -0.3172 -0.1570
  206loPI    C1 3281  14.193  18.599  10.620  0.0880  0.1583 -0.1794
  206loPI    C2 3282  14.277  18.240  10.774 -0.1460  0.1479 -0.0701
  206loPI    C3 3283  14.488  18.560  10.887  0.0145  0.0585 -0.1118
  206loPI   PO4 3284  14.202  18.590  10.378  0.2105 -0.1990 -0.1757
  206loPI   GL1 3285  14.085  18.931  10.018 -0.4083 -0.2595 -0.1607
  206loPI   GL2 3286  14.033  18.721   9.800  0.1155 -0.1108  0.2508
  206loPI   C1A 3287  14.190  19.181   9.598 -0.1298  0.1192 -0.0388
  206loPI   C2A 3288  14.254  19.281   9.261  0.1340  0.1090  0.2282
  206loPI   C3A 3289  14.077  19.199   8.836  0.0225  0.0098 -0.0411
  206loPI   C4A 3290  13.988  19.518   8.502 -0.0028 -0.0582  0.0362
  206loPI   C5A 3291  14.203  19.793   8.140 -0.0904 -0.3120 -0.2158
  206loPI   C6A 3292  13.998  20.221   7.947 -0.2076  0.0956  0.1350
  206loPI   C1B 3293  13.764  18.927   9.597 -0.2704  0.0058 -0.0695
  206loPI   C2B 3294  13.763  18.838   9.185  0.0120 -0.1263  0.0635
  206loPI   C3B 3295  13.655  18.616   8.811 -0.0863 -0.3882  0.0923
  206loPI   C4B 3296  13.331  18.702   8.481  0.4446 -0.1854 -0.0044
  207loPI    C1 3297  17.910   0.481  10.463 -0.0459  0.0119  0.2843
  207loPI    C2 3298  17.697   0.792  10.597  0.0251  0.0881  0.2215
  207loPI    C3 3299  17.799   0.497  10.847 -0.4118 -0.1001  0.1877
  207loPI   PO4 3300  17.750   0.536  10.169  0.1057  0.1885 -0.0966
  207loPI   GL1 3301  17.832   0.602   9.723 -0.1183  0.0005  0.1417
  207loPI   GL2 3302  17.824   0.925   9.821  0.2405 -0.1954  0.0731
  207loPI   C1A 3303  17.839   0.369   9.272  0.2587 -0.0413 -0.1752
  207loPI   C2A 3304  17.847   0.440   8.776  0.0438  0.2297 -0.0314
  207loPI   C3A 3305  17.928   0.245   8.413 -0.0308 -0.2989  0.1938
  207loPI   C4A 3306  18.197  -0.075   8.311  0.0338 -0.1153  0.1123
  207loPI   C5A 3307  18.561  -0.029   8.038  0.2002  0.0617  0.1849
  207loPI   C6A 3308  18.665  -0.045   7.591  0.1803  0.0263 -0.2001
  207loPI   C1B 3309  17.948   1.174   9.361  0.2065 -0.2150 -0.1674
  207loPI   C2B 3310  18.283   1.375   9.051 -0.0571  0.0911 -0.0238
  207loPI   C3B 3311  18.251   1.552   8.681  0.0804 -0.0746 -0.1871
  207loPI   C4B 3312  18.099   1.909   8.413 -0.0758 -0.3699  0.2918
  208loPI    C1 3313   2.784  10.001  10.152  0.0725  0.0319  0.0239
  208loPI    C2 3314   3.068   9.907  10.418 -0.0466 -0.1352  0.0942
  208loPI    C3 3315   2.720   9.709  10.419 -0.1832  0.1003  0.0404
  208loPI   PO4 3316   3.004  10.037   9.933 -0.1809  0.2685  0.0980
  208loPI   GL1 3317   3.039  10.197   9.524  0.1508  0.2300 -0.1053
  208loPI   GL2 3318   3.051   9.738   9.424 -0.1052 -0.1714  0.0625
  208loPI   C1A 3319   3.071  10.186   9.093  0.2465 -0.2202  0.0330
  208loPI   C2A 3320   3.175  10.114   8.690  0.2038  0.2977 -0.0333
  208loPI   C3A 3321   3.210  10.154   8.265  0.2064 -0.1196 -0.3526
  208loPI   C4A 3322   3.248  10.276   7.858 -0.2252  0.1165 -0.1890
  208loPI   C5A 3323   3.379  10.464   7.547  0.2138 -0.1032 -0.0600
  208loPI   C6A 3324   3.608  10.899   7.614  0.3067  0.0327 -0.0400
  208loPI   C1B 3325   2.837   9.675   8.997 -0.0264 -0.1074 -0.1876
  208loPI   C2B 3326   3.069   9.557   8.719 -0.1874 -0.0500  0.2082
  208loPI   C3B 3327   3.092   9.225   8.325  0.0593  0.1948  0.0606
  208loPI   C4B 3328   3.306   9.082   7.893 -0.0883  0.0831 -0.0361
  209loPI    C1 3329  11.760   7.722  10.184 -0.0689 -0.0031  0.0413
  209loPI    C2 3330  11.594   8.027   9.986  0.1129  0.1349  0.0989
  209loPI    C3 3331  11.463   7.932  10.352  0.2048  0.2877  0.1726
  209loPI   PO4 3332  12.012   7.733  10.093  0.2243  0.0023  0.2232
  209loPI   GL1 3333  12.230   7.423   9.777  0.0770  0.2031  0.1485
  209loPI   GL2 3334  11.883   7.425   9.746 -0.1316  0.1558  0.0436
  209loPI   C1A 3335  12.268   7.734   9.421  0.4817  0.1006  0.2649
  209loPI   C2A 3336  12.192   7.973   9.139  0.1146 -0.0458 -0.2985
  209loPI   C3A 3337  12.158   8.252   8.892 -0.0519  0.0505  0.5267
  209loPI   C4A 3338  11.949   8.226   8.529 -0.0307 -0.0438  0.2886
  209loPI   C5A 3339  11.587   7.896   8.488 -0.2473 -0.2521 -0.1735
  209loPI   C6A 3340  11.303   7.862   8.681  0.1955 -0.1770 -0.2305
  209loPI   C1B 3341  12.121   7.320   9.230  0.3136 -0.1380 -0.0314
  209loPI   C2B 3342  12.360   7.521   8.921 -0.1895  0.3369 -0.3139
  209loPI   C3B 3343  12.360   7.836   8.514  0.0534 -0.1233  0.0947
  209loPI   C4B 3344  12.407   8.351   8.480 -0.0424 -0.1759 -0.1564
  210loPI    C1 3345   1.429  11.179   9.697 -0.0070  0.0474 -0.1096
  210loPI    C2 3346   1.168  11.045   9.969 -0.1000  0.1321 -0.1566
  210loPI    C3 3347   1.547  11.119  10.075 -0.0263 -0.2404 -0.1471
  210loPI   PO4 3348   1.328  11.373   9.490  0.4041  0.0707 -0.2672
  210loPI   GL1 3349   1.049  11.561   9.199 -0.3938 -0.0359  0.1111
  210loPI   GL2 3350   0.714  11.424   9.159 -0.0336 -0.0843  0.0413
  210loPI   C1A 3351   1.049  11.440   8.769  0.0123  0.3603  0.0335
  210loPI   C2A 3352   1.028  11.485   8.413 -0.2462 -0.1769 -0.0053
  210loPI   C3A 3353   0.996  11.864   8.133 -0.1409  0.3803  0.2280
  210loPI   C4A 3354   1.162  12.150   7.878  0.0197 -0.1417 -0.3514
  210loPI   C5A 3355   1.117  12.387   7.509  0.2292  0.0498  0.3438
  210loPI   C6A 3356   0.870  12.625   7.261  0.1576 -0.0551  0.1748
  210loPI   C1B 3357   0.450  11.587   8.716  0.1834 -0.1555 -0.0474
  210loPI   C2B 3358   0.547  11.718   8.289  0.0210 -0.0870 -0.1083
  210loPI   C3B 3359   0.451  11.654   7.802 -0.0547  0.0906 -0.0353
  210loPI   C4B 3360   0.182  11.373   7.566  0.1234  0.2681 -0.2166
  211loPI    C1 3361  10.930   6.551  10.561 -0.1305 -0.1046 -0.1018
  211loPI    C2 3362  10.892   6.178  10.422  0.3279 -0.1043 -0.2427
  211loPI    C3 3363  10.983   6.240  10.806  0.1222 -0.1322 -0.1886
  211loPI   PO4 3364  11.015   6.700  10.304 -0.1993  0.0890  0.0336
  211loPI   GL1 3365  11.176   6.673   9.878 -0.1532 -0.4018 -0.2086
  211loPI   GL2 3366  11.528   6.519   9.758 -0.0374  0.0762 -0.0225
  211loPI   C1A 3367  11.054   6.794   9.462  0.1508 -0.0459 -0.2497
  211loPI   C2A 3368  11.077   6.865   9.093  0.0529 -0.2624  0.0748
  211loPI   C3A 3369  11.139   6.896   8.732  0.2208  0.1134 -0.2104
  211loPI   C4A 3370  11.384   7.173   8.493  0.2199  0.0325  0.1036
  211loPI   C5A 3371  11.624   7.407   8.267 -0.0112  0.0769 -0.0241
  211loPI   C6A 3372  11.655   7.435   7.815 -0.2593 -0.1433 -0.2190
  211loPI   C1B 3373  11.482   6.473   9.258 -0.2905 -0.1183 -0.0814
  211loPI   C2B 3374  11.485   6.490   8.805 -0.1650  0.2154 -0.1310
  211loPI   C3B 3375  11.444   6.647   8.428 -0.0990  0.2263 -0.2135
  211loPI   C4B 3376  11.031   6.778   8.239 -0.0972  0.1580  0.0677
  212loPI    C1 3377  14.119   6.390   9.935 -0.0006 -0.2495 -0.1609
  212loPI    C2 3378  14.220   6.206  10.276  0.0466 -0.1243 -0.1068
  212loPI    C3 3379  13.921   6.472  10.273  0.0225 -0.1520 -0.1708
  212loPI   PO4 3380  14.339   6.414   9.785  0.0499 -0.1977 -0.0701
  212loPI   GL1 3381  14.467   6.418   9.345 -0.2037 -0.0773  0.1473
  212loPI   GL2 3382  14.581   6.737   9.459  0.1359 -0.0068  0.0104
  212loPI   C1A 3383  14.414   6.582   8.871 -0.4067  0.1081  0.2469
  212loPI   C2A 3384  14.578   6.864   8.567  0.0964 -0.1782 -0.1344
  212loPI   C3A 3385  14.631   7.089   8.192 -0.0919  0.0103 -0.1740
  212loPI   C4A 3386  14.376   6.791   7.879 -0.2091  0.0976  0.0095
  212loPI   C5A 3387  14.282   6.509   7.546  0.0112  0.0714 -0.1624
  212loPI   C6A 3388  14.029   6.085   7.482  0.0821 -0.1774 -0.1260
  212loPI   C1B 3389  14.733   6.987   9.063  0.1997 -0.1271 -0.0460
  212loPI   C2B 3390  15.019   7.175   8.672  0.0773  0.0371 -0.0381
  212loPI   C3B 3391  14.962   7.503   8.352  0.1007 -0.0342 -0.1167
  212loPI   C4B 3392  14.628   7.556   8.044  0.0416 -0.0530  0.2171
  213loPI    C1 3393   8.509   4.728  10.530  0.1450  0.1152 -0.0422
  213loPI    C2 3394   8.215   4.999  10.528 -0.3322 -0.3846 -0.1768
  213loPI    C3 3395   8.313   4.813  10.868  0.1096  0.0610 -0.0489
  213loPI   PO4 3396   8.696   4.797  10.453  0.0267 -0.0788 -0.0295
  213loPI   GL1 3397   8.704   4.678   9.997 -0.1856  0.0173  0.2449
  213loPI   GL2 3398   8.413   4.782   9.949 -0.0895 -0.2483 -0.2734
  213loPI   C1A 3399   8.653   4.674   9.500 -0.2792 -0.0017 -0.4771
  213loPI   C2A 3400   8.797   4.613   9.130 -0.0327 -0.2900  0.2403
  213loPI   C3A 3401   8.669   4.679   8.766  0.2149  0.2949  0.1852
  213loPI   C4A 3402   8.441   5.028   8.650  0.1004  0.2242  0.0638
  213loPI   C5A 3403   8.401   5.443   8.293 -0.2167  0.3995  0.0614
  213loPI   C6A 3404   8.746   5.608   8.046 -0.0135  0.1304 -0.2155
  213loPI   C1B 3405   8.610   5.166   9.712 -0.0467 -0.0390  0.0066
  213loPI   C2B 3406   8.889   5.380   9.667 -0.2597 -0.0204  0.3094
  213loPI   C3B 3407   9.135   5.476   9.301 -0.0105 -0.0297  0.2549
  213loPI   C4B 3408   9.152   5.561   8.888 -0.1121  0.2129 -0.0647
  214loPI    C1 3409   9.701   8.852  10.262  0.1290 -0.2003 -0.0660
  214loPI    C2 3410   9.861   8.696  10.594 -0.1550 -0.1711  0.0879
  214loPI    C3 3411   9.668   8.460  10.335 -0.2102 -0.1446  0.1044
  214loPI   PO4 3412   9.882   8.997  10.118 -0.2539  0.0882  0.1041
  214loPI   GL1 3413  10.124   9.198   9.850 -0.0415 -0.3952 -0.2467
  214loPI   GL2 3414  10.216   9.455   9.795 -0.0321 -0.3502 -0.0254
  214loPI   C1A 3415   9.970   8.963   9.476  0.1822 -0.1767  0.1732
  214loPI   C2A 3416   9.860   8.823   9.159  0.0046  0.1348  0.0715
  214loPI   C3A 3417   9.659   8.726   8.681  0.0998 -0.2317 -0.1798
  214loPI   C4A 3418   9.726   8.967   8.344  0.0078  0.1267  0.0110
  214loPI   C5A 3419   9.710   9.143   7.888  0.2043 -0.1761  0.1098
  214loPI   C6A 3420   9.515   8.891   7.637 -0.0599 -0.1129  0.1490
  214loPI   C1B 3421  10.168   9.560   9.341  0.2118  0.1098  0.1566
  214loPI   C2B 3422  10.086   9.673   8.952  0.0469  0.1123 -0.3549
  214loPI   C3B 3423   9.997   9.718   8.527  0.0381 -0.2696 -0.4956
  214loPI   C4B 3424   9.863  10.029   8.347 -0.2416  0.0465  0.3276
  215loPI    C1 3425   8.894   9.241  10.228 -0.0763  0.0309  0.0497
  215loPI    C2 3426   8.627   9.392   9.970 -0.0517 -0.2309 -0.1330
  215loPI    C3 3427   8.504   9.162  10.274 -0.0880  0.1376  0.1385
  215loPI   PO4 3428   9.031   9.042  10.129 -0.2478 -0.0495  0.2155
  215loPI   GL1 3429   9.110   8.846   9.756 -0.0904  0.2387  0.1991
  215loPI   GL2 3430   9.027   8.601   9.621 -0.2276  0.0361  0.1359
  215loPI   C1A 3431   9.390   8.958   9.374 -0.2198 -0.1520  0.1407
  215loPI   C2A 3432   9.321   8.921   9.015 -0.1704 -0.1095  0.0856
  215loPI   C3A 3433   9.346   9.133   8.701 -0.3024 -0.0045  0.1094
  215loPI   C4A 3434   9.169   9.426   8.481 -0.0611  0.0630 -0.2243
  215loPI   C5A 3435   8.888   9.396   8.104 -0.0127 -0.2307 -0.0764
  215loPI   C6A 3436   8.570   9.619   8.041  0.1607 -0.0507 -0.1391
  215loPI   C1B 3437   8.968   8.622   9.181 -0.0901  0.2626  0.0855
  215loPI   C2B 3438   9.028   8.528   8.782 -0.1121 -0.1381  0.1160
  215loPI   C3B 3439   9.255   8.674   8.479  0.1310  0.2475 -0.0117
  215loPI   C4B 3440   9.265   9.059   8.162  0.0430 -0.0647 -0.1164
  216loPI    C1 3441  10.436  16.151  10.668 -0.0930  0.2219  0.1639
  216loPI    C2 3442  10.403  16.443  10.938  0.0246  0.0531  0.3640
  216loPI    C3 3443  10.602  16.109  11.029  0.0647 -0.0064  0.0677
  216loPI   PO4 3444  10.523  16.170  10.420 -0.2151 -0.1913  0.0552
  216loPI   GL1 3445  10.926  16.305  10.228  0.4747 -0.2604  0.2489
  216loPI   GL2 3446  10.731  16.530  10.119  0.1075 -0.4691  0.2151
  216loPI   C1A 3447  11.109  16.511   9.873  0.1325  0.0499  0.2367
  216loPI   C2A 3448  11.333  16.500   9.438  0.3977  0.2580 -0.1905
  216loPI   C3A 3449  11.503  16.733   9.139 -0.0221  0.0437  0.3920
  216loPI   C4A 3450  11.211  16.970   8.788  0.0848 -0.0868 -0.1051
  216loPI   C5A 3451  11.154  17.245   8.534  0.0173  0.0625  0.0258
  216loPI   C6A 3452  10.939  17.529   8.175 -0.0273  0.0573  0.2268
  216loPI   C1B 3453  10.635  16.199   9.736  0.2981  0.1809  0.0437
  216loPI   C2B 3454  10.458  16.261   9.327  0.2818 -0.0569 -0.0196
  216loPI   C3B 3455  10.591  16.156   8.858 -0.0500  0.0078 -0.2368
  216loPI   C4B 3456  10.519  15.996   8.476 -0.1615 -0.3217 -0.0671
  217loPI    C1 3457   2.261  17.057  10.383 -0.1564 -0.1005  0.0957
  217loPI    C2 3458   2.235  16.767  10.658 -0.2549 -0.0316  0.1600
  217loPI    C3 3459   2.283  17.147  10.773  0.1903 -0.0547  0.0687
  217loPI   PO4 3460   2.515  16.893  10.221 -0.1196 -0.0199  0.1226
  217loPI   GL1 3461   2.540  16.901   9.753 -0.3091  0.1510  0.0997
  217loPI   GL2 3462   2.461  17.187   9.469  0.0532  0.3169 -0.0150
  217loPI   C1A 3463   2.844  16.879   9.320  0.1548  0.0680 -0.2241
  217loPI   C2A 3464   2.722  17.144   8.970  0.1844 -0.2670  0.0471
  217loPI   C3A 3465   2.927  17.530   8.842  0.0387  0.0362 -0.1575
  217loPI   C4A 3466   3.347  17.797   8.790  0.1446 -0.0173  0.0767
  217loPI   C5A 3467   3.602  17.976   8.499 -0.0580 -0.1551  0.0393
  217loPI   C6A 3468   3.854  18.190   8.052  0.0395 -0.0426 -0.1025
  217loPI   C1B 3469   2.117  17.231   9.129 -0.2762  0.1061  0.1436
  217loPI   C2B 3470   1.814  17.087   8.771  0.1373 -0.2185  0.2593
  217loPI   C3B 3471   1.536  16.899   8.443  0.1722  0.0007  0.1019
  217loPI   C4B 3472   1.244  16.785   8.070  0.1470 -0.1351 -0.0655
  218loPI    C1 3473  15.181  14.730  10.529 -0.2685  0.2448 -0.0999
  218loPI    C2 3474  15.313  14.901  10.865 -0.0599 -0.2293  0.0686
  218loPI    C3 3475  15.282  14.503  10.842 -0.4478 -0.1838 -0.3430
  218loPI   PO4 3476  15.009  14.912  10.454 -0.0318  0.1268  0.0860
  218loPI   GL1 3477  14.806  15.079  10.147  0.1440 -0.2692  0.1567
  218loPI   GL2 3478  15.135  15.194   9.936 -0.0721  0.2191  0.2057
  218loPI   C1A 3479  14.634  15.260   9.792 -0.4202 -0.0648 -0.0946
  218loPI   C2A 3480  14.657  15.153   9.340 -0.0078 -0.3601  0.1094
  218loPI   C3A 3481  14.545  15.001   8.906  0.5714  0.0253 -0.1089
  218loPI   C4A 3482  14.368  15.166   8.462 -0.2020  0.2566  0.1485
  218loPI   C5A 3483  14.448  15.486   8.207 -0.1611  0.0324 -0.1550
  218loPI   C6A 3484  14.601  15.849   8.004  0.2494  0.2914 -0.2273
  218loPI   C1B 3485  15.117  15.264   9.536  0.4223 -0.5080  0.1226
  218loPI   C2B 3486  15.058  15.185   9.087  0.2539  0.1545  0.0380
  218loPI   C3B 3487  15.199  15.276   8.635  0.0167  0.0274  0.1580
  218loPI   C4B 3488  15.209  15.232   8.178 -0.0740  0.2742 -0.1021
  219loPI    C1 3489   3.481  11.528  10.006  0.0073  0.0314 -0.0521
  219loPI    C2 3490   3.601  11.252  10.269  0.1471  0.0704 -0.0741
  219loPI    C3 3491   3.214  11.347  10.242  0.0738 -0.2460 -0.1855
  219loPI   PO4 3492   3.487  11.467   9.764 -0.2464 -0.2533  0.1260
  219loPI   GL1 3493   3.550  11.667   9.364  0.3276  0.1317  0.1173
  219loPI   GL2 3494   3.822  11.404   9.414 -0.2398 -0.2327 -0.1081
  219loPI   C1A 3495   3.410  11.789   8.972 -0.4676 -0.1762 -0.1946
  219loPI   C2A 3496   3.472  12.197   8.715  0.0724  0.1139 -0.0788
  219loPI   C3A 3497   3.433  12.320   8.347  0.2389  0.3331 -0.1318
  219loPI   C4A 3498   3.467  12.336   7.864  0.0966 -0.0105  0.0050
  219loPI   C5A 3499   3.376  12.472   7.499 -0.0526  0.2650  0.1257
  219loPI   C6A 3500   3.011  12.596   7.314  0.2586 -0.0200  0.0434
  219loPI   C1B 3501   3.929  11.610   9.037  0.0848  0.0809  0.2340
  219loPI   C2B 3502   3.882  11.916   8.758  0.1018  0.0899  0.2358
  219loPI   C3B 3503   3.847  12.060   8.426  0.3412 -0.1211  0.0717
  219loPI   C4B 3504   3.899  12.382   8.155  0.0980  0.3442 -0.1308
  220loPI    C1 3505   2.727   6.272   9.740 -0.0531  0.1464  0.1339
  220loPI    C2 3506   2.448   6.558   9.765 -0.0478  0.1826 -0.1826
  220loPI    C3 3507   2.668   6.464  10.086 -0.1026  0.4796 -0.0552
  220loPI   PO4 3508   2.530   6.038   9.664 -0.1743  0.0998  0.0028
  220loPI   GL1 3509   2.549   5.690   9.391 -0.2165 -0.0715  0.0966
  220loPI   GL2 3510   2.884   5.725   9.489  0.1697  0.1792  0.0007
  220loPI   C1A 3511   2.374   5.805   8.909  0.0884  0.2236 -0.0418
  220loPI   C2A 3512   2.419   5.637   8.424  0.2165  0.1077  0.0393
  220loPI   C3A 3513   2.606   5.672   8.078  0.3900  0.2822 -0.0790
  220loPI   C4A 3514   2.915   5.899   7.863 -0.1411  0.0663 -0.0170
  220loPI   C5A 3515   3.232   6.251   7.852 -0.3447  0.3169 -0.0171
  220loPI   C6A 3516   3.435   6.473   7.498 -0.1794  0.1404 -0.0693
  220loPI   C1B 3517   2.928   5.663   8.972  0.2719 -0.1292 -0.0286
  220loPI   C2B 3518   2.919   5.568   8.533  0.3820 -0.1270 -0.1388
  220loPI   C3B 3519   3.051   5.408   8.320  0.0611 -0.2461 -0.1357
  220loPI   C4B 3520   2.998   5.247   7.988 -0.0619  0.0616  0.0196
  221loPI    C1 3521  16.276  18.455   9.985 -0.1544  0.0831  0.2313
  221loPI    C2 3522  15.974  18.367   9.738 -0.1280 -0.0124  0.2327
  221loPI    C3 3523  16.088  18.747   9.787 -0.1655  0.0117  0.1357
  221loPI   PO4 3524  16.351  18.177   9.996 -0.2205 -0.0065  0.1201
  221loPI   GL1 3525  16.461  17.865   9.574 -0.1946  0.0510  0.4249
  221loPI   GL2 3526  16.911  17.856   9.560  0.3238 -0.1751  0.4616
  221loPI   C1A 3527  16.401  17.665   9.216 -0.0684  0.0944 -0.0461
  221loPI   C2A 3528  16.253  17.657   8.803 -0.3447  0.0158  0.1107
  221loPI   C3A 3529  16.412  17.546   8.384 -0.2319  0.0468  0.4674
  221loPI   C4A 3530  16.440  17.496   7.936 -0.2514 -0.1048  0.2358
  221loPI   C5A 3531  16.634  17.666   7.645 -0.1077 -0.2091 -0.0317
  221loPI   C6A 3532  16.900  17.998   7.413 -0.0022  0.0229 -0.0281
  221loPI   C1B 3533  16.729  18.022   9.144  0.2755 -0.4515 -0.3109
  221loPI   C2B 3534  16.350  18.149   8.908 -0.0543  0.1040  0.1533
  221loPI   C3B 3535  16.222  18.145   8.539  0.0955  0.1172 -0.3990
  221loPI   C4B 3536  16.063  18.427   8.203 -0.4874  0.0251  0.1415
  222loPI    C1 3537  16.850   4.945   9.933 -0.0820  0.1133 -0.0640
  222loPI    C2 3538  17.146   5.123  10.135 -0.0263 -0.1556  0.0956
  222loPI    C3 3539  16.765   5.191  10.237 -0.0117  0.0047  0.0446
  222loPI   PO4 3540  16.904   5.028   9.689  0.2672  0.0704  0.2563
  222loPI   GL1 3541  16.708   5.004   9.310 -0.2918 -0.3232 -0.2908
  222loPI   GL2 3542  16.627   5.359   9.235 -0.0702 -0.1244  0.0806
  222loPI   C1A 3543  16.418   4.970   8.926  0.1378  0.1754 -0.1690
  222loPI   C2A 3544  16.392   4.894   8.537 -0.0497 -0.1003  0.2144
  222loPI   C3A 3545  16.389   4.721   8.199  0.0872  0.0851  0.3966
  222loPI   C4A 3546  16.155   4.791   7.696 -0.2269 -0.0386 -0.1733
  222loPI   C5A 3547  16.316   5.047   7.324 -0.0839  0.0236  0.1630
  222loPI   C6A 3548  16.285   5.140   6.884  0.3260  0.1113 -0.2794
  222loPI   C1B 3549  16.602   5.461   8.738 -0.0471 -0.1084  0.1343
  222loPI   C2B 3550  16.531   5.387   8.346  0.0408 -0.0484  0.1463
  222loPI   C3B 3551  16.544   5.410   7.942 -0.1878 -0.0209  0.1983
  222loPI   C4B 3552  16.654   5.427   7.577  0.1790 -0.0955 -0.1891
  223loPI    C1 3553  15.297   1.037  10.385  0.0338  0.4157  0.1533
  223loPI    C2 3554  15.412   0.733  10.618  0.0614  0.2036 -0.1320
  223loPI    C3 3555  15.612   1.079  10.628  0.3822  0.0249 -0.2138
  223loPI   PO4 3556  15.046   1.081  10.436  0.1394  0.1427  0.0439
  223loPI   GL1 3557  14.926   1.105  10.031 -0.0850  0.3341 -0.2275
  223loPI   GL2 3558  15.045   1.428  10.067  0.1800  0.1078 -0.3122
  223loPI   C1A 3559  14.838   1.199   9.638  0.2477  0.1254 -0.0576
  223loPI   C2A 3560  14.780   1.447   9.233 -0.2101  0.0470 -0.2043
  223loPI   C3A 3561  14.430   1.585   9.016  0.2102 -0.0907 -0.1905
  223loPI   C4A 3562  14.168   1.787   8.723  0.1470  0.0304  0.0548
  223loPI   C5A 3563  13.847   1.894   8.355  0.0720  0.0245 -0.2314
  223loPI   C6A 3564  13.577   1.836   7.985 -0.0226 -0.2497 -0.0986
  223loPI   C1B 3565  15.204   1.605   9.669  0.3130 -0.0231  0.0355
  223loPI   C2B 3566  15.278   1.490   9.323  0.0687  0.2907 -0.1112
  223loPI   C3B 3567  15.613   1.237   9.113  0.0449  0.1585  0.3244
  223loPI   C4B 3568  15.548   1.011   8.712 -0.1027 -0.0921  0.1121
  224loPI    C1 3569   7.508   2.919  10.712 -0.0236  0.1463  0.0728
  224loPI    C2 3570   7.720   3.051  11.024 -0.0188  0.2641  0.0204
  224loPI    C3 3571   7.351   3.190  10.960  0.1205  0.5243 -0.2391
  224loPI   PO4 3572   7.742   2.894  10.481 -0.0197  0.1014  0.0462
  224loPI   GL1 3573   7.863   2.902  10.087  0.0994  0.1548 -0.0514
  224loPI   GL2 3574   7.657   2.634   9.883  0.0409  0.0207 -0.0398
  224loPI   C1A 3575   7.772   3.023   9.611 -0.0701 -0.0628 -0.0594
  224loPI   C2A 3576   7.721   3.117   9.240  0.2547  0.1968  0.3636
  224loPI   C3A 3577   7.811   3.269   8.882  0.1519  0.2714  0.0553
  224loPI   C4A 3578   7.709   3.465   8.530  0.0923  0.1970 -0.2234
  224loPI   C5A 3579   7.850   3.698   8.074  0.0404 -0.1086  0.1778
  224loPI   C6A 3580   7.820   3.754   7.563 -0.0984 -0.0013  0.0428
  224loPI   C1B 3581   7.664   2.615   9.420 -0.3377  0.2428  0.0206
  224loPI   C2B 3582   7.730   2.487   9.050 -0.0081  0.0572 -0.1089
  224loPI   C3B 3583   7.545   2.384   8.615 -0.1477 -0.0358 -0.2774
  224loPI   C4B 3584   7.413   2.286   8.156 -0.0840 -0.1867  0.2476
  225loPI    C1 3585  10.919   1.703  10.688  0.1683 -0.1123  0.3387
  225loPI    C2 3586  10.995   1.959  10.986  0.0069  0.0266  0.2625
  225loPI    C3 3587  10.877   1.585  11.068 -0.0345  0.0633  0.3724
  225loPI   PO4 3588  11.235   1.805  10.538  0.3172 -0.0534 -0.1705
  225loPI   GL1 3589  11.195   1.597  10.174  0.0332  0.0724 -0.2087
  225loPI   GL2 3590  10.812   1.576  10.169 -0.0756  0.0040  0.0726
  225loPI   C1A 3591  11.119   1.459   9.722  0.1084 -0.0583  0.2692
  225loPI   C2A 3592  11.089   1.573   9.221 -0.1610 -0.2020  0.0587
  225loPI   C3A 3593  11.063   1.334   8.919  0.2189  0.0238  0.0166
  225loPI   C4A 3594  11.266   0.934   9.029 -0.0358 -0.0949  0.0928
  225loPI   C5A 3595  11.274   0.723   8.765  0.0317  0.1646 -0.0194
  225loPI   C6A 3596  11.222   0.900   8.371  0.1845 -0.1342 -0.1313
  225loPI   C1B 3597  10.532   1.153  10.238  0.3812  0.1232  0.0125
  225loPI   C2B 3598  10.458   0.775  10.128 -0.1973 -0.0435 -0.0596
  225loPI   C3B 3599  10.442   0.407   9.926 -0.1753  0.1173 -0.1513
  225loPI   C4B 3600  10.161   0.081   9.871  0.0049  0.1845  0.1351
  226loPI    C1 3601  18.569  15.964  10.537 -0.1625  0.2370  0.2142
  226loPI    C2 3602  18.600  15.585  10.662 -0.0950  0.2198  0.1457
  226loPI    C3 3603  18.816  15.872  10.838  0.3056  0.1339 -0.1886
  226loPI   PO4 3604  18.631  15.883  10.260  0.2753  0.1168 -0.1438
  226loPI   GL1 3605  18.543  15.900   9.862  0.1680 -0.1337  0.1525
  226loPI   GL2 3606  18.522  15.607   9.765 -0.2257  0.3683  0.3906
  226loPI   C1A 3607  18.460  16.064   9.421  0.0317  0.2732 -0.3383
  226loPI   C2A 3608  18.338  15.997   9.090 -0.2283  0.0282  0.1143
  226loPI   C3A 3609  18.491  16.143   8.792  0.1049  0.1146 -0.2564
  226loPI   C4A 3610  18.399  16.364   8.531 -0.3151 -0.0055  0.2664
  226loPI   C5A 3611  18.581  16.441   8.179 -0.0376 -0.1781 -0.1716
  226loPI   C6A 3612  18.972  16.330   7.944 -0.1063  0.3932  0.0991
  226loPI   C1B 3613  18.405  15.529   9.395  0.1452  0.3265 -0.0170
  226loPI   C2B 3614  18.449  15.531   8.982  0.1117  0.0136 -0.2745
  226loPI   C3B 3615  18.653  15.343   8.634 -0.1270  0.1316  0.0225
  226loPI   C4B 3616  18.911  15.057   8.260 -0.0929 -0.1398 -0.3369
  227loPI    C1 3617   3.003   5.147  10.218  0.4223 -0.0107  0.0116
  227loPI    C2 3618   2.934   5.228  10.603 -0.2690  0.1905 -0.1406
  227loPI    C3 3619   2.727   4.939  10.420 -0.0238  0.1706 -0.3923
  227loPI   PO4 3620   2.938   5.327  10.022 -0.0732  0.0178 -0.1137
  227loPI   GL1 3621   2.829   5.044   9.643 -0.2539 -0.0761 -0.2863
  227loPI   GL2 3622   2.478   5.188   9.498 -0.1294  0.1946 -0.0266
  227loPI   C1A 3623   2.972   5.267   9.259 -0.0443 -0.2555  0.1085
  227loPI   C2A 3624   2.930   5.078   8.733 -0.0346 -0.0307 -0.2406
  227loPI   C3A 3625   3.152   4.878   8.435 -0.1930  0.0112  0.2086
  227loPI   C4A 3626   3.211   4.694   7.994 -0.0483 -0.0237 -0.0876
  227loPI   C5A 3627   2.991   4.739   7.585  0.1024 -0.1605  0.0611
  227loPI   C6A 3628   2.661   4.677   7.192  0.0153 -0.0129 -0.3588
  227loPI   C1B 3629   2.547   5.219   9.047 -0.0723  0.1465 -0.4309
  227loPI   C2B 3630   2.470   5.217   8.635  0.4991  0.4407  0.1364
  227loPI   C3B 3631   2.654   5.141   8.292 -0.0535  0.0690  0.2421
  227loPI   C4B 3632   2.662   4.875   7.926 -0.0252  0.1742 -0.1712
  228loPI    C1 3633   5.737  14.602  10.397  0.0242 -0.1018  0.0627
  228loPI    C2 3634   5.683  14.952  10.581  0.0411 -0.0286 -0.0703
  228loPI    C3 3635   5.631  14.611  10.783  0.0060  0.0497  0.0548
  228loPI   PO4 3636   5.890  14.679  10.131  0.0786  0.2660  0.1531
  228loPI   GL1 3637   5.833  14.969   9.708 -0.1494  0.0050 -0.1248
  228loPI   GL2 3638   6.178  14.944   9.540  0.1459 -0.3125 -0.0789
  228loPI   C1A 3639   5.655  15.331   9.412  0.1630 -0.2166 -0.3559
  228loPI   C2A 3640   5.600  15.425   9.041  0.0618  0.0870  0.1652
  228loPI   C3A 3641   5.241  15.349   8.658 -0.0086 -0.3205  0.0249
  228loPI   C4A 3642   4.951  15.149   8.422 -0.0341 -0.0940 -0.2962
  228loPI   C5A 3643   4.607  15.110   8.030 -0.3515 -0.1245 -0.0770
  228loPI   C6A 3644   4.388  15.239   7.615 -0.2845 -0.0032 -0.0800
  228loPI   C1B 3645   5.962  14.984   9.167  0.0872 -0.1079  0.2143
  228loPI   C2B 3646   5.757  14.973   8.768 -0.0021 -0.1352 -0.0097
  228loPI   C3B 3647   5.645  15.217   8.422 -0.0469 -0.2873  0.0141
  228loPI   C4B 3648   5.957  15.458   8.072  0.2150 -0.2413 -0.0085
  229loPI    C1 3649  18.411  17.193  10.471 -0.0079  0.0590 -0.1137
  229loPI    C2 3650  18.676  16.895  10.495 -0.1833 -0.1061 -0.2050
  229loPI    C3 3651  18.291  16.828  10.580 -0.1754  0.1632  0.0580
  229loPI   PO4 3652  18.386  17.360  10.224  0.0852  0.0512  0.0336
  229loPI   GL1 3653  18.454  17.393   9.793 -0.0771 -0.0667 -0.2019
  229loPI   GL2 3654  18.117  17.269   9.720  0.1558 -0.2340 -0.0440
  229loPI   C1A 3655  18.419  17.853   9.677  0.0019  0.0780 -0.0467
  229loPI   C2A 3656  18.483  18.139   9.314 -0.4877  0.1469  0.0612
  229loPI   C3A 3657  18.626  18.149   8.856  0.0269 -0.2876 -0.2338
  229loPI   C4A 3658  18.667  18.249   8.392  0.1090  0.5156  0.2456
  229loPI   C5A 3659  18.842  17.907   8.059  0.0819 -0.1224 -0.3600
  229loPI   C6A 3660  18.983  17.621   7.718  0.1842  0.1602  0.0759
  229loPI   C1B 3661  18.471  17.116   9.401 -0.0567 -0.0795  0.0216
  229loPI   C2B 3662  18.661  17.185   8.955  0.0539 -0.2226 -0.1972
  229loPI   C3B 3663  18.874  17.298   8.556 -0.1444  0.0926 -0.1987
  229loPI   C4B 3664  18.771  17.444   8.181  0.1191 -0.0766  0.0258
  230loPI    C1 3665  12.960  18.381  11.072  0.1623  0.0587  0.0105
  230loPI    C2 3666  12.567  18.415  11.137  0.0995  0.1922 -0.4074
  230loPI    C3 3667  12.756  18.075  11.227 -0.1629  0.0337 -0.4459
  230loPI   PO4 3668  13.103  18.532  10.794 -0.1520  0.1876  0.4077
  230loPI   GL1 3669  13.093  18.338  10.456  0.0108 -0.2039  0.2022
  230loPI   GL2 3670  13.415  18.146  10.359 -0.1401  0.0860  0.0036
  230loPI   C1A 3671  13.069  18.258  10.013 -0.1383  0.1904  0.2080
  230loPI   C2A 3672  13.105  18.149   9.532 -0.3737 -0.0351 -0.0929
  230loPI   C3A 3673  12.972  17.814   9.232 -0.1520  0.1263  0.0376
  230loPI   C4A 3674  12.895  17.879   8.888  0.0846 -0.0560  0.1446
  230loPI   C5A 3675  12.699  18.133   8.592  0.3310  0.0174 -0.2445
  230loPI   C6A 3676  12.449  18.106   8.216 -0.1010 -0.1787 -0.0109
  230loPI   C1B 3677  13.437  17.907  10.076 -0.1829  0.1468 -0.1010
  230loPI   C2B 3678  13.184  17.612   9.815  0.0937 -0.2082  0.1613
  230loPI   C3B 3679  13.287  17.445   9.374  0.0201 -0.2033  0.1726
  230loPI   C4B 3680  13.139  17.337   8.960  0.4474 -0.0337 -0.2289
  231loPI    C1 3681  12.966   8.361  10.312  0.1573 -0.2202  0.0724
  231loPI    C2 3682  13.262   8.147  10.475  0.2630 -0.0105  0.1597
  231loPI    C3 3683  13.093   8.444  10.682  0.0786 -0.0446  0.0608
  231loPI   PO4 3684  13.061   8.392  10.052 -0.0989 -0.0779  0.1557
  231loPI   GL1 3685  13.336   8.518   9.705  0.1896  0.1811  0.1663
  231loPI   GL2 3686  13.046   8.623   9.568  0.4150 -0.0477  0.6887
  231loPI   C1A 3687  13.418   8.737   9.249 -0.0011  0.0040  0.2238
  231loPI   C2A 3688  13.328   8.941   8.868  0.0768 -0.0360  0.1176
  231loPI   C3A 3689  13.436   9.099   8.488 -0.1668  0.1087  0.0691
  231loPI   C4A 3690  13.497   8.800   8.115 -0.2333 -0.0933  0.1105
  231loPI   C5A 3691  13.864   8.722   7.926 -0.1850  0.2626 -0.4197
  231loPI   C6A 3692  14.278   8.541   7.806 -0.2760 -0.2596 -0.3227
  231loPI   C1B 3693  12.890   8.593   9.080  0.2341  0.1352 -0.1136
  231loPI   C2B 3694  12.851   8.839   8.749  0.0495  0.2328  0.0235
  231loPI   C3B 3695  12.950   9.051   8.413  0.0551  0.3732  0.1151
  231loPI   C4B 3696  12.827   9.355   8.185 -0.1421  0.0174 -0.1486
  232loPI    C1 3697  18.392   4.968   9.777 -0.0316 -0.1008  0.1274
  232loPI    C2 3698  18.159   5.237   9.595 -0.0946 -0.0997  0.2092
  232loPI    C3 3699  18.089   5.136   9.976 -0.0688 -0.2291  0.1803
  232loPI   PO4 3700  18.463   4.857   9.491  0.4053  0.0881  0.0455
  232loPI   GL1 3701  18.195   4.927   9.115 -0.1867  0.2014 -0.2759
  232loPI   GL2 3702  18.049   4.672   9.031  0.0457 -0.1204  0.1826
  232loPI   C1A 3703  18.463   4.834   8.742  0.1427 -0.0570 -0.1687
  232loPI   C2A 3704  18.404   4.781   8.322 -0.2847 -0.0271  0.0505
  232loPI   C3A 3705  18.605   4.815   8.035  0.1908 -0.0654  0.1640
  232loPI   C4A 3706  19.006   4.986   7.828 -0.1038 -0.0948 -0.0162
  232loPI   C5A 3707  19.229   5.192   7.606  0.1807 -0.0466  0.0806
  232loPI   C6A 3708  19.302   5.142   7.172 -0.0657 -0.0581  0.0039
  232loPI   C1B 3709  17.998   4.551   8.694 -0.1537 -0.2202  0.0444
  232loPI   C2B 3710  17.979   4.607   8.407  0.0406 -0.1802  0.0561
  232loPI   C3B 3711  18.188   4.625   7.882 -0.1347  0.1394 -0.1797
  232loPI   C4B 3712  18.623   4.589   7.621 -0.1250  0.0791 -0.0535
  233loPI    C1 3713  15.305  17.389  10.546 -0.1220  0.2372 -0.0419
  233loPI    C2 3714  15.613  17.141  10.486 -0.1853  0.1032  0.1766
  233loPI    C3 3715  15.582  17.343  10.830 -0.2444  0.2577  0.0818
  233loPI   PO4 3716  15.128  17.416  10.327  0.1224 -0.2132 -0.1297
  233loPI   GL1 3717  14.978  17.158   9.932  0.0811  0.0575 -0.1168
  233loPI   GL2 3718  14.739  17.437  10.007  0.0857 -0.0277  0.0470
  233loPI   C1A 3719  14.931  17.458   9.525 -0.2936  0.0439  0.2099
  233loPI   C2A 3720  14.803  17.550   9.134  0.2838  0.1434  0.0718
  233loPI   C3A 3721  14.690  17.565   8.718  0.2169 -0.0415 -0.0296
  233loPI   C4A 3722  14.520  17.801   8.369  0.0182  0.1769  0.0638
  233loPI   C5A 3723  14.193  17.735   8.039 -0.0783  0.0138  0.3522
  233loPI   C6A 3724  13.758  17.655   7.882  0.0191 -0.1360  0.0390
  233loPI   C1B 3725  14.468  17.357   9.583  0.1830 -0.3160  0.0713
  233loPI   C2B 3726  14.289  17.458   9.135  0.3077 -0.2918 -0.0257
  233loPI   C3B 3727  14.211  17.598   8.720 -0.1526  0.0854 -0.2157
  233loPI   C4B 3728  14.097  17.344   8.374 -0.0952  0.2458 -0.2977
  234loPI    C1 3729   7.162  12.114  10.237  0.0464 -0.1530 -0.1449
  234loPI    C2 3730   7.465  11.979  10.460 -0.0521  0.0745  0.1332
  234loPI    C3 3731   7.255  12.298  10.579 -0.1567  0.1544 -0.2499
  234loPI   PO4 3732   7.219  12.195   9.938 -0.0345  0.0358 -0.0224
  234loPI   GL1 3733   7.202  12.415   9.486 -0.2124  0.2224  0.3908
  234loPI   GL2 3734   7.109  12.120   9.344  0.2176  0.0678  0.3435
  234loPI   C1A 3735   7.199  12.603   9.125  0.2708  0.0659  0.1623
  234loPI   C2A 3736   7.281  12.765   8.757 -0.0794 -0.2518  0.0301
  234loPI   C3A 3737   7.356  12.886   8.350  0.1131 -0.1120 -0.1815
  234loPI   C4A 3738   7.484  13.038   7.931 -0.2111  0.3438  0.1080
  234loPI   C5A 3739   7.435  13.225   7.488  0.1058  0.0749 -0.2187
  234loPI   C6A 3740   7.372  13.628   7.294 -0.1177  0.2038  0.0411
  234loPI   C1B 3741   7.349  12.132   8.907 -0.3730 -0.0638 -0.3482
  234loPI   C2B 3742   7.234  12.285   8.581 -0.1882  0.0188 -0.1012
  234loPI   C3B 3743   7.239  12.163   8.133  0.1391 -0.0759  0.0535
  234loPI   C4B 3744   7.168  11.823   8.026  0.1072  0.2306  0.2176
  235loPI    C1 3745  16.492   0.352   9.979  0.1500  0.0007 -0.1000
  235loPI    C2 3746  16.866   0.452  10.078  0.1812 -0.1420 -0.0717
  235loPI    C3 3747  16.587   0.415  10.362  0.1258  0.0437 -0.1011
  235loPI   PO4 3748  16.587   0.171   9.781  0.2696  0.2249  0.1198
  235loPI   GL1 3749  16.431   0.011   9.454  0.0610  0.1263 -0.0080
  235loPI   GL2 3750  16.342  -0.341   9.427  0.0901  0.2217 -0.3284
  235loPI   C1A 3751  16.694   0.177   9.129  0.0993 -0.2936 -0.1538
  235loPI   C2A 3752  17.011   0.092   8.811 -0.0315 -0.2611 -0.1868
  235loPI   C3A 3753  17.038  -0.305   8.545 -0.0510  0.1714 -0.2270
  235loPI   C4A 3754  16.685  -0.461   8.274 -0.0325  0.2363  0.1366
  235loPI   C5A 3755  16.441  -0.623   8.007  0.1191  0.1521  0.6824
  235loPI   C6A 3756  16.326  -0.390   7.678  0.2036 -0.2881 -0.0217
  235loPI   C1B 3757  16.035  -0.136   9.251  0.1747  0.1303 -0.2929
  235loPI   C2B 3758  15.939  -0.148   8.788 -0.1609 -0.1488  0.0645
  235loPI   C3B 3759  15.666  -0.351   8.433 -0.0291  0.1201 -0.1419
  235loPI   C4B 3760  15.470  -0.658   8.301 -0.4006 -0.0854  0.3004
  236loPI    C1 3761  15.657   2.192  10.301 -0.0084 -0.0186  0.2832
  236loPI    C2 3762  15.995   2.229  10.511  0.1255  0.1735  0.0390
  236loPI    C3 3763  15.932   1.902  10.289  0.1711  0.1577  0.0493
  236loPI   PO4 3764  15.473   2.344  10.500  0.0145  0.3678  0.3316
  236loPI   GL1 3765  15.255   2.733  10.185 -0.2022  0.1615  0.1015
  236loPI   GL2 3766  15.315   2.772   9.967  0.2591 -0.1158 -0.2788
  236loPI   C1A 3767  15.453   2.326   9.871  0.1144  0.1390 -0.3801
  236loPI   C2A 3768  15.205   2.108   9.595  0.0235  0.0615  0.0672
  236loPI   C3A 3769  14.833   2.201   9.446 -0.0341  0.1781 -0.1692
  236loPI   C4A 3770  14.757   1.985   9.085 -0.0952  0.1827 -0.1508
  236loPI   C5A 3771  14.815   1.736   8.802  0.0777  0.0973  0.1780
  236loPI   C6A 3772  14.858   1.509   8.400  0.0836  0.1654 -0.2990
  236loPI   C1B 3773  15.586   2.936   9.671  0.1262 -0.0020 -0.2154
  236loPI   C2B 3774  15.518   2.979   9.252 -0.0818 -0.1070  0.4503
  236loPI   C3B 3775  15.517   3.207   8.868 -0.0291 -0.1157 -0.0270
  236loPI   C4B 3776  15.585   3.366   8.400  0.0090 -0.0689 -0.0720
  237loPI    C1 3777  14.715   8.123  10.121 -0.2356 -0.0973  0.0066
  237loPI    C2 3778  14.436   8.147  10.406 -0.1144  0.2623  0.1007
  237loPI    C3 3779  14.739   7.889  10.445 -0.3352 -0.0050  0.0814
  237loPI   PO4 3780  14.599   8.114   9.902 -0.0554  0.0015 -0.4166
  237loPI   GL1 3781  14.697   8.124   9.461 -0.1245  0.2279  0.1649
  237loPI   GL2 3782  14.616   7.885   9.441  0.2608 -0.5806  0.0649
  237loPI   C1A 3783  14.563   8.211   8.984  0.0802  0.2409 -0.0540
  237loPI   C2A 3784  14.407   8.188   8.590 -0.0233  0.4215  0.1507
  237loPI   C3A 3785  14.192   8.232   8.219 -0.1342 -0.2299 -0.0622
  237loPI   C4A 3786  13.904   8.233   7.871  0.2391  0.4794 -0.1406
  237loPI   C5A 3787  13.479   8.408   7.764 -0.1094 -0.4381  0.1578
  237loPI   C6A 3788  13.308   8.242   7.358  0.2258  0.1708  0.0734
  237loPI   C1B 3789  14.332   7.781   9.166 -0.2053  0.0273 -0.0707
  237loPI   C2B 3790  14.166   7.755   8.791 -0.3059 -0.1022 -0.0456
  237loPI   C3B 3791  14.121   7.777   8.375  0.0481 -0.2352 -0.1169
  237loPI   C4B 3792  14.012   7.779   7.895 -0.2889  0.0974  0.0450
  238loPI    C1 3793   1.362  18.099   9.958  0.0075 -0.1229 -0.0410
  238loPI    C2 3794   1.139  18.218  10.268  0.1324  0.0659 -0.0221
  238loPI    C3 3795   1.384  17.904  10.307 -0.2149 -0.2186 -0.0784
  238loPI   PO4 3796   1.402  18.340   9.836 -0.1267  0.1783 -0.1106
  238loPI   GL1 3797   1.050  18.496   9.523  0.0809  0.3430 -0.4494
  238loPI   GL2 3798   1.120  18.131   9.445 -0.0136  0.1471 -0.0538
  238loPI   C1A 3799   0.751  18.692   9.222  0.0054  0.1216  0.0857
  238loPI   C2A 3800   0.742  18.903   8.875 -0.0703  0.2107  0.1041
  238loPI   C3A 3801   0.955  19.008   8.537 -0.1279 -0.0130 -0.3759
  238loPI   C4A 3802   1.034  19.057   8.074  0.2502 -0.1112 -0.2755
  238loPI   C5A 3803   0.772  19.158   7.750 -0.0991  0.2219  0.1721
  238loPI   C6A 3804   0.649  18.801   7.494  0.3941  0.3498 -0.1124
  238loPI   C1B 3805   1.057  18.261   9.047 -0.1969  0.0831 -0.0260
  238loPI   C2B 3806   1.000  18.483   8.767  0.3956  0.0922  0.2629
  238loPI   C3B 3807   1.071  18.564   8.255  0.5197 -0.0117  0.0376
  238loPI   C4B 3808   0.977  18.606   7.829 -0.1821  0.0764  0.0033
  239loPI    C1 3809  15.690   5.936   9.642 -0.0810  0.1280 -0.1088
  239loPI    C2 3810  15.647   5.547   9.726 -0.1078  0.1487 -0.0255
  239loPI    C3 3811  15.417   5.818   9.909  0.1638  0.2347  0.1953
  239loPI   PO4 3812  15.762   5.904   9.366 -0.0520 -0.1932 -0.1317
  239loPI   GL1 3813  15.706   5.996   8.981  0.0903  0.0638  0.2265
  239loPI   GL2 3814  15.362   6.018   8.850  0.0269  0.2566  0.2495
  239loPI   C1A 3815  15.910   6.050   8.478 -0.1216  0.3041 -0.0210
  239loPI   C2A 3816  16.206   6.244   8.118 -0.0744 -0.0206  0.1865
  239loPI   C3A 3817  16.411   6.275   7.743  0.0781 -0.0620 -0.1238
  239loPI   C4A 3818  16.363   6.175   7.331 -0.1813 -0.0847  0.0932
  239loPI   C5A 3819  16.334   6.001   6.925 -0.1372 -0.3237  0.1368
  239loPI   C6A 3820  16.139   6.068   6.531 -0.1852 -0.0591  0.0196
  239loPI   C1B 3821  15.342   6.203   8.451  0.1784  0.1853 -0.0592
  239loPI   C2B 3822  15.192   6.129   7.988  0.0083  0.0060 -0.2078
  239loPI   C3B 3823  15.428   5.892   7.664  0.2755 -0.2301 -0.0024
  239loPI   C4B 3824  15.719   5.614   7.284  0.1738  0.0730 -0.1584
  240loPI    C1 3825   3.604   9.446   9.951 -0.1945 -0.0218  0.2062
  240loPI    C2 3826   3.469   9.818  10.012 -0.1090  0.0765 -0.1762
  240loPI    C3 3827   3.479   9.556  10.315 -0.2325  0.3633  0.0810
  240loPI   PO4 3828   3.393   9.366   9.667  0.3774 -0.0866 -0.0485
  240loPI   GL1 3829   3.418   9.265   9.247 -0.1470  0.0008 -0.1525
  240loPI   GL2 3830   3.032   9.216   9.205 -0.2737 -0.0911 -0.3002
  240loPI   C1A 3831   3.544   9.243   8.877  0.1280  0.0644  0.2827
  240loPI   C2A 3832   3.847   9.355   8.697  0.1421 -0.2924 -0.0553
  240loPI   C3A 3833   3.947   9.744   8.377 -0.1914  0.1738  0.0371
  240loPI   C4A 3834   4.108   9.838   8.045 -0.3485 -0.0075 -0.1752
  240loPI   C5A 3835   4.100   9.972   7.630 -0.0870 -0.0200 -0.3012
  240loPI   C6A 3836   4.368  10.031   7.256  0.0185 -0.0286 -0.1180
  240loPI   C1B 3837   2.977   9.045   8.810 -0.1267  0.2125 -0.0074
  240loPI   C2B 3838   2.694   8.874   8.451  0.0309 -0.2570  0.1509
  240loPI   C3B 3839   2.477   9.058   8.080  0.3140 -0.1453 -0.0468
  240loPI   C4B 3840   2.415   9.499   7.919  0.1415  0.0587 -0.0216
  241loPI    C1 3841  10.431   6.977  10.496  0.2249 -0.1873 -0.0318
  241loPI    C2 3842  10.260   6.769  10.791 -0.3634 -0.1907 -0.3613
  241loPI    C3 3843  10.621   6.932  10.846 -0.3552 -0.3923  0.2692
  241loPI   PO4 3844  10.207   7.085  10.408 -0.2017 -0.2099  0.0156
  241loPI   GL1 3845  10.031   7.202   9.995 -0.0995 -0.0682  0.1513
  241loPI   GL2 3846  10.005   6.903   9.872  0.0142  0.1217  0.1224
  241loPI   C1A 3847   9.911   7.376   9.596  0.1003  0.3352  0.3732
  241loPI   C2A 3848  10.045   7.424   9.240  0.1385  0.0012 -0.0688
  241loPI   C3A 3849   9.894   7.388   8.806 -0.1202  0.3892 -0.0348
  241loPI   C4A 3850   9.789   7.133   8.436  0.0573 -0.1520  0.0737
  241loPI   C5A 3851   9.740   6.745   8.317 -0.1545 -0.0873  0.1090
  241loPI   C6A 3852   9.471   6.556   7.975  0.2558  0.0062  0.3466
  241loPI   C1B 3853  10.005   6.911   9.395  0.0210 -0.2932 -0.3103
  241loPI   C2B 3854  10.036   6.953   8.975  0.1031 -0.2911  0.1703
  241loPI   C3B 3855  10.245   6.986   8.563 -0.1722 -0.0715 -0.0209
  241loPI   C4B 3856  10.238   7.067   8.207 -0.0347  0.0549 -0.0866
  242loPI    C1 3857  12.757   7.949  10.292  0.0152 -0.1330 -0.0622
  242loPI    C2 3858  12.819   7.955  10.687 -0.1963 -0.1509 -0.0278
  242loPI    C3 3859  12.899   7.624  10.477  0.4097  0.0198 -0.0857
  242loPI   PO4 3860  12.439   7.956  10.188  0.0003  0.0765 -0.1169
  242loPI   GL1 3861  12.349   8.091   9.813  0.0528  0.0676 -0.1402
  242loPI   GL2 3862  12.102   8.281   9.919 -0.1184 -0.0150  0.2843
  242loPI   C1A 3863  12.602   8.200   9.477 -0.2557  0.3293  0.2399
  242loPI   C2A 3864  12.618   8.228   8.992  0.2692  0.4042 -0.0116
  242loPI   C3A 3865  12.821   8.187   8.621  0.2607  0.0306  0.2533
  242loPI   C4A 3866  12.912   7.855   8.315  0.1522 -0.1827 -0.0663
  242loPI   C5A 3867  12.925   7.597   8.049 -0.0114 -0.1263  0.1693
  242loPI   C6A 3868  13.006   7.176   8.089 -0.1881  0.1055  0.4531
  242loPI   C1B 3869  11.910   8.029   9.595  0.2326  0.2063  0.1844
  242loPI   C2B 3870  11.728   7.997   9.235 -0.0721 -0.3106 -0.4134
  242loPI   C3B 3871  11.524   8.190   8.943 -0.3550  0.1630 -0.0766
  242loPI   C4B 3872  11.586   8.534   8.713 -0.1611 -0.0471  0.1680
  243loPI    C1 3873  14.643   6.828  10.013 -0.0575 -0.1696  0.0408
  243loPI    C2 3874  14.370   7.053   9.826  0.0703 -0.0780 -0.0374
  243loPI    C3 3875  14.261   6.820  10.133 -0.0350  0.2128  0.1511
  243loPI   PO4 3876  14.963   7.024   9.956 -0.3745 -0.3248  0.2528
  243loPI   GL1 3877  15.097   7.152   9.592 -0.0454  0.0654  0.2292
  243loPI   GL2 3878  15.267   7.411   9.616 -0.1707 -0.0223  0.0701
  243loPI   C1A 3879  15.278   7.106   9.129  0.1789 -0.0967  0.0534
  243loPI   C2A 3880  15.538   7.123   8.805  0.2480 -0.1483  0.1588
  243loPI   C3A 3881  15.411   7.191   8.412  0.0259  0.0906  0.2210
  243loPI   C4A 3882  15.313   7.170   8.036 -0.2277 -0.3134 -0.1127
  243loPI   C5A 3883  15.011   7.363   7.806  0.0974 -0.2316  0.1144
  243loPI   C6A 3884  14.525   7.334   7.641  0.4654 -0.0596 -0.0337
  243loPI   C1B 3885  15.433   7.551   9.236 -0.0871  0.3144  0.2856
  243loPI   C2B 3886  15.274   7.611   8.806  0.0515 -0.0459  0.0924
  243loPI   C3B 3887  15.464   7.634   8.388  0.2096 -0.0294  0.3320
  243loPI   C4B 3888  15.428   7.666   7.934  0.3275 -0.0827 -0.3171
  244loPI    C1 3889   1.364   4.841   9.785 -0.0654  0.0015 -0.2831
  244loPI    C2 3890   1.750   4.858   9.892 -0.1548  0.2088  0.0230
  244loPI    C3 3891   1.480   4.698  10.140 -0.3332  0.4805  0.0084
  244loPI   PO4 3892   1.376   4.694   9.546 -0.1466  0.0595 -0.1193
  244loPI   GL1 3893   1.286   4.603   9.091 -0.2237 -0.0909 -0.0657
  244loPI   GL2 3894   1.021   4.272   8.897 -0.0751 -0.2076  0.2262
  244loPI   C1A 3895   1.324   4.748   8.660  0.0212 -0.1232 -0.0515
  244loPI   C2A 3896   1.193   4.963   8.337 -0.0472 -0.2093 -0.1725
  244loPI   C3A 3897   0.923   5.273   8.131 -0.0235  0.0715  0.4050
  244loPI   C4A 3898   0.762   5.533   7.923 -0.1243  0.0324 -0.1319
  244loPI   C5A 3899   0.791   5.645   7.427  0.0445  0.2607  0.0044
  244loPI   C6A 3900   0.829   5.582   7.016 -0.2188 -0.1555  0.3567
  244loPI   C1B 3901   0.643   4.160   8.550  0.1038  0.1637 -0.0002
  244loPI   C2B 3902   0.656   4.152   8.098  0.0598 -0.0311  0.0845
  244loPI   C3B 3903   0.930   4.280   7.727 -0.1939 -0.0068  0.2957
  244loPI   C4B 3904   1.007   4.170   7.338  0.1564 -0.0405  0.2053
  245loPI    C1 3905   0.955  10.751   9.582 -0.1171  0.0553 -0.1158
  245loPI    C2 3906   0.676  10.917   9.815 -0.1985  0.0400 -0.2018
  245loPI    C3 3907   0.617  10.553   9.661 -0.1647  0.0684 -0.2825
  245loPI   PO4 3908   0.998  10.921   9.457  0.1550 -0.0652  0.1885
  245loPI   GL1 3909   1.086  11.048   9.156 -0.1686 -0.1561  0.0985
  245loPI   GL2 3910   1.386  11.106   9.077  0.1572  0.0045  0.2409
  245loPI   C1A 3911   0.966  10.872   8.692 -0.3341 -0.1065  0.0340
  245loPI   C2A 3912   0.982  10.856   8.305  0.1027 -0.1513 -0.1769
  245loPI   C3A 3913   0.773  10.735   7.885 -0.1630  0.2766  0.2327
  245loPI   C4A 3914   0.747  10.652   7.478 -0.0487 -0.1895  0.1863
  245loPI   C5A 3915   0.827  10.602   7.127  0.0406  0.1469 -0.2644
  245loPI   C6A 3916   1.127  10.436   7.030  0.0821  0.0635 -0.1071
  245loPI   C1B 3917   1.492  11.341   8.704 -0.0325  0.0751 -0.0452
  245loPI   C2B 3918   1.470  11.448   8.266 -0.1748  0.0393 -0.1285
  245loPI   C3B 3919   1.212  11.469   7.891  0.0575  0.3080  0.1427
  245loPI   C4B 3920   0.990  11.609   7.497 -0.3140 -0.1368  0.3794
  246loPI    C1 3921  13.908  16.561  10.759  0.0037  0.0340  0.1332
  246loPI    C2 3922  14.298  16.481  10.714 -0.0869 -0.0403 -0.6611
  246loPI    C3 3923  14.033  16.182  10.735 -0.1016  0.0055  0.0228
  246loPI   PO4 3924  13.810  16.729  10.664 -0.1343 -0.0651  0.1821
  246loPI   GL1 3925  13.858  16.916  10.156  0.2729  0.1180  0.0913
  246loPI   GL2 3926  13.705  17.245  10.130 -0.2304  0.0190  0.1901
  246loPI   C1A 3927  13.950  17.022   9.724  0.1087 -0.1865 -0.2118
  246loPI   C2A 3928  14.130  16.998   9.247 -0.2621  0.2542 -0.0659
  246loPI   C3A 3929  13.934  17.041   8.842 -0.2292  0.1473 -0.0089
  246loPI   C4A 3930  13.694  17.028   8.465  0.0400 -0.1129 -0.0560
  246loPI   C5A 3931  14.006  16.945   8.113  0.0291  0.2634  0.0664
  246loPI   C6A 3932  14.231  16.542   8.081  0.0098  0.0739 -0.3865
  246loPI   C1B 3933  13.696  17.500   9.712  0.1567 -0.0305 -0.0529
  246loPI   C2B 3934  13.783  17.487   9.320 -0.2248  0.1713 -0.0316
  246loPI   C3B 3935  13.722  17.517   8.798 -0.1858  0.0968 -0.1326
  246loPI   C4B 3936  13.734  17.767   8.369  0.1824 -0.0192 -0.0702
  247loPI    C1 3937  10.063   3.803  10.531  0.0926 -0.0236  0.1297
  247loPI    C2 3938   9.844   3.474  10.468 -0.0060  0.0641  0.0104
  247loPI    C3 3939   9.874   3.627  10.837 -0.0747  0.0020  0.0419
  247loPI   PO4 3940  10.000   3.914  10.270  0.2685 -0.0035  0.0622
  247loPI   GL1 3941  10.026   3.646   9.977 -0.0623  0.2904 -0.0203
  247loPI   GL2 3942   9.917   3.887   9.821 -0.1109  0.1117 -0.0306
  247loPI   C1A 3943  10.154   3.632   9.390  0.1676  0.1403 -0.0234
  247loPI   C2A 3944  10.168   3.985   9.096 -0.1944  0.1489 -0.0664
  247loPI   C3A 3945  10.408   4.188   8.822  0.4601 -0.1009 -0.2673
  247loPI   C4A 3946  10.604   4.319   8.411 -0.1555  0.2101  0.0050
  247loPI   C5A 3947  10.908   4.237   8.042  0.2108  0.1203  0.1237
  247loPI   C6A 3948  11.138   4.193   7.653  0.1612 -0.1518  0.3503
  247loPI   C1B 3949   9.608   3.717   9.483 -0.1090 -0.0681 -0.1702
  247loPI   C2B 3950   9.699   3.740   9.121  0.0163 -0.3607  0.3695
  247loPI   C3B 3951   9.874   3.996   8.754 -0.1794  0.0192  0.1001
  247loPI   C4B 3952   9.986   4.152   8.402 -0.0589 -0.2112 -0.0233
  248loPI    C1 3953  17.853  18.095  10.317 -0.0882  0.0403 -0.0172
  248loPI    C2 3954  17.540  18.178  10.551  0.0734  0.1700  0.1568
  248loPI    C3 3955  17.541  17.846  10.328 -0.3079  0.3078 -0.0604
  248loPI   PO4 3956  17.911  18.267  10.156  0.0851 -0.0225 -0.1813
  248loPI   GL1 3957  18.217  18.267   9.794 -0.2048 -0.1101 -0.0982
  248loPI   GL2 3958  17.797  18.281   9.647  0.1159 -0.0543  0.0516
  248loPI   C1A 3959  18.535  18.626   9.598  0.2463 -0.0146 -0.4656
  248loPI   C2A 3960  18.770  18.652   9.194 -0.0830  0.0173  0.4644
  248loPI   C3A 3961  18.983  18.545   8.789 -0.0494  0.1559 -0.0092
  248loPI   C4A 3962  19.196  18.688   8.452  0.3181  0.0015 -0.4147
  248loPI   C5A 3963  19.247  18.776   8.107  0.2557 -0.2249 -0.0969
  248loPI   C6A 3964  18.918  18.940   7.851  0.1844 -0.0629  0.2212
  248loPI   C1B 3965  18.152  18.518   9.364  0.0467 -0.2001 -0.1414
  248loPI   C2B 3966  18.223  18.547   8.892 -0.1527  0.3210 -0.3635
  248loPI   C3B 3967  18.569  18.715   8.558  0.1412 -0.4229  0.3217
  248loPI   C4B 3968  18.753  18.905   8.362  0.0214 -0.0113 -0.2529
  249loPI    C1 3969   1.815  12.617   9.913  0.0169  0.0307  0.0167
  249loPI    C2 3970   1.820  12.219   9.954  0.3411  0.0073 -0.2094
  249loPI    C3 3971   1.855  12.454  10.276 -0.6118 -0.1303  0.0248
  249loPI   PO4 3972   1.898  12.706   9.753 -0.0975 -0.1007 -0.1825
  249loPI   GL1 3973   1.817  12.728   9.362  0.1714 -0.1106  0.0924
  249loPI   GL2 3974   1.707  12.325   9.270  0.1828  0.2133 -0.0641
  249loPI   C1A 3975   1.877  12.686   8.853  0.0479 -0.0699 -0.1719
  249loPI   C2A 3976   2.014  12.665   8.471 -0.1084 -0.0537 -0.1318
  249loPI   C3A 3977   1.981  12.653   8.021 -0.0150 -0.1529 -0.0955
  249loPI   C4A 3978   1.794  12.692   7.631 -0.2562  0.1530  0.1855
  249loPI   C5A 3979   1.443  12.784   7.300 -0.1963 -0.1454  0.1382
  249loPI   C6A 3980   1.099  13.035   7.121  0.0581 -0.1779 -0.4590
  249loPI   C1B 3981   1.645  12.180   8.795 -0.2378 -0.0017 -0.3171
  249loPI   C2B 3982   1.778  12.194   8.419 -0.0165 -0.0081  0.0939
  249loPI   C3B 3983   1.562  12.478   8.201 -0.0110  0.0596  0.0678
  249loPI   C4B 3984   1.353  12.623   7.937  0.1417  0.1051  0.0822
  250loPI    C1 3985   1.822   7.833   9.547 -0.2940 -0.0087 -0.0747
  250loPI    C2 3986   2.048   8.014   9.271  0.0838 -0.0204  0.2183
  250loPI    C3 3987   1.795   8.229   9.495 -0.0620  0.0209  0.0170
  250loPI   PO4 3988   1.989   7.670   9.633  0.0281 -0.2963 -0.1905
  250loPI   GL1 3989   2.239   7.531   9.302 -0.3787 -0.0607 -0.1018
  250loPI   GL2 3990   1.949   7.392   9.175  0.0845  0.0494 -0.4057
  250loPI   C1A 3991   2.491   7.489   8.972  0.1908 -0.0727 -0.0160
  250loPI   C2A 3992   2.449   7.437   8.553  0.1663  0.0979  0.0555
  250loPI   C3A 3993   2.357   7.191   8.212 -0.2212 -0.0645 -0.0544
  250loPI   C4A 3994   2.047   6.841   8.224 -0.3718  0.3966  0.0262
  250loPI   C5A 3995   1.986   6.519   7.863 -0.0217  0.0876 -0.0100
  250loPI   C6A 3996   2.242   6.320   7.613  0.0028  0.2062  0.0411
  250loPI   C1B 3997   1.848   7.285   8.825 -0.1659 -0.2583 -0.0968
  250loPI   C2B 3998   1.841   7.342   8.335  0.2162  0.3199  0.0169
  250loPI   C3B 3999   1.891   7.308   7.879 -0.1202 -0.3110 -0.0994
  250loPI   C4B 4000   2.015   7.334   7.369  0.1288  0.0444 -0.2171
  251loPI    C1 4001  11.793   2.541  10.991 -0.0314  0.0096  0.1418
  251loPI    C2 4002  11.990   2.830  10.796  0.0921 -0.0680  0.1502
  251loPI    C3 4003  12.193   2.539  10.980 -0.0318 -0.1710  0.1259
  251loPI   PO4 4004  11.569   2.509  10.685  0.1926 -0.3381 -0.0163
  251loPI   GL1 4005  11.484   2.520  10.309  0.1500  0.1227 -0.2745
  251loPI   GL2 4006  11.558   2.171  10.314  0.2299 -0.1138  0.2409
  251loPI   C1A 4007  11.766   2.548   9.927 -0.1725  0.1503  0.2592
  251loPI   C2A 4008  11.880   2.625   9.377  0.1254  0.0675 -0.1998
  251loPI   C3A 4009  12.055   2.530   8.949 -0.2788 -0.1882  0.2629
  251loPI   C4A 4010  12.407   2.446   8.833  0.1289 -0.0332  0.0618
  251loPI   C5A 4011  12.672   2.435   8.447 -0.0785 -0.0775  0.3048
  251loPI   C6A 4012  12.942   2.678   8.231  0.1317 -0.0629  0.0620
  251loPI   C1B 4013  11.507   2.010   9.886 -0.0447 -0.2336  0.0532
  251loPI   C2B 4014  11.147   1.980   9.568 -0.2024  0.0411  0.2200
  251loPI   C3B 4015  11.111   2.015   9.091 -0.0880 -0.0744 -0.0107
  251loPI   C4B 4016  11.102   1.976   8.648 -0.0933 -0.0109 -0.1142
  252loPI    C1 4017   9.375   3.873  10.778 -0.1014 -0.0768  0.0121
  252loPI    C2 4018   9.313   4.227  10.955  0.1271 -0.0338  0.0089
  252loPI    C3 4019   9.399   3.905  11.176 -0.0295 -0.0772  0.0078
  252loPI   PO4 4020   9.557   3.944  10.597 -0.2976 -0.2165  0.1496
  252loPI   GL1 4021   9.511   3.770  10.129  0.0617 -0.2327  0.1678
  252loPI   GL2 4022   9.529   4.148  10.124 -0.1031  0.0929  0.0152
  252loPI   C1A 4023   9.623   3.364   9.811  0.1108 -0.0146 -0.2034
  252loPI   C2A 4024   9.618   3.169   9.316 -0.2078 -0.4438 -0.0889
  252loPI   C3A 4025   9.680   2.999   8.889 -0.1747  0.2729  0.3429
  252loPI   C4A 4026   9.986   3.106   8.683  0.3178 -0.0836  0.1710
  252loPI   C5A 4027  10.288   3.323   8.412  0.0105 -0.1517 -0.0752
  252loPI   C6A 4028  10.539   3.381   8.195  0.0455 -0.3014 -0.0573
  252loPI   C1B 4029   9.566   4.231   9.684 -0.1240 -0.2355  0.0094
  252loPI   C2B 4030   9.827   4.195   9.363 -0.3230 -0.0375 -0.0160
  252loPI   C3B 4031   9.921   4.392   9.046  0.0969 -0.2110  0.3022
  252loPI   C4B 4032  10.098   4.566   8.716  0.2608  0.0508  0.1223
  253loPI    C1 4033   4.491  11.315   9.936  0.0414  0.2236  0.2310
  253loPI    C2 4034   4.122  11.440   9.847 -0.0595 -0.0426  0.2649
  253loPI    C3 4035   4.437  11.673   9.766 -0.2300  0.1657  0.1906
  253loPI   PO4 4036   4.451  11.027   9.862  0.0190  0.0406 -0.0597
  253loPI   GL1 4037   4.566  10.753   9.419 -0.0426 -0.1076  0.1455
  253loPI   GL2 4038   4.425  10.591   9.165 -0.1333  0.2021 -0.2507
  253loPI   C1A 4039   4.724  11.065   9.192  0.0723  0.2870  0.0170
  253loPI   C2A 4040   4.616  11.336   8.911 -0.3327  0.0209 -0.0165
  253loPI   C3A 4041   4.582  11.340   8.492 -0.0411  0.0646  0.1923
  253loPI   C4A 4042   4.305  11.323   8.127 -0.0298 -0.3319  0.0298
  253loPI   C5A 4043   4.375  11.523   7.761 -0.2258  0.2748 -0.1197
  253loPI   C6A 4044   4.243  11.908   7.454 -0.0203 -0.2286  0.1473
  253loPI   C1B 4045   4.468  10.924   8.732  0.0139  0.1299 -0.3339
  253loPI   C2B 4046   4.570  10.932   8.249  0.2071 -0.0944  0.2113
  253loPI   C3B 4047   4.570  10.934   7.857  0.0043 -0.2477  0.3892
  253loPI   C4B 4048   4.770  11.238   7.615 -0.1815 -0.2191 -0.1919
  254loPI    C1 4049   6.081   0.152  10.528 -0.2899  0.0365  0.1609
  254loPI    C2 4050   6.284  -0.023  10.825 -0.2002 -0.1108  0.0145
  254loPI    C3 4051   6.349   0.362  10.739  0.1598 -0.2044 -0.1532
  254loPI   PO4 4052   6.152   0.022  10.218 -0.1592 -0.0572 -0.1547
  254loPI   GL1 4053   6.327   0.109   9.768 -0.0882 -0.1021  0.2492
  254loPI   GL2 4054   6.564   0.471   9.596  0.0445  0.1053 -0.1578
  254loPI   C1A 4055   6.024  -0.064   9.426 -0.4010 -0.0788  0.0257
  254loPI   C2A 4056   5.778  -0.040   9.126  0.0648 -0.3773 -0.0128
  254loPI   C3A 4057   5.569  -0.133   8.806 -0.0684  0.3736 -0.0159
  254loPI   C4A 4058   5.560   0.011   8.407  0.1741 -0.2608  0.4885
  254loPI   C5A 4059   5.182   0.273   8.194 -0.0277 -0.0273 -0.0692
  254loPI   C6A 4060   4.796   0.167   7.945  0.3189 -0.2282 -0.2219
  254loPI   C1B 4061   6.681   0.407   9.191 -0.1618  0.2078 -0.2050
  254loPI   C2B 4062   6.875   0.457   8.829 -0.0216 -0.0619 -0.1218
  254loPI   C3B 4063   7.073   0.544   8.419 -0.2174 -0.3115  0.1519
  254loPI   C4B 4064   7.454   0.505   8.080 -0.0158  0.0996  0.0532
  255loPI    C1 4065   8.106   4.100  10.448  0.0561  0.0334 -0.0663
  255loPI    C2 4066   8.353   4.292  10.697 -0.1110  0.1623  0.0023
  255loPI    C3 4067   8.116   4.001  10.836  0.0880 -0.0458 -0.0872
  255loPI   PO4 4068   8.218   3.941  10.250  0.1199 -0.1529  0.1491
  255loPI   GL1 4069   7.933   3.824  10.015  0.1453 -0.2924  0.3561
  255loPI   GL2 4070   7.773   4.090  10.083 -0.0686 -0.0045  0.0897
  255loPI   C1A 4071   8.003   3.944   9.608  0.1131 -0.1542 -0.1840
  255loPI   C2A 4072   8.162   4.048   9.268  0.0551 -0.0276  0.1908
  255loPI   C3A 4073   8.240   3.997   8.928 -0.1312 -0.1405 -0.1849
  255loPI   C4A 4074   8.442   3.870   8.530  0.1624  0.2507 -0.2332
  255loPI   C5A 4075   8.694   3.796   8.144  0.4812  0.0063 -0.0919
  255loPI   C6A 4076   8.762   4.037   7.757 -0.0954  0.0198 -0.0379
  255loPI   C1B 4077   7.710   4.335   9.716 -0.5074 -0.0873 -0.1268
  255loPI   C2B 4078   7.635   4.734   9.486  0.0803 -0.1936 -0.0754
  255loPI   C3B 4079   7.612   4.626   9.110  0.1964  0.2124 -0.4266
  255loPI   C4B 4080   7.876   4.275   8.866 -0.0098  0.2268 -0.0771
  256loPI    C1 4081  17.220   2.264   9.938  0.0887  0.0447 -0.2406
  256loPI    C2 4082  17.530   2.288  10.189  0.0822 -0.0125 -0.2267
  256loPI    C3 4083  17.593   2.265   9.794  0.1011 -0.1922 -0.2137
  256loPI   PO4 4084  17.030   2.466   9.914 -0.3869 -0.0312 -0.0115
  256loPI   GL1 4085  16.885   2.766   9.676  0.0492  0.0009 -0.2449
  256loPI   GL2 4086  16.645   3.019   9.617  0.2562  0.1913 -0.1885
  256loPI   C1A 4087  16.949   2.930   9.155 -0.0435  0.1255  0.1454
  256loPI   C2A 4088  16.932   3.054   8.759  0.2777 -0.0330  0.1262
  256loPI   C3A 4089  16.757   3.043   8.363  0.3640 -0.2370  0.1228
  256loPI   C4A 4090  16.618   2.920   7.923 -0.0931  0.3219 -0.0796
  256loPI   C5A 4091  16.512   2.666   7.549  0.0520  0.0884 -0.0138
  256loPI   C6A 4092  16.114   2.491   7.428 -0.2302 -0.0210  0.1158
  256loPI   C1B 4093  16.454   2.816   9.192  0.0487  0.0148 -0.2144
  256loPI   C2B 4094  16.258   2.836   8.738 -0.1115  0.5313 -0.1471
  256loPI   C3B 4095  16.357   2.670   8.374  0.0411  0.0404 -0.0431
  256loPI   C4B 4096  16.503   2.445   7.985 -0.2551 -0.1001  0.1215
  257loPI    C1 4097  10.894  13.275  10.078 -0.0408  0.0881  0.0526
  257loPI    C2 4098  10.737  13.104  10.404 -0.2385  0.2880  0.0649
  257loPI    C3 4099  11.090  13.291  10.427 -0.0748 -0.0160  0.0769
  257loPI   PO4 4100  10.830  13.039   9.917 -0.0518 -0.3178 -0.1227
  257loPI   GL1 4101  10.673  12.736   9.673 -0.2805 -0.0715  0.0072
  257loPI   GL2 4102  10.486  12.638   9.920  0.4707 -0.1266 -0.1821
  257loPI   C1A 4103  10.713  12.683   9.212 -0.1996  0.0967  0.0960
  257loPI   C2A 4104  10.618  12.617   8.710 -0.1334 -0.1529 -0.0367
  257loPI   C3A 4105  10.656  12.447   8.344 -0.2925  0.0673  0.4781
  257loPI   C4A 4106  10.841  12.260   8.018 -0.3060  0.0535 -0.0649
  257loPI   C5A 4107  11.180  12.173   7.756  0.2937  0.1852 -0.0094
  257loPI   C6A 4108  11.672  12.095   7.989  0.1807 -0.3255  0.0588
  257loPI   C1B 4109  10.316  12.537   9.498 -0.0272  0.0661 -0.1418
  257loPI   C2B 4110  10.235  12.447   8.989  0.2858  0.1543 -0.4439
  257loPI   C3B 4111  10.158  12.515   8.627 -0.0210  0.2552  0.0803
  257loPI   C4B 4112  10.104  12.365   8.250 -0.1114  0.1066 -0.0657
  258loPI    C1 4113  18.127  15.345  10.389  0.0626 -0.0199 -0.0269
  258loPI    C2 4114  18.352  15.026  10.302 -0.0730 -0.1020 -0.0805
  258loPI    C3 4115  18.242  15.096  10.680  0.0629 -0.0472 -0.0504
  258loPI   PO4 4116  18.246  15.562  10.267 -0.1625  0.1883 -0.1050
  258loPI   GL1 4117  17.985  15.592   9.922 -0.1913  0.2031  0.1271
  258loPI   GL2 4118  17.709  15.742   9.848  0.0009 -0.2233 -0.2881
  258loPI   C1A 4119  18.004  15.819   9.472 -0.0382  0.4677 -0.0460
  258loPI   C2A 4120  17.842  15.771   9.109  0.1892  0.4156  0.0284
  258loPI   C3A 4121  18.019  15.840   8.763 -0.3577 -0.0226 -0.0067
  258loPI   C4A 4122  18.232  15.631   8.520  0.3304 -0.0242  0.3140
  258loPI   C5A 4123  18.451  15.503   8.161  0.3066 -0.2709 -0.2884
  258loPI   C6A 4124  18.649  15.245   7.841 -0.0055 -0.2739 -0.0429
  258loPI   C1B 4125  17.529  15.602   9.494 -0.0683 -0.4736  0.1125
  258loPI   C2B 4126  17.466  15.383   9.166  0.1352 -0.0056 -0.0979
  258loPI   C3B 4127  17.503  15.441   8.719 -0.1682  0.0767  0.1996
  258loPI   C4B 4128  17.705  15.594   8.445  0.1967  0.1608 -0.2212
  259loPI    C1 4129   6.853  10.994   9.798  0.0843  0.0901  0.0096
  259loPI    C2 4130   6.751  10.974  10.185  0.0595 -0.1407 -0.0071
  259loPI    C3 4131   6.867  10.644   9.992  0.1487 -0.0118 -0.1769
  259loPI   PO4 4132   6.724  11.068   9.695  0.0022 -0.2085 -0.0196
  259loPI   GL1 4133   6.621  11.171   9.295  0.0650  0.0569  0.3090
  259loPI   GL2 4134   6.507  11.413   9.193 -0.0936 -0.2590  0.0906
  259loPI   C1A 4135   6.720  10.966   8.977  0.0051  0.0343  0.0059
  259loPI   C2A 4136   6.581  10.797   8.565  0.3756 -0.1264  0.0054
  259loPI   C3A 4137   6.378  10.592   8.092 -0.3740 -0.1754 -0.3282
  259loPI   C4A 4138   6.460  10.516   7.671  0.0926 -0.1263 -0.1550
  259loPI   C5A 4139   6.833  10.350   7.528  0.4348 -0.1479 -0.1523
  259loPI   C6A 4140   7.213  10.107   7.676  0.3778  0.1551  0.0789
  259loPI   C1B 4141   6.482  11.569   8.810 -0.0224 -0.0388 -0.2604
  259loPI   C2B 4142   6.223  11.702   8.374 -0.0926 -0.1240 -0.2842
  259loPI   C3B 4143   6.005  11.647   8.011 -0.2545 -0.0855 -0.2986
  259loPI   C4B 4144   5.661  11.659   7.696  0.0273  0.0460 -0.1475
  260loPI    C1 4145   8.626  18.159  10.734  0.1401 -0.2232  0.0638
  260loPI    C2 4146   8.758  17.781  10.747  0.1779 -0.2039  0.2718
  260loPI    C3 4147   8.965  18.072  10.928  0.2554 -0.0499 -0.0561
  260loPI   PO4 4148   8.519  18.135  10.423  0.2618 -0.0993  0.1022
  260loPI   GL1 4149   8.662  18.377  10.061 -0.0182  0.2404 -0.0330
  260loPI   GL2 4150   8.599  18.062   9.842 -0.0924 -0.1532  0.0219
  260loPI   C1A 4151   9.042  18.160   9.764 -0.1282  0.0933 -0.0323
  260loPI   C2A 4152   9.114  18.190   9.324 -0.1402 -0.2113 -0.0965
  260loPI   C3A 4153   9.177  18.105   8.919  0.0414  0.2144 -0.0553
  260loPI   C4A 4154   9.443  18.092   8.651 -0.1227 -0.0576 -0.1353
  260loPI   C5A 4155   9.580  18.270   8.247  0.2776 -0.1432  0.1997
  260loPI   C6A 4156   9.460  18.147   7.899 -0.0614 -0.0107 -0.2787
  260loPI   C1B 4157   8.566  17.894   9.406  0.0905 -0.0620 -0.3753
  260loPI   C2B 4158   8.683  17.914   9.011  0.1078  0.0879 -0.1772
  260loPI   C3B 4159   8.762  17.909   8.640 -0.0088 -0.1798 -0.0145
  260loPI   C4B 4160   9.062  18.048   8.275  0.2217 -0.1997 -0.1186
  261loPI    C1 4161   4.749  16.933  10.511 -0.3366 -0.1185  0.0158
  261loPI    C2 4162   4.635  17.027  10.883 -0.0180  0.1753  0.0443
  261loPI    C3 4163   5.024  16.990  10.795 -0.0903  0.1026 -0.2599
  261loPI   PO4 4164   4.605  17.124  10.360  0.1363  0.1230  0.1817
  261loPI   GL1 4165   4.572  17.130   9.910  0.2693 -0.1578  0.1008
  261loPI   GL2 4166   4.820  17.051   9.916 -0.2833 -0.0888 -0.0864
  261loPI   C1A 4167   4.366  17.180   9.514 -0.3992 -0.0143  0.2103
  261loPI   C2A 4168   4.053  17.096   9.213  0.0676  0.1721 -0.1465
  261loPI   C3A 4169   3.981  17.078   8.822  0.2833 -0.1020 -0.0548
  261loPI   C4A 4170   3.946  16.841   8.474  0.0888  0.2001  0.0508
  261loPI   C5A 4171   3.994  16.867   8.115 -0.1174 -0.0107  0.1481
  261loPI   C6A 4172   3.781  17.116   7.748  0.1842 -0.0446 -0.0742
  261loPI   C1B 4173   5.146  16.853   9.632  0.0778  0.2254  0.1277
  261loPI   C2B 4174   5.379  17.015   9.158  0.1560 -0.0432  0.0541
  261loPI   C3B 4175   5.541  16.956   8.713  0.1871 -0.0784  0.0822
  261loPI   C4B 4176   5.844  16.745   8.570 -0.1084  0.0840  0.2772
  262loPI    C1 4177   5.326  12.646   9.992 -0.0825  0.2255  0.3378
  262loPI    C2 4178   4.948  12.574  10.102 -0.1132 -0.2032 -0.0177
  262loPI    C3 4179   5.249  12.481  10.348 -0.2235 -0.1714  0.1306
  262loPI   PO4 4180   5.339  12.561   9.759  0.2321  0.1036  0.0485
  262loPI   GL1 4181   5.534  12.666   9.412 -0.1662 -0.1564 -0.1734
  262loPI   GL2 4182   5.734  12.916   9.177 -0.3203 -0.4179 -0.0271
  262loPI   C1A 4183   5.264  12.674   9.018  0.0357  0.0511  0.1649
  262loPI   C2A 4184   4.978  12.665   8.657 -0.1411 -0.2961 -0.2051
  262loPI   C3A 4185   4.540  12.749   8.694 -0.0073 -0.1616  0.0009
  262loPI   C4A 4186   4.342  12.839   8.326  0.0178  0.1658  0.0177
  262loPI   C5A 4187   4.076  12.891   7.906  0.2491  0.0215 -0.1590
  262loPI   C6A 4188   4.010  13.177   7.643  0.1036 -0.2960 -0.0901
  262loPI   C1B 4189   6.026  13.216   8.999  0.0068  0.0568 -0.4165
  262loPI   C2B 4190   6.367  13.254   8.684  0.0466 -0.0052  0.1572
  262loPI   C3B 4191   6.585  13.459   8.445 -0.1131  0.0684  0.0825
  262loPI   C4B 4192   6.440  13.933   8.257 -0.1379  0.3490  0.1365
  263loPI    C1 4193  16.119  14.027  10.330  0.1312 -0.1046 -0.0050
  263loPI    C2 4194  16.226  14.364  10.516 -0.0502 -0.1578  0.1994
  263loPI    C3 4195  15.939  14.372  10.237  0.1437 -0.0969 -0.0006
  263loPI   PO4 4196  16.336  13.927  10.235  0.0816 -0.0956 -0.2993
  263loPI   GL1 4197  16.343  13.648   9.811 -0.3093 -0.0939 -0.0054
  263loPI   GL2 4198  16.155  13.607   9.647  0.1770  0.2683  0.1482
  263loPI   C1A 4199  16.471  13.884   9.339 -0.0055  0.5153 -0.3020
  263loPI   C2A 4200  16.527  13.898   8.867  0.1574  0.0906  0.0034
  263loPI   C3A 4201  16.354  14.129   8.678  0.0009 -0.0491  0.0851
  263loPI   C4A 4202  16.440  14.250   8.285  0.1670  0.1673 -0.1252
  263loPI   C5A 4203  16.520  13.968   7.928  0.1033 -0.0492 -0.0350
  263loPI   C6A 4204  16.786  13.797   7.661 -0.1996 -0.1011  0.1116
  263loPI   C1B 4205  16.025  13.601   9.212  0.1102  0.0592 -0.1145
  263loPI   C2B 4206  16.098  13.728   8.715  0.0425 -0.2986  0.3406
  263loPI   C3B 4207  16.130  13.858   8.235  0.1767  0.4486  0.2264
  263loPI   C4B 4208  15.762  14.015   7.956  0.2925 -0.0786  0.1652
  264loPI    C1 4209   4.242   9.671   9.510  0.1999 -0.0082  0.0379
  264loPI    C2 4210   4.271   9.931   9.813 -0.0426 -0.0606  0.1088
  264loPI    C3 4211   3.913   9.789   9.706  0.0368 -0.0156 -0.2268
  264loPI   PO4 4212   4.446   9.695   9.349 -0.0495 -0.1030 -0.2702
  264loPI   GL1 4213   4.668   9.754   9.131 -0.0341  0.0694 -0.1235
  264loPI   GL2 4214   4.795  10.050   9.001 -0.3704 -0.0790 -0.1596
  264loPI   C1A 4215   4.426   9.874   8.746 -0.1561  0.1639 -0.2428
  264loPI   C2A 4216   4.520   9.957   8.352 -0.1204  0.5367  0.0397
  264loPI   C3A 4217   4.907   9.908   8.105  0.0952  0.1170  0.1013
  264loPI   C4A 4218   4.928   9.524   7.828 -0.0074  0.0049  0.1334
  264loPI   C5A 4219   4.937   9.136   7.582  0.0628  0.2558 -0.5004
  264loPI   C6A 4220   5.145   9.275   7.217  0.0492 -0.0362  0.0152
  264loPI   C1B 4221   5.013   9.954   8.562  0.1504 -0.0260  0.0699
  264loPI   C2B 4222   5.307   9.702   8.302 -0.1554 -0.2349  0.1658
  264loPI   C3B 4223   5.656   9.483   8.213 -0.0119  0.0913 -0.2202
  264loPI   C4B 4224   6.121   9.418   8.082  0.0746  0.1278 -0.0133
  265loPI    C1 4225  13.182   8.867  10.247  0.2048 -0.1046  0.0475
  265loPI    C2 4226  13.485   8.632  10.362  0.0683 -0.1455  0.3350
  265loPI    C3 4227  13.339   8.907  10.613 -0.0329 -0.0209  0.1426
  265loPI   PO4 4228  13.198   8.912  10.051  0.0551 -0.2838 -0.3242
  265loPI   GL1 4229  13.213   9.039   9.695 -0.0862 -0.1152  0.4867
  265loPI   GL2 4230  13.456   9.229   9.507 -0.0683 -0.0814  0.0132
  265loPI   C1A 4231  13.004   9.103   9.206  0.1571  0.0559  0.1443
  265loPI   C2A 4232  12.711   9.284   8.968 -0.0691  0.0816 -0.2044
  265loPI   C3A 4233  12.514   9.224   8.674 -0.2770 -0.0511 -0.0793
  265loPI   C4A 4234  12.439   8.954   8.370 -0.1506 -0.1628 -0.0740
  265loPI   C5A 4235  12.767   8.763   8.088 -0.1202  0.3194 -0.0417
  265loPI   C6A 4236  13.129   8.881   7.812  0.1053 -0.2092  0.1760
  265loPI   C1B 4237  13.636   9.197   9.147 -0.3357 -0.0025 -0.0016
  265loPI   C2B 4238  13.820   9.106   8.730 -0.1792 -0.3553  0.1625
  265loPI   C3B 4239  13.899   9.160   8.306  0.1794  0.1668  0.0687
  265loPI   C4B 4240  13.799   9.304   7.946 -0.2718  0.1858 -0.1773
  266loPI    C1 4241   9.747  12.659  10.296  0.0364 -0.1316 -0.1246
  266loPI    C2 4242  10.143  12.713  10.304 -0.0029  0.1551 -0.0013
  266loPI    C3 4243   9.951  12.595  10.634 -0.0537  0.2697  0.0106
  266loPI   PO4 4244   9.702  12.378  10.197 -0.2519 -0.0371 -0.0086
  266loPI   GL1 4245   9.938  12.021   9.898  0.2140 -0.0620  0.0299
  266loPI   GL2 4246   9.632  11.927   9.765  0.1906 -0.0184 -0.0329
  266loPI   C1A 4247  10.257  12.037   9.557  0.3733 -0.1650 -0.0386
  266loPI   C2A 4248  10.525  12.111   9.288  0.4518  0.0570 -0.0573
  266loPI   C3A 4249  10.666  12.138   8.841  0.1726  0.1696  0.1034
  266loPI   C4A 4250  10.748  11.993   8.519  0.1146 -0.3543  0.0072
  266loPI   C5A 4251  11.166  11.999   8.353 -0.2307 -0.0999  0.2084
  266loPI   C6A 4252  11.446  12.234   8.383 -0.0375 -0.0459 -0.0606
  266loPI   C1B 4253   9.770  12.238   9.367  0.2061 -0.0437  0.0165
  266loPI   C2B 4254   9.726  12.365   8.934 -0.0251  0.1624 -0.4729
  266loPI   C3B 4255   9.695  12.303   8.479  0.1185 -0.3285  0.0090
  266loPI   C4B 4256   9.611  12.273   8.052  0.0922  0.1974 -0.2043
  267loPI    C1 4257   5.421   5.593  10.482 -0.0792 -0.0606  0.1686
  267loPI    C2 4258   5.616   5.940  10.518  0.0206 -0.0944 -0.0333
  267loPI    C3 4259   5.589   5.693  10.831  0.0389  0.0476  0.0815
  267loPI   PO4 4260   5.511   5.538  10.212 -0.3278 -0.1520  0.1235
  267loPI   GL1 4261   5.227   5.513   9.870 -0.0372 -0.1685 -0.0417
  267loPI   GL2 4262   5.042   5.299   9.957 -0.0866 -0.1512  0.0412
  267loPI   C1A 4263   5.519   5.268   9.570 -0.0503  0.0729 -0.0071
  267loPI   C2A 4264   5.562   5.203   9.144 -0.1036 -0.0844  0.0611
  267loPI   C3A 4265   5.433   5.333   8.791  0.3480  0.4073 -0.1036
  267loPI   C4A 4266   5.264   5.352   8.453  0.0774 -0.0859  0.1903
  267loPI   C5A 4267   4.986   5.423   8.152  0.1929  0.3028 -0.0989
  267loPI   C6A 4268   4.710   5.140   7.800  0.0258  0.2490  0.0984
  267loPI   C1B 4269   5.015   5.307   9.450 -0.0137  0.1814  0.1437
  267loPI   C2B 4270   5.002   5.245   9.043 -0.4174 -0.1709 -0.0127
  267loPI   C3B 4271   4.821   5.402   8.648 -0.0673  0.0389  0.1072
  267loPI   C4B 4272   4.743   5.726   8.471  0.2598 -0.3089 -0.0204
  268loPI    C1 4273  18.143  13.936  10.004 -0.1031  0.3029  0.3289
  268loPI    C2 4274  17.878  13.638   9.980 -0.0014  0.2282  0.1129
  268loPI    C3 4275  18.020  13.750  10.336 -0.0688  0.0444  0.1990
  268loPI   PO4 4276  18.276  13.919   9.788 -0.2252 -0.1200  0.0022
  268loPI   GL1 4277  18.390  13.952   9.304 -0.0625 -0.1412 -0.3427
  268loPI   GL2 4278  18.724  13.889   9.281 -0.0734 -0.3519  0.2612
  268loPI   C1A 4279  18.128  14.099   9.066  0.0286  0.0278 -0.0472
  268loPI   C2A 4280  18.109  14.059   8.584  0.0521 -0.1265  0.0055
  268loPI   C3A 4281  17.754  13.874   8.326  0.2278  0.2430  0.0926
  268loPI   C4A 4282  17.746  13.770   8.002 -0.0525 -0.0509  0.0106
  268loPI   C5A 4283  17.891  13.475   7.606  0.1544  0.0952  0.0124
  268loPI   C6A 4284  18.211  13.129   7.368 -0.0153 -0.2833  0.0205
  268loPI   C1B 4285  18.911  14.211   8.974  0.1217  0.0752 -0.0180
  268loPI   C2B 4286  18.937  14.528   8.627  0.1811 -0.3205  0.2928
  268loPI   C3B 4287  18.915  14.495   8.178 -0.0722  0.1471  0.1123
  268loPI   C4B 4288  18.817  14.789   7.854  0.1856 -0.1104  0.3116
  269loPI    C1 4289   0.515  16.654  10.061  0.0276 -0.1443  0.3415
  269loPI    C2 4290   0.583  16.882  10.383  0.0822  0.0829  0.1719
  269loPI    C3 4291   0.691  17.011  10.020  0.1200 -0.2184  0.0731
  269loPI   PO4 4292   0.266  16.684  10.024 -0.1323  0.3935 -0.4992
  269loPI   GL1 4293  -0.024  16.745   9.632 -0.0817  0.1718 -0.1792
  269loPI   GL2 4294   0.330  16.973   9.575  0.2573  0.0489 -0.0397
  269loPI   C1A 4295  -0.208  16.554   9.329  0.2425  0.0251 -0.2933
  269loPI   C2A 4296  -0.077  16.677   8.902  0.0261  0.4456 -0.3245
  269loPI   C3A 4297   0.020  16.897   8.532 -0.1952  0.1117  0.0638
  269loPI   C4A 4298   0.183  16.942   8.165  0.5212 -0.0019 -0.2050
  269loPI   C5A 4299  -0.012  16.890   7.809 -0.0905 -0.0948  0.1969
  269loPI   C6A 4300  -0.388  16.871   7.671  0.1209  0.1523 -0.1074
  269loPI   C1B 4301   0.278  16.838   9.206 -0.0132  0.0327 -0.1885
  269loPI   C2B 4302   0.417  16.855   8.799  0.2084 -0.1129 -0.3905
  269loPI   C3B 4303   0.572  16.619   8.452 -0.1566 -0.1289 -0.3174
  269loPI   C4B 4304   0.740  16.588   8.003  0.1811  0.0218  0.1005
  270loPI    C1 4305   0.813  13.666  10.185  0.0697  0.0661  0.0672
  270loPI    C2 4306   0.695  13.857  10.517 -0.0842  0.1217 -0.0182
  270loPI    C3 4307   1.037  13.961  10.337 -0.0340  0.1366  0.0850
  270loPI   PO4 4308   0.660  13.660   9.988 -0.0689 -0.1134  0.0862
  270loPI   GL1 4309   0.802  13.731   9.607 -0.3156  0.1251  0.0179
  270loPI   GL2 4310   1.142  13.757   9.832  0.0239 -0.4806  0.0653
  270loPI   C1A 4311   0.713  13.940   9.184  0.1261  0.2696 -0.0528
  270loPI   C2A 4312   0.742  14.328   8.832  0.0616 -0.0670  0.1391
  270loPI   C3A 4313   0.897  14.713   8.912  0.0277 -0.2391  0.1024
  270loPI   C4A 4314   1.037  15.181   8.717  0.2227 -0.0228  0.3804
  270loPI   C5A 4315   1.365  15.270   8.553 -0.4016  0.0366  0.0640
  270loPI   C6A 4316   1.743  15.412   8.699 -0.1951 -0.0750  0.0972
  270loPI   C1B 4317   1.165  14.032   9.406  0.1399  0.0580  0.2832
  270loPI   C2B 4318   1.351  14.183   8.917 -0.0442 -0.0193  0.1426
  270loPI   C3B 4319   1.163  14.414   8.572 -0.1462 -0.3272 -0.1870
  270loPI   C4B 4320   0.770  14.807   8.453 -0.1701 -0.1708 -0.1917
  271loPI    C1 4321   1.589   8.741   9.489 -0.0498 -0.1595  0.0829
  271loPI    C2 4322   1.261   8.953   9.574  0.0592  0.0650 -0.0489
  271loPI    C3 4323   1.335   8.613   9.770 -0.2013  0.0631  0.0501
  271loPI   PO4 4324   1.630   8.811   9.216 -0.1541 -0.1219 -0.1098
  271loPI   GL1 4325   1.559   9.129   8.830 -0.3112  0.1507 -0.0371
  271loPI   GL2 4326   1.327   9.363   8.759 -0.2178 -0.0809 -0.1937
  271loPI   C1A 4327   1.695   8.824   8.547  0.0298  0.2884  0.4371
  271loPI   C2A 4328   1.571   8.943   8.099  0.0856  0.5357 -0.1832
  271loPI   C3A 4329   1.771   8.783   7.772  0.3071 -0.0541  0.1628
  271loPI   C4A 4330   2.192   8.922   7.618 -0.3538 -0.1575 -0.0368
  271loPI   C5A 4331   2.549   8.681   7.546 -0.0177  0.1623 -0.0356
  271loPI   C6A 4332   3.029   8.613   7.519 -0.3389 -0.0166 -0.2426
  271loPI   C1B 4333   1.326   9.356   8.332 -0.2898  0.2455 -0.2868
  271loPI   C2B 4334   1.225   9.394   7.927  0.1825 -0.5851  0.0280
  271loPI   C3B 4335   1.372   9.672   7.588  0.0116  0.2818  0.0382
  271loPI   C4B 4336   1.191   9.946   7.292 -0.0980  0.3545  0.4213
  272loPI    C1 4337   3.744  12.962   9.959 -0.0929 -0.1723 -0.0115
  272loPI    C2 4338   3.922  13.010   9.604 -0.2265  0.1481 -0.0380
  272loPI    C3 4339   4.086  12.770   9.879 -0.0951 -0.0619 -0.2954
  272loPI   PO4 4340   3.498  12.875   9.819  0.1885 -0.2569  0.0795
  272loPI   GL1 4341   3.258  12.935   9.426 -0.1686  0.0071  0.1391
  272loPI   GL2 4342   3.465  13.185   9.413 -0.2249  0.0904  0.1010
  272loPI   C1A 4343   3.329  13.012   8.945 -0.0897  0.1145  0.1958
  272loPI   C2A 4344   3.319  13.125   8.538  0.2097 -0.1876 -0.1672
  272loPI   C3A 4345   3.272  13.201   8.152  0.1272 -0.0322  0.2935
  272loPI   C4A 4346   2.984  13.440   7.895 -0.1326  0.1097 -0.1069
  272loPI   C5A 4347   2.746  13.474   7.446 -0.0838  0.1928 -0.0165
  272loPI   C6A 4348   2.458  13.753   7.234  0.0093  0.1240  0.2508
  272loPI   C1B 4349   3.735  12.869   9.159 -0.2619 -0.0308 -0.0194
  272loPI   C2B 4350   3.897  12.547   8.934  0.4815 -0.2213 -0.0905
  272loPI   C3B 4351   4.181  12.381   8.638  0.0495  0.0429  0.0200
  272loPI   C4B 4352   4.401  12.352   8.219  0.0915  0.0543 -0.4012
  273loPI    C1 4353  17.028  18.517  10.165 -0.0526  0.1515  0.1445
  273loPI    C2 4354  16.939  18.730  10.492 -0.0194  0.0274  0.2352
  273loPI    C3 4355  16.646  18.574  10.269 -0.0545  0.4092  0.0048
  273loPI   PO4 4356  17.173  18.681   9.941 -0.0943 -0.2529 -0.1957
  273loPI   GL1 4357  17.029  18.812   9.555  0.0354  0.2172 -0.1270
  273loPI   GL2 4358  17.366  18.883   9.429 -0.0187 -0.1853 -0.0712
  273loPI   C1A 4359  17.107  18.509   9.208 -0.1104  0.1085  0.0627
  273loPI   C2A 4360  17.214  18.100   8.966 -0.0363  0.2833 -0.0006
  273loPI   C3A 4361  17.395  17.972   8.527 -0.0940  0.2705 -0.2496
  273loPI   C4A 4362  17.234  18.114   8.165  0.2989  0.2515 -0.0519
  273loPI   C5A 4363  17.547  18.032   7.953  0.5109 -0.1226  0.0462
  273loPI   C6A 4364  17.655  17.786   7.639 -0.1803 -0.0033  0.3690
  273loPI   C1B 4365  17.415  18.874   9.047 -0.0778 -0.0385 -0.5812
  273loPI   C2B 4366  17.454  18.937   8.571  0.0043  0.2593  0.0305
  273loPI   C3B 4367  17.525  19.058   8.165 -0.0694  0.0760  0.2136
  273loPI   C4B 4368  17.472  19.359   7.856  0.0085 -0.2231 -0.1828
  274loPI    C1 4369  16.775  11.440  10.425 -0.1410  0.0139  0.0999
  274loPI    C2 4370  16.928  11.514  10.787 -0.0184 -0.3997  0.1376
  274loPI    C3 4371  16.689  11.199  10.732 -0.3163 -0.1436 -0.0703
  274loPI   PO4 4372  16.684  11.632  10.287 -0.2235  0.1640 -0.0636
  274loPI   GL1 4373  16.555  11.727   9.896 -0.2691 -0.0902  0.0079
  274loPI   GL2 4374  16.509  12.070   9.880 -0.1143 -0.0427  0.0583
  274loPI   C1A 4375  16.781  11.790   9.509 -0.0603 -0.4127  0.0168
  274loPI   C2A 4376  16.690  11.922   9.100  0.0518 -0.0265 -0.2057
  274loPI   C3A 4377  16.660  11.917   8.698  0.1011  0.1432  0.1361
  274loPI   C4A 4378  16.751  11.857   8.350  0.1176 -0.0732 -0.1367
  274loPI   C5A 4379  16.662  11.813   7.885 -0.1953 -0.2178  0.0844
  274loPI   C6A 4380  16.334  12.102   7.705 -0.2562 -0.0886  0.1901
  274loPI   C1B 4381  16.417  12.189   9.425  0.1422  0.2504 -0.1477
  274loPI   C2B 4382  16.323  12.215   8.892 -0.1782 -0.1194 -0.1065
  274loPI   C3B 4383  16.387  12.283   8.441 -0.1619 -0.3602 -0.2403
  274loPI   C4B 4384  16.288  12.422   8.158  0.1191  0.2919  0.1030
  275loPI    C1 4385   1.921   5.563   9.659 -0.0328 -0.0515  0.2458
  275loPI    C2 4386   1.625   5.340   9.811 -0.2853  0.0429 -0.0957
  275loPI    C3 4387   1.633   5.734   9.878 -0.0831  0.0015  0.1386
  275loPI   PO4 4388   1.934   5.522   9.481  0.0060 -0.1181 -0.1191
  275loPI   GL1 4389   2.018   5.445   9.049 -0.2546  0.2666  0.2688
  275loPI   GL2 4390   2.068   5.054   9.085 -0.2083 -0.4462 -0.1816
  275loPI   C1A 4391   1.969   5.578   8.650  0.0452  0.0387 -0.1888
  275loPI   C2A 4392   1.690   5.800   8.468 -0.2139 -0.3314 -0.1120
  275loPI   C3A 4393   1.720   5.875   8.030  0.1177  0.0554 -0.0033
  275loPI   C4A 4394   1.782   5.891   7.617 -0.3362 -0.3170  0.0408
  275loPI   C5A 4395   1.954   5.874   7.321 -0.0593  0.3189  0.1695
  275loPI   C6A 4396   2.270   6.130   7.197 -0.2623  0.4306  0.0078
  275loPI   C1B 4397   2.032   5.026   8.626  0.0050 -0.2146 -0.1188
  275loPI   C2B 4398   2.122   5.185   8.317  0.0918 -0.0993 -0.1664
  275loPI   C3B 4399   2.219   5.133   7.900  0.0229  0.1804  0.1657
  275loPI   C4B 4400   1.998   4.958   7.447 -0.2767 -0.3753 -0.1114
  276loPI    C1 4401   4.790  16.075  10.403  0.0544  0.0071  0.0663
  276loPI    C2 4402   4.468  15.969  10.614 -0.0557  0.0992 -0.0538
  276loPI    C3 4403   4.799  16.091  10.802 -0.1676  0.2224  0.0648
  276loPI   PO4 4404   4.537  15.982  10.079  0.0077 -0.1350 -0.3399
  276loPI   GL1 4405   4.456  16.159   9.687  0.1663 -0.0009  0.1422
  276loPI   GL2 4406   4.328  16.427   9.798 -0.1432 -0.3726  0.0813
  276loPI   C1A 4407   4.535  16.299   9.246 -0.0468 -0.2063  0.1192
  276loPI   C2A 4408   4.685  16.515   8.913 -0.2560  0.2452 -0.1261
  276loPI   C3A 4409   4.801  16.404   8.529  0.0072  0.1898  0.1651
  276loPI   C4A 4410   4.925  16.411   8.102 -0.0533  0.1229 -0.0248
  276loPI   C5A 4411   4.782  16.633   7.791 -0.3813 -0.3207  0.1489
  276loPI   C6A 4412   4.359  16.904   7.549 -0.2334  0.0904  0.0810
  276loPI   C1B 4413   4.554  16.728   9.634  0.1070 -0.1788 -0.2389
  276loPI   C2B 4414   4.543  16.842   9.234 -0.0678  0.2819 -0.1199
  276loPI   C3B 4415   4.456  16.982   8.819  0.1092 -0.0037 -0.1431
  276loPI   C4B 4416   4.742  17.311   8.582 -0.1792  0.1350 -0.1038
  277loPI    C1 4417  16.140   0.751  10.298 -0.1697  0.3531  0.0384
  277loPI    C2 4418  15.853   0.572  10.512  0.0001 -0.0184 -0.0365
  277loPI    C3 4419  16.231   0.571  10.644  0.0327  0.1320 -0.1261
  277loPI   PO4 4420  16.152   0.699  10.098  0.1063 -0.1692 -0.0995
  277loPI   GL1 4421  16.238   0.604   9.639 -0.1703  0.0732  0.3483
  277loPI   GL2 4422  15.870   0.682   9.695  0.1292 -0.0236 -0.1125
  277loPI   C1A 4423  16.162   0.352   9.342  0.0445 -0.1487 -0.0885
  277loPI   C2A 4424  16.176   0.240   8.950  0.0125  0.0232 -0.2645
  277loPI   C3A 4425  16.010   0.294   8.493  0.2096  0.2914  0.1031
  277loPI   C4A 4426  15.704   0.225   8.273  0.1762  0.2493 -0.3267
  277loPI   C5A 4427  15.634  -0.131   8.031  0.2563  0.0077  0.3878
  277loPI   C6A 4428  15.526   0.073   7.559  0.2225  0.3364 -0.1195
  277loPI   C1B 4429  15.815   0.726   9.194 -0.1935  0.1298 -0.1685
  277loPI   C2B 4430  16.002   0.688   8.813 -0.0163  0.1458  0.2142
  277loPI   C3B 4431  16.215   0.769   8.423 -0.3875 -0.1090  0.1535
  277loPI   C4B 4432  16.217   0.953   8.103 -0.1119  0.2329  0.0350
  278loPI    C1 4433   4.418   7.597  10.361  0.0306  0.0067  0.0603
  278loPI    C2 4434   4.520   7.970  10.258 -0.1082  0.0011 -0.1012
  278loPI    C3 4435   4.341   7.902  10.608  0.0206  0.0705 -0.0209
  278loPI   PO4 4436   4.454   7.531  10.029 -0.0800 -0.0721  0.2077
  278loPI   GL1 4437   4.565   7.699   9.650 -0.0340  0.1095  0.0992
  278loPI   GL2 4438   4.839   7.739   9.790 -0.1079  0.0790  0.0593
  278loPI   C1A 4439   4.543   7.450   9.274  0.1674  0.3203 -0.1450
  278loPI   C2A 4440   4.672   7.385   8.871  0.0005 -0.1072 -0.1899
  278loPI   C3A 4441   4.722   7.220   8.447  0.2544  0.3696  0.1739
  278loPI   C4A 4442   4.782   6.896   8.045  0.2623  0.0356 -0.0215
  278loPI   C5A 4443   4.816   6.522   7.882  0.4750 -0.0908 -0.1534
  278loPI   C6A 4444   5.105   6.224   7.649 -0.2286 -0.1204  0.0574
  278loPI   C1B 4445   4.949   7.755   9.333  0.1379 -0.2131  0.0081
  278loPI   C2B 4446   4.932   8.052   8.950  0.1041  0.1217  0.3415
  278loPI   C3B 4447   5.011   8.097   8.503 -0.0312 -0.1457 -0.2048
  278loPI   C4B 4448   5.169   7.971   8.007 -0.0287 -0.1644  0.3313
  279loPI    C1 4449   7.864  16.605  10.052  0.0547 -0.0718  0.0001
  279loPI    C2 4450   8.112  16.753  10.328 -0.0441  0.2232 -0.0662
  279loPI    C3 4451   7.725  16.851  10.335 -0.1863 -0.3170  0.0997
  279loPI   PO4 4452   8.067  16.519   9.854  0.1692 -0.2367 -0.0703
  279loPI   GL1 4453   8.133  16.777   9.520  0.0881  0.3555 -0.3754
  279loPI   GL2 4454   8.501  16.889   9.484 -0.1909  0.0155  0.1936
  279loPI   C1A 4455   7.728  16.987   9.442 -0.1040  0.1295  0.2942
  279loPI   C2A 4456   7.617  16.873   9.030  0.0097 -0.0459  0.2632
  279loPI   C3A 4457   7.597  16.918   8.588  0.0420  0.1330  0.2091
  279loPI   C4A 4458   7.478  16.977   8.203 -0.2569 -0.0217  0.1489
  279loPI   C5A 4459   7.357  17.330   8.055  0.3132 -0.0425  0.1945
  279loPI   C6A 4460   7.230  17.821   7.867  0.0431 -0.2036  0.4105
  279loPI   C1B 4461   8.512  16.756   9.065  0.1490  0.2048  0.0458
  279loPI   C2B 4462   8.454  16.661   8.641 -0.0636  0.3049 -0.1061
  279loPI   C3B 4463   8.224  16.638   8.323 -0.2647  0.0284 -0.1719
  279loPI   C4B 4464   8.083  16.719   8.068  0.1406  0.0489  0.3164
  280loPI    C1 4465  17.100  13.302  10.430 -0.1376 -0.1452 -0.0187
  280loPI    C2 4466  17.275  13.491  10.736 -0.3774  0.2296 -0.1070
  280loPI    C3 4467  17.348  13.103  10.673  0.0298  0.2584  0.1499
  280loPI   PO4 4468  17.147  13.427  10.202 -0.0793 -0.0880  0.2485
  280loPI   GL1 4469  16.949  13.883   9.974  0.0688 -0.0248  0.2285
  280loPI   GL2 4470  16.651  14.101   9.846  0.0381 -0.1882  0.0240
  280loPI   C1A 4471  16.963  13.922   9.421  0.1284  0.1803 -0.1098
  280loPI   C2A 4472  17.081  13.970   9.016  0.0170  0.1939 -0.3564
  280loPI   C3A 4473  16.928  14.095   8.649  0.0895  0.0130 -0.0282
  280loPI   C4A 4474  16.960  14.336   8.328 -0.0138 -0.1514 -0.1811
  280loPI   C5A 4475  16.866  14.351   8.056 -0.2683  0.1076  0.1946
  280loPI   C6A 4476  16.611  14.551   7.885 -0.2859  0.2031 -0.0609
  280loPI   C1B 4477  16.625  14.341   9.527 -0.1703 -0.0045 -0.1179
  280loPI   C2B 4478  16.534  14.369   9.110 -0.0806 -0.2205  0.1836
  280loPI   C3B 4479  16.645  14.558   8.690  0.4674 -0.0426 -0.0553
  280loPI   C4B 4480  16.631  14.798   8.290  0.2649 -0.0121  0.1748
  281loPI    C1 4481  11.800   5.900  10.305  0.0389  0.0917  0.2081
  281loPI    C2 4482  12.019   5.797  10.624 -0.0279 -0.4594  0.0868
  281loPI    C3 4483  11.627   5.862  10.664  0.0143 -0.2443  0.1645
  281loPI   PO4 4484  11.887   5.607  10.035  0.1062  0.0568  0.0309
  281loPI   GL1 4485  11.865   5.390   9.738 -0.0155 -0.0428 -0.1461
  281loPI   GL2 4486  11.626   5.109   9.645 -0.0915  0.0555 -0.2373
  281loPI   C1A 4487  11.878   5.443   9.337 -0.4390 -0.2153  0.0486
  281loPI   C2A 4488  12.018   5.489   8.889 -0.2756 -0.1171  0.1510
  281loPI   C3A 4489  11.935   5.663   8.532 -0.0879  0.1854 -0.0962
  281loPI   C4A 4490  11.952   5.665   8.136  0.3683 -0.2864 -0.1389
  281loPI   C5A 4491  12.010   5.566   7.777  0.0701  0.2258  0.2466
  281loPI   C6A 4492  12.141   5.355   7.432  0.0004  0.2006 -0.4132
  281loPI   C1B 4493  11.614   4.946   9.263 -0.1613  0.0210 -0.0150
  281loPI   C2B 4494  11.600   4.803   8.906 -0.1188  0.0291  0.1743
  281loPI   C3B 4495  11.832   4.461   8.714  0.0083  0.1390  0.3123
  281loPI   C4B 4496  11.914   4.190   8.315  0.3784 -0.2136  0.0529
  282loPI    C1 4497  12.597  12.918  10.438 -0.1834  0.0220 -0.1255
  282loPI    C2 4498  12.468  12.541  10.472 -0.1706  0.0252 -0.0391
  282loPI    C3 4499  12.814  12.650  10.640 -0.1053  0.0418 -0.1824
  282loPI   PO4 4500  12.560  12.917  10.159  0.1263  0.3069 -0.0375
  282loPI   GL1 4501  12.573  12.603   9.846 -0.4445 -0.3874  0.0318
  282loPI   GL2 4502  12.320  12.893   9.681 -0.0493  0.0421  0.0745
  282loPI   C1A 4503  12.442  12.382   9.591 -0.0787  0.1553 -0.3211
  282loPI   C2A 4504  12.266  12.295   9.204 -0.1007  0.1151 -0.3514
  282loPI   C3A 4505  12.544  12.246   8.930  0.2020  0.2183 -0.0148
  282loPI   C4A 4506  12.449  12.059   8.575  0.2862 -0.2977  0.0696
  282loPI   C5A 4507  12.148  11.886   8.347 -0.0931  0.0219  0.0994
  282loPI   C6A 4508  12.025  11.485   8.190  0.1263 -0.2461  0.0827
  282loPI   C1B 4509  12.552  12.815   9.351  0.0036  0.0282 -0.0508
  282loPI   C2B 4510  12.708  13.055   8.836 -0.2701 -0.1176 -0.1678
  282loPI   C3B 4511  12.770  13.356   8.514  0.0075 -0.1864  0.0994
  282loPI   C4B 4512  12.671  13.667   8.290 -0.0062  0.0918 -0.1021
  283loPI    C1 4513   6.726  17.358  10.502  0.2328  0.1084 -0.0698
  283loPI    C2 4514   6.468  17.663  10.505  0.0057 -0.0801  0.3065
  283loPI    C3 4515   6.522  17.444  10.835  0.1705 -0.4443  0.0439
  283loPI   PO4 4516   6.987  17.508  10.351  0.0720  0.0225 -0.0769
  283loPI   GL1 4517   7.107  17.644   9.818  0.0440  0.2534 -0.0216
  283loPI   GL2 4518   7.332  17.376   9.790 -0.1289 -0.1174 -0.1039
  283loPI   C1A 4519   7.179  17.615   9.346 -0.2144  0.0330 -0.1021
  283loPI   C2A 4520   7.160  17.678   9.012  0.4883 -0.0725 -0.1327
  283loPI   C3A 4521   7.347  17.784   8.782  0.1256  0.0766 -0.3032
  283loPI   C4A 4522   7.430  17.947   8.340  0.1431  0.1183  0.0760
  283loPI   C5A 4523   7.456  18.234   7.896  0.0858  0.4268  0.2113
  283loPI   C6A 4524   7.459  18.316   7.449 -0.1493 -0.2172  0.0934
  283loPI   C1B 4525   7.212  17.034   9.512 -0.2686 -0.0156 -0.0300
  283loPI   C2B 4526   7.213  17.126   9.108 -0.0299 -0.2716 -0.0459
  283loPI   C3B 4527   7.180  17.327   8.687  0.2964  0.1066  0.2635
  283loPI   C4B 4528   6.984  17.604   8.380  0.0000  0.0292 -0.3240
  284loPI    C1 4529  13.260  13.948  10.432  0.0174 -0.0440  0.0160
  284loPI    C2 4530  13.008  13.659  10.317  0.0908 -0.0466 -0.1409
  284loPI    C3 4531  13.383  13.568  10.421  0.1142 -0.0076 -0.1910
  284loPI   PO4 4532  13.194  14.161  10.276  0.0553 -0.0936  0.2905
  284loPI   GL1 4533  13.306  14.202   9.875 -0.0590 -0.1488  0.1107
  284loPI   GL2 4534  13.645  14.197  10.018  0.3676 -0.0868 -0.1156
  284loPI   C1A 4535  12.977  14.177   9.529 -0.1631  0.1464 -0.0514
  284loPI   C2A 4536  12.635  14.062   9.203 -0.0565  0.0175 -0.1602
  284loPI   C3A 4537  12.273  14.280   9.027 -0.0622 -0.0950  0.2501
  284loPI   C4A 4538  12.238  14.393   8.564  0.1728 -0.1960  0.0331
  284loPI   C5A 4539  11.869  14.265   8.213  0.2011 -0.0162  0.2148
  284loPI   C6A 4540  11.708  14.400   7.836  0.0577 -0.1573  0.3997
  284loPI   C1B 4541  13.695  14.015   9.595  0.0168  0.3631 -0.1180
  284loPI   C2B 4542  13.427  13.793   9.371 -0.1119 -0.1143 -0.0510
  284loPI   C3B 4543  13.036  13.612   9.249  0.1317 -0.1372 -0.0418
  284loPI   C4B 4544  12.770  13.255   9.297  0.0241  0.0287  0.0402
  285loPI    C1 4545  16.030   1.358  10.127  0.2735 -0.1893 -0.2353
  285loPI    C2 4546  16.288   1.226  10.402  0.1160  0.1821  0.0996
  285loPI    C3 4547  15.977   1.453  10.511 -0.2209 -0.0576 -0.3285
  285loPI   PO4 4548  16.158   1.558   9.961  0.1668 -0.0018  0.1321
  285loPI   GL1 4549  16.473   1.758   9.704  0.1425  0.0577 -0.2960
  285loPI   GL2 4550  16.591   1.484   9.537  0.1037  0.2295  0.1604
  285loPI   C1A 4551  16.497   1.866   9.268 -0.3368 -0.1096  0.1206
  285loPI   C2A 4552  16.501   2.341   9.061  0.2883  0.1017  0.2350
  285loPI   C3A 4553  16.723   2.582   8.804  0.0849  0.1763 -0.3598
  285loPI   C4A 4554  16.997   2.587   8.330 -0.0425  0.0672 -0.0386
  285loPI   C5A 4555  17.033   2.660   7.863  0.2339  0.1423  0.3785
  285loPI   C6A 4556  17.089   2.373   7.505  0.0984 -0.0757 -0.1118
  285loPI   C1B 4557  16.527   1.367   9.111 -0.1308  0.0217 -0.0119
  285loPI   C2B 4558  16.411   1.583   8.841 -0.0917  0.0100 -0.2915
  285loPI   C3B 4559  16.456   1.898   8.709  0.2560  0.0664 -0.0821
  285loPI   C4B 4560  16.609   2.246   8.414 -0.2097 -0.1596 -0.1345
  286loPI    C1 4561   4.141   7.961   9.740  0.2011 -0.0832  0.0775
  286loPI    C2 4562   3.988   7.915  10.106 -0.2309  0.1986 -0.0605
  286loPI    C3 4563   3.921   7.638   9.826 -0.0597  0.0758  0.0185
  286loPI   PO4 4564   4.113   8.179   9.637 -0.1569 -0.0880 -0.0686
  286loPI   GL1 4565   4.304   8.329   9.240 -0.3487 -0.0452  0.2909
  286loPI   GL2 4566   4.457   8.022   9.329  0.2476  0.1334 -0.0447
  286loPI   C1A 4567   4.128   8.432   8.891 -0.2731  0.2631 -0.2429
  286loPI   C2A 4568   4.047   8.469   8.419  0.0094  0.1798 -0.0830
  286loPI   C3A 4569   3.897   8.707   8.088  0.3372  0.2190  0.0773
  286loPI   C4A 4570   3.759   9.025   7.722 -0.2375 -0.4442  0.2571
  286loPI   C5A 4571   3.426   9.496   7.587 -0.1070 -0.0106 -0.1295
  286loPI   C6A 4572   3.270   9.858   7.474  0.1303 -0.2056  0.2278
  286loPI   C1B 4573   4.490   7.925   8.890  0.3717 -0.0741  0.1191
  286loPI   C2B 4574   4.563   7.735   8.523  0.2696 -0.0531 -0.0778
  286loPI   C3B 4575   4.750   7.680   8.083  0.0344 -0.1384 -0.0471
  286loPI   C4B 4576   4.883   7.684   7.662 -0.0821  0.2848  0.1117
  287loPI    C1 4577   4.231  18.002  10.458 -0.0075 -0.2008  0.1093
  287loPI    C2 4578   4.053  18.076  10.809 -0.0849 -0.2751  0.0859
  287loPI    C3 4579   4.266  18.362  10.628 -0.1037 -0.2146  0.1591
  287loPI   PO4 4580   4.148  17.864  10.330  0.0767  0.1696  0.2371
  287loPI   GL1 4581   4.081  17.825   9.994 -0.0726 -0.2495  0.1548
  287loPI   GL2 4582   4.321  17.628   9.856  0.1456 -0.4587 -0.3070
  287loPI   C1A 4583   3.809  17.544   9.784  0.0736  0.2084 -0.0161
  287loPI   C2A 4584   3.754  17.358   9.461  0.0986  0.0149  0.0086
  287loPI   C3A 4585   3.656  17.459   9.037 -0.1529 -0.0212 -0.2453
  287loPI   C4A 4586   3.853  17.658   8.718 -0.1097 -0.1826 -0.1915
  287loPI   C5A 4587   4.061  17.771   8.320  0.4019  0.0628 -0.2532
  287loPI   C6A 4588   4.256  17.904   7.905 -0.0032 -0.0950  0.5208
  287loPI   C1B 4589   4.253  17.665   9.371  0.2843 -0.1576 -0.2551
  287loPI   C2B 4590   4.282  17.479   8.912  0.2272  0.0336 -0.1752
  287loPI   C3B 4591   4.265  17.374   8.499  0.1495 -0.0657 -0.0979
  287loPI   C4B 4592   4.519  17.577   8.181 -0.1594 -0.2760 -0.1796
  288loPI    C1 4593   0.806   0.846  10.448  0.1455  0.2363 -0.1072
  288loPI    C2 4594   1.180   0.983  10.414  0.0568  0.4806 -0.1156
  288loPI    C3 4595   0.983   1.021  10.760  0.1683  0.0154  0.0056
  288loPI   PO4 4596   0.701   0.906  10.143 -0.1674 -0.2206 -0.1239
  288loPI   GL1 4597   0.298   0.822   9.805  0.1445 -0.3084 -0.0564
  288loPI   GL2 4598   0.061   0.537   9.764  0.2978 -0.1187  0.0599
  288loPI   C1A 4599   0.384   1.104   9.402 -0.0633 -0.4940  0.2150
  288loPI   C2A 4600   0.440   0.956   8.915  0.1885  0.0767  0.3137
  288loPI   C3A 4601   0.518   1.084   8.446 -0.0634  0.0692  0.1377
  288loPI   C4A 4602   0.254   1.193   8.161  0.0349  0.0628 -0.1552
  288loPI   C5A 4603  -0.095   1.066   7.908 -0.2062  0.1506 -0.1214
  288loPI   C6A 4604  -0.469   1.040   7.720 -0.0161  0.2459  0.0512
  288loPI   C1B 4605   0.174   0.539   9.333  0.0058  0.0283 -0.1460
  288loPI   C2B 4606   0.193   0.499   8.799 -0.1334 -0.1821  0.1827
  288loPI   C3B 4607   0.507   0.567   8.485  0.0573 -0.0146 -0.1823
  288loPI   C4B 4608   0.472   0.658   8.121  0.1262  0.0947  0.0393
  289loPI    C1 4609   9.902   4.774  10.334 -0.3221  0.0842  0.0444
  289loPI    C2 4610   9.987   5.138  10.192  0.0520 -0.0124  0.0106
  289loPI    C3 4611   9.956   5.080  10.586 -0.3154  0.1162  0.0042
  289loPI   PO4 4612   9.667   4.681  10.227  0.0768 -0.0925  0.1821
  289loPI   GL1 4613   9.605   4.725   9.802  0.0134  0.3496  0.0619
  289loPI   GL2 4614   9.734   5.062   9.767 -0.0047 -0.1988 -0.0986
  289loPI   C1A 4615   9.641   4.671   9.356  0.0394 -0.1177 -0.2759
  289loPI   C2A 4616   9.709   4.946   8.999 -0.2697  0.0997  0.0291
  289loPI   C3A 4617   9.430   5.156   8.671 -0.1009 -0.0448  0.0017
  289loPI   C4A 4618   9.407   5.534   8.383 -0.1391  0.1434 -0.0813
  289loPI   C5A 4619   9.136   5.805   8.407 -0.0372  0.2512 -0.3753
  289loPI   C6A 4620   8.844   6.105   8.407 -0.2026 -0.1658 -0.0702
  289loPI   C1B 4621   9.918   5.083   9.390  0.1422  0.0072  0.2739
  289loPI   C2B 4622  10.158   5.100   8.976  0.2073 -0.0206 -0.1318
  289loPI   C3B 4623  10.383   5.164   8.574 -0.0746  0.1516  0.1161
  289loPI   C4B 4624  10.434   4.812   8.384  0.0842  0.0992 -0.2794
  290loPI    C1 4625  11.224  10.194  10.287 -0.0065  0.1716 -0.0204
  290loPI    C2 4626  11.310   9.858  10.488  0.2548  0.0626 -0.3072
  290loPI    C3 4627  11.398  10.215  10.647 -0.3342  0.0181  0.1514
  290loPI   PO4 4628  11.325  10.140  10.010 -0.0407 -0.0325 -0.1131
  290loPI   GL1 4629  11.240  10.284   9.615  0.0823 -0.1409  0.1034
  290loPI   GL2 4630  11.055   9.944   9.549 -0.0471  0.1467 -0.1868
  290loPI   C1A 4631  11.140  10.299   9.230  0.1121  0.0198 -0.2382
  290loPI   C2A 4632  11.012  10.106   8.899 -0.1025 -0.0122  0.1945
  290loPI   C3A 4633  11.106  10.121   8.466  0.0768  0.2625  0.1295
  290loPI   C4A 4634  11.278  10.177   8.105  0.1723  0.0681  0.1481
  290loPI   C5A 4635  11.487   9.962   7.860 -0.1358 -0.0597 -0.0064
  290loPI   C6A 4636  11.897  10.032   7.757 -0.2667  0.3097  0.1503
  290loPI   C1B 4637  11.136   9.614   9.267  0.0223  0.4209  0.2970
  290loPI   C2B 4638  11.085   9.566   8.829 -0.0396  0.0775  0.1580
  290loPI   C3B 4639  10.914   9.442   8.327  0.0816  0.0574 -0.2714
  290loPI   C4B 4640  10.551   9.699   8.157 -0.4474 -0.2432  0.2060
  291loPI    C1 4641   5.878   1.372  10.335  0.1254 -0.1063  0.1925
  291loPI    C2 4642   5.986   1.348   9.950 -0.1813 -0.0906  0.1030
  291loPI    C3 4643   6.238   1.502  10.219 -0.0228  0.0405 -0.1173
  291loPI   PO4 4644   5.719   1.174  10.350  0.0340 -0.0992 -0.0326
  291loPI   GL1 4645   5.495   0.956  10.022 -0.0627 -0.0353 -0.0082
  291loPI   GL2 4646   5.310   1.190   9.853 -0.3311 -0.2811  0.1139
  291loPI   C1A 4647   5.491   0.734   9.625 -0.0287  0.5294  0.0343
  291loPI   C2A 4648   5.630   0.473   9.341 -0.0362 -0.0417  0.1502
  291loPI   C3A 4649   5.551   0.348   8.928 -0.4274 -0.0023  0.0578
  291loPI   C4A 4650   5.478   0.515   8.609  0.1784 -0.0504  0.1134
  291loPI   C5A 4651   5.591   0.632   8.121  0.1552  0.3119  0.2466
  291loPI   C6A 4652   5.949   0.681   7.854  0.1799  0.2035  0.1389
  291loPI   C1B 4653   5.093   1.454   9.628 -0.0274 -0.0111 -0.1650
  291loPI   C2B 4654   5.291   1.669   9.339  0.2566 -0.0231  0.3475
  291loPI   C3B 4655   5.585   1.718   8.881  0.1544 -0.1669 -0.1920
  291loPI   C4B 4656   5.854   1.640   8.543 -0.1659 -0.3815 -0.0757
  292loPI    C1 4657   3.035   7.962   9.811  0.1183  0.0363  0.0192
  292loPI    C2 4658   2.825   8.278   9.685 -0.0961 -0.1487 -0.0922
  292loPI    C3 4659   2.687   8.053   9.986  0.2202  0.0580  0.2137
  292loPI   PO4 4660   3.065   7.796   9.576  0.0352  0.2353 -0.1648
  292loPI   GL1 4661   2.920   7.455   9.367 -0.2004  0.1314 -0.4106
  292loPI   GL2 4662   3.055   7.146   9.291 -0.1720  0.0686 -0.3096
  292loPI   C1A 4663   2.995   7.490   8.926 -0.0809 -0.2704  0.0978
  292loPI   C2A 4664   3.240   7.311   8.718  0.0750  0.0357 -0.0037
  292loPI   C3A 4665   3.312   7.318   8.319 -0.2718 -0.1776  0.0622
  292loPI   C4A 4666   3.263   7.317   7.957  0.0014  0.0875  0.1707
  292loPI   C5A 4667   3.127   7.223   7.552  0.1186 -0.3919 -0.0527
  292loPI   C6A 4668   3.222   7.630   7.423  0.1944  0.2289 -0.3330
  292loPI   C1B 4669   2.911   7.004   8.839 -0.1099 -0.0318  0.0967
  292loPI   C2B 4670   2.816   7.109   8.424 -0.0399 -0.0184 -0.0715
  292loPI   C3B 4671   2.914   6.978   8.003  0.0611 -0.0074  0.3071
  292loPI   C4B 4672   3.276   6.843   7.819  0.0324  0.0264 -0.0218
  293loPI    C1 4673  12.910  11.191  10.152 -0.0674 -0.1144 -0.1267
  293loPI    C2 4674  12.688  11.255  10.479  0.0414 -0.1267 -0.0496
  293loPI    C3 4675  12.936  10.942  10.464  0.3130  0.0823  0.0050
  293loPI   PO4 4676  13.062  11.429  10.042  0.2472  0.2243  0.1503
  293loPI   GL1 4677  13.315  11.320   9.708  0.2388  0.1795  0.0701
  293loPI   GL2 4678  13.022  11.075   9.675 -0.0329  0.2884  0.3820
  293loPI   C1A 4679  13.433  11.260   9.353 -0.0420  0.1075  0.0384
  293loPI   C2A 4680  13.647  11.331   8.975 -0.2132  0.2018 -0.1421
  293loPI   C3A 4681  13.795  11.326   8.480  0.0730 -0.0073  0.0856
  293loPI   C4A 4682  13.978  11.077   8.159 -0.0187  0.0433 -0.1465
  293loPI   C5A 4683  14.266  10.950   7.878 -0.1428  0.0350  0.3591
  293loPI   C6A 4684  14.793  10.746   7.882 -0.0862  0.0470  0.3499
  293loPI   C1B 4685  13.046  10.956   9.175  0.2826 -0.0759 -0.3797
  293loPI   C2B 4686  13.331  10.912   8.755 -0.2273 -0.0393  0.2451
  293loPI   C3B 4687  13.478  10.734   8.393  0.1655 -0.2425 -0.2788
  293loPI   C4B 4688  13.456  10.676   7.921  0.0740  0.2672 -0.1334
  294loPI    C1 4689  10.676  14.955  10.160  0.2779  0.1663  0.1335
  294loPI    C2 4690  10.814  14.807  10.505  0.1926  0.0986  0.1388
  294loPI    C3 4691  10.491  14.645  10.333  0.2960  0.0654 -0.0261
  294loPI   PO4 4692  10.887  14.943   9.965  0.2511 -0.0264  0.0890
  294loPI   GL1 4693  10.791  15.148   9.579 -0.0028  0.4385 -0.1509
  294loPI   GL2 4694  11.115  15.112   9.454 -0.2660  0.0629 -0.1361
  294loPI   C1A 4695  11.009  15.509   9.224 -0.0024  0.1410  0.1509
  294loPI   C2A 4696  11.098  15.445   8.828  0.0338  0.1019 -0.0890
  294loPI   C3A 4697  11.266  15.540   8.469  0.3676  0.3391 -0.0129
  294loPI   C4A 4698  11.366  15.891   8.171  0.0211  0.0232  0.0863
  294loPI   C5A 4699  11.638  16.017   7.895  0.0439 -0.1816  0.1778
  294loPI   C6A 4700  12.086  16.052   7.758 -0.1131  0.0776  0.2474
  294loPI   C1B 4701  11.226  14.983   9.175 -0.1738  0.1187  0.0211
  294loPI   C2B 4702  11.499  14.918   8.773  0.2799 -0.1590 -0.3374
  294loPI   C3B 4703  11.744  15.056   8.389 -0.3678 -0.1624  0.3034
  294loPI   C4B 4704  11.526  15.347   8.035  0.0563  0.1430 -0.1034
  295loPI    C1 4705  15.747   9.564  10.200 -0.2257 -0.0481 -0.0206
  295loPI    C2 4706  15.715   9.636  10.592 -0.1044 -0.1175  0.0024
  295loPI    C3 4707  16.075   9.628  10.419 -0.1607 -0.0429 -0.1191
  295loPI   PO4 4708  15.669   9.776  10.055 -0.2899  0.4240  0.0414
  295loPI   GL1 4709  15.363   9.846   9.720  0.0950 -0.0621  0.1824
  295loPI   GL2 4710  15.206  10.251   9.628  0.1280 -0.0024  0.0755
  295loPI   C1A 4711  15.347   9.922   9.327  0.2382  0.2279  0.2211
  295loPI   C2A 4712  15.582   9.859   8.920  0.2620 -0.1303 -0.0393
  295loPI   C3A 4713  15.608  10.027   8.531 -0.1167 -0.1852 -0.5496
  295loPI   C4A 4714  15.894  10.326   8.312 -0.3743  0.3043 -0.2209
  295loPI   C5A 4715  15.963  10.127   7.906 -0.1005  0.1929 -0.0524
  295loPI   C6A 4716  15.841  10.019   7.440 -0.0055 -0.1627  0.1154
  295loPI   C1B 4717  15.322  10.446   9.197  0.0079 -0.0787  0.0143
  295loPI   C2B 4718  15.398  10.352   8.841 -0.1775 -0.1759  0.1336
  295loPI   C3B 4719  15.049  10.444   8.618  0.0291 -0.0975 -0.4563
  295loPI   C4B 4720  14.826  10.660   8.824  0.1566 -0.2896  0.2995
  296loPI    C1 4721   7.790   1.974  10.625 -0.0288 -0.0473  0.0520
  296loPI    C2 4722   7.685   1.999  11.010 -0.3535 -0.1172 -0.0295
  296loPI    C3 4723   7.842   2.317  10.824 -0.2307 -0.0720  0.1498
  296loPI   PO4 4724   7.562   1.959  10.471 -0.0813 -0.0462  0.2244
  296loPI   GL1 4725   7.523   1.811  10.100  0.1304 -0.3742 -0.1653
  296loPI   GL2 4726   7.214   1.768  10.071 -0.0686  0.0916 -0.1438
  296loPI   C1A 4727   7.709   2.115   9.761 -0.1777 -0.2227 -0.0036
  296loPI   C2A 4728   7.777   2.073   9.330 -0.0717  0.3652  0.2400
  296loPI   C3A 4729   7.765   1.953   8.888 -0.0257  0.1153 -0.0289
  296loPI   C4A 4730   7.672   1.902   8.434 -0.1472  0.0409  0.3216
  296loPI   C5A 4731   7.984   1.985   8.148  0.1389 -0.1353  0.1300
  296loPI   C6A 4732   8.357   2.058   8.244  0.0298 -0.2872  0.3103
  296loPI   C1B 4733   7.250   2.033   9.745 -0.0078 -0.0459  0.1867
  296loPI   C2B 4734   7.292   2.279   9.490 -0.1819  0.0392 -0.1937
  296loPI   C3B 4735   7.343   2.191   9.135  0.0876 -0.2566  0.3763
  296loPI   C4B 4736   7.252   1.966   8.738  0.0298  0.0776 -0.0477
  297loPI    C1 4737   8.506  13.840  10.266 -0.2094  0.1287  0.1394
  297loPI    C2 4738   8.805  13.679  10.477 -0.2515 -0.1544 -0.0119
  297loPI    C3 4739   8.435  13.686  10.628 -0.1742  0.1891  0.1721
  297loPI   PO4 4740   8.528  13.988  10.162 -0.1870 -0.2311 -0.0549
  297loPI   GL1 4741   8.653  14.223   9.840 -0.1793 -0.0728 -0.1023
  297loPI   GL2 4742   8.397  14.250   9.742  0.2319 -0.0968 -0.0344
  297loPI   C1A 4743   8.862  14.297   9.502  0.2226  0.0568  0.1405
  297loPI   C2A 4744   8.957  14.297   9.087 -0.0878  0.0880 -0.0972
  297loPI   C3A 4745   8.878  14.084   8.732  0.2196  0.0685  0.0202
  297loPI   C4A 4746   8.844  13.966   8.272  0.0786 -0.1285 -0.0347
  297loPI   C5A 4747   8.687  13.842   7.859 -0.0117 -0.3111  0.0775
  297loPI   C6A 4748   8.743  13.689   7.455 -0.2218 -0.0844  0.1681
  297loPI   C1B 4749   8.409  14.154   9.214  0.2872 -0.4150 -0.1822
  297loPI   C2B 4750   8.130  14.208   8.887 -0.1068  0.0731  0.2320
  297loPI   C3B 4751   8.200  14.156   8.545  0.1635 -0.1356 -0.1576
  297loPI   C4B 4752   8.400  14.182   8.096  0.1660 -0.1023  0.2987
  298loPI    C1 4753  15.538  17.827  10.466 -0.1166 -0.0785  0.1605
  298loPI    C2 4754  15.558  18.213  10.571 -0.1886 -0.0430  0.0462
  298loPI    C3 4755  15.847  17.959  10.684  0.0571  0.1218 -0.1974
  298loPI   PO4 4756  15.387  17.890  10.248 -0.1187 -0.1198  0.1599
  298loPI   GL1 4757  15.184  17.671   9.875  0.1437 -0.0298 -0.0321
  298loPI   GL2 4758  15.366  17.638   9.663  0.2363  0.0995  0.0149
  298loPI   C1A 4759  15.002  17.936   9.468 -0.0305  0.0383 -0.0720
  298loPI   C2A 4760  14.936  17.986   8.999 -0.0620  0.0089  0.0239
  298loPI   C3A 4761  14.820  18.214   8.528  0.1705 -0.1389 -0.2120
  298loPI   C4A 4762  14.731  18.287   8.201 -0.3691 -0.2625  0.0128
  298loPI   C5A 4763  15.037  18.421   7.870 -0.2078  0.2234  0.0725
  298loPI   C6A 4764  15.064  18.291   7.448  0.1040 -0.2275  0.0890
  298loPI   C1B 4765  15.294  17.638   9.255  0.2264 -0.1217  0.1267
  298loPI   C2B 4766  15.250  17.641   8.786  0.1235  0.1205  0.0863
  298loPI   C3B 4767  15.012  17.718   8.336  0.2643  0.0281  0.1922
  298loPI   C4B 4768  14.986  17.935   7.964 -0.0730 -0.0585 -0.0418
  299loPI    C1 4769  13.243   2.102  10.535  0.1183  0.0714 -0.0371
  299loPI    C2 4770  13.413   2.461  10.583 -0.0748  0.1105  0.3946
  299loPI    C3 4771  13.368   2.217  10.897  0.1243 -0.3277  0.0921
  299loPI   PO4 4772  13.420   2.062  10.300  0.3794  0.0631  0.1138
  299loPI   GL1 4773  13.373   2.418  10.058  0.0325 -0.0299  0.0852
  299loPI   GL2 4774  13.426   2.288   9.832  0.3128  0.0486 -0.0794
  299loPI   C1A 4775  12.964   2.508   9.871 -0.3123 -0.1854  0.0384
  299loPI   C2A 4776  12.811   2.389   9.536 -0.2524  0.0018 -0.0303
  299loPI   C3A 4777  12.868   2.351   9.086  0.1626 -0.1533  0.0851
  299loPI   C4A 4778  13.070   2.715   8.928  0.2035  0.0126 -0.0451
  299loPI   C5A 4779  13.145   2.943   8.569  0.1471 -0.0168 -0.0338
  299loPI   C6A 4780  12.985   3.153   8.302  0.1564  0.1632  0.1655
  299loPI   C1B 4781  13.459   1.896   9.666  0.2295 -0.1124 -0.0736
  299loPI   C2B 4782  13.219   1.563   9.586  0.0182 -0.0985 -0.0999
  299loPI   C3B 4783  12.817   1.167   9.646 -0.2290  0.1852 -0.2123
  299loPI   C4B 4784  12.533   1.194   9.400 -0.0191 -0.0802  0.1725
  300loPI    C1 4785   8.207   7.353  10.359 -0.0351  0.1734 -0.0555
  300loPI    C2 4786   8.047   7.380   9.993 -0.0716 -0.2376 -0.0745
  300loPI    C3 4787   7.964   7.064  10.225  0.0611 -0.0485  0.2369
  300loPI   PO4 4788   8.346   7.588  10.343 -0.2501 -0.2376 -0.1342
  300loPI   GL1 4789   8.555   7.542  10.025  0.3122 -0.3169 -0.0100
  300loPI   GL2 4790   8.849   7.539   9.902  0.0899  0.0751 -0.1742
  300loPI   C1A 4791   8.420   7.536   9.578  0.0018  0.2355 -0.3928
  300loPI   C2A 4792   8.151   7.621   9.257 -0.3025  0.0039  0.0660
  300loPI   C3A 4793   8.219   7.850   8.941  0.1416  0.2987  0.1754
  300loPI   C4A 4794   8.351   8.111   8.557 -0.0114 -0.0714 -0.0478
  300loPI   C5A 4795   8.497   7.981   8.110  0.1424  0.0301  0.1075
  300loPI   C6A 4796   8.830   7.885   7.792 -0.0107 -0.1696  0.0223
  300loPI   C1B 4797   8.887   7.594   9.417 -0.2306  0.0527  0.2613
  300loPI   C2B 4798   8.630   7.607   9.101  0.2852 -0.3092 -0.0229
  300loPI   C3B 4799   8.357   7.314   8.925 -0.1571  0.0206  0.4017
  300loPI   C4B 4800   8.344   7.196   8.563  0.2055 -0.0710 -0.1100
  301loPI    C1 4801   1.407   4.254   9.787 -0.1473 -0.3104 -0.0599
  301loPI    C2 4802   1.484   3.909   9.974 -0.1583 -0.1601  0.2278
  301loPI    C3 4803   1.326   4.215  10.177 -0.1209  0.0255 -0.0181
  301loPI   PO4 4804   1.503   4.160   9.449 -0.1019  0.2782 -0.1879
  301loPI   GL1 4805   1.413   4.077   9.111  0.1518 -0.1062 -0.0778
  301loPI   GL2 4806   1.158   3.861   9.210  0.1531 -0.4132  0.1821
  301loPI   C1A 4807   1.477   4.306   8.788  0.0681 -0.0780  0.1248
  301loPI   C2A 4808   1.513   4.130   8.347  0.0590 -0.1231  0.2857
  301loPI   C3A 4809   1.360   4.037   8.027  0.0729  0.0442  0.0532
  301loPI   C4A 4810   1.419   4.146   7.584 -0.0375 -0.0607 -0.1373
  301loPI   C5A 4811   1.453   4.350   7.215 -0.2044  0.0215 -0.2295
  301loPI   C6A 4812   1.570   4.751   7.249 -0.2309  0.2016  0.5052
  301loPI   C1B 4813   1.166   3.848   8.712  0.1649 -0.1477  0.2677
  301loPI   C2B 4814   1.358   3.641   8.411 -0.0988 -0.0166 -0.2168
  301loPI   C3B 4815   1.529   3.557   8.026 -0.0465 -0.1311  0.0539
  301loPI   C4B 4816   1.649   3.509   7.662 -0.1002  0.2733 -0.0775
  302loPI    C1 4817   1.505   2.390  10.370 -0.0675  0.3103 -0.1290
  302loPI    C2 4818   1.535   2.494  10.755 -0.0550 -0.2315  0.0247
  302loPI    C3 4819   1.865   2.418  10.543 -0.0679 -0.0555 -0.0599
  302loPI   PO4 4820   1.315   2.560  10.267  0.0619  0.0163  0.1136
  302loPI   GL1 4821   1.167   2.696   9.923  0.2795  0.0555 -0.2437
  302loPI   GL2 4822   1.376   2.570   9.689  0.0778  0.0259  0.1817
  302loPI   C1A 4823   0.962   2.844   9.491  0.0784  0.3168 -0.2054
  302loPI   C2A 4824   1.029   2.916   9.033 -0.0125 -0.0587  0.1552
  302loPI   C3A 4825   1.059   2.827   8.563 -0.0311 -0.0854 -0.0417
  302loPI   C4A 4826   0.860   2.898   8.236  0.0142 -0.0991  0.2621
  302loPI   C5A 4827   1.007   3.328   7.821  0.3245  0.1351  0.1857
  302loPI   C6A 4828   1.147   3.690   7.743  0.1312  0.1646  0.0230
  302loPI   C1B 4829   1.413   2.632   9.195 -0.0680  0.3231  0.0101
  302loPI   C2B 4830   1.543   2.717   8.789  0.2501  0.3584  0.0379
  302loPI   C3B 4831   1.565   2.659   8.387 -0.1091 -0.3144  0.1431
  302loPI   C4B 4832   1.581   2.616   7.970 -0.1095  0.0895  0.4586
  303loPI    C1 4833  13.986   1.805  10.498 -0.1427 -0.0483 -0.3098
  303loPI    C2 4834  13.905   1.547  10.793 -0.0688 -0.1551 -0.3820
  303loPI    C3 4835  13.640   1.832  10.698  0.0221  0.0524 -0.0326
  303loPI   PO4 4836  14.203   1.833  10.367  0.0147 -0.1070  0.0128
  303loPI   GL1 4837  14.431   1.875  10.028  0.2111  0.1400  0.1241
  303loPI   GL2 4838  14.786   1.902  10.038  0.2265  0.1723  0.1462
  303loPI   C1A 4839  14.117   1.636   9.737 -0.0559  0.1686  0.0736
  303loPI   C2A 4840  14.052   1.693   9.280 -0.0367  0.0127  0.3795
  303loPI   C3A 4841  13.801   1.629   8.979 -0.4450  0.3247 -0.0478
  303loPI   C4A 4842  13.485   1.683   8.764 -0.3326  0.1897  0.1793
  303loPI   C5A 4843  13.264   1.663   8.318 -0.0181 -0.1366  0.3426
  303loPI   C6A 4844  12.858   1.771   8.156 -0.1907  0.1358  0.0085
  303loPI   C1B 4845  14.714   1.764   9.618 -0.0325  0.0570  0.2651
  303loPI   C2B 4846  14.398   1.993   9.479  0.2508  0.0437  0.0212
  303loPI   C3B 4847  14.145   2.162   9.126  0.1993 -0.0855  0.0849
  303loPI   C4B 4848  13.848   2.135   8.807 -0.2940 -0.0522 -0.2965
  304loPI    C1 4849  10.768  12.546  10.336  0.1916  0.0805  0.0636
  304loPI    C2 4850  10.514  12.719  10.593  0.0659 -0.0626  0.0375
  304loPI    C3 4851  10.900  12.675  10.691  0.0830  0.1606  0.0753
  304loPI   PO4 4852  10.727  12.237  10.324  0.0279  0.3008 -0.0642
  304loPI   GL1 4853  10.624  12.188   9.877 -0.1182  0.1040 -0.1460
  304loPI   GL2 4854  10.781  12.022   9.862  0.0160  0.0792  0.2251
  304loPI   C1A 4855  10.975  12.299   9.511 -0.1738  0.1444  0.1581
  304loPI   C2A 4856  11.161  12.373   9.044  0.0067 -0.0713 -0.3084
  304loPI   C3A 4857  11.139  12.579   8.658  0.3168 -0.2132 -0.1565
  304loPI   C4A 4858  11.092  12.640   8.262 -0.2289 -0.0909 -0.1492
  304loPI   C5A 4859  11.006  12.820   7.930  0.2703  0.1868  0.0644
  304loPI   C6A 4860  10.964  12.982   7.437  0.1323 -0.1091 -0.0746
  304loPI   C1B 4861  10.925  11.811   9.570 -0.0515 -0.1855 -0.0164
  304loPI   C2B 4862  10.999  11.856   9.129 -0.3106 -0.0280  0.2460
  304loPI   C3B 4863  11.316  11.912   8.816 -0.0907  0.1089 -0.1811
  304loPI   C4B 4864  11.679  11.715   8.501  0.0251 -0.0016  0.1991
  305loPI    C1 4865  12.990   7.163  10.589  0.1005 -0.2994 -0.0896
  305loPI    C2 4866  12.599   7.110  10.658  0.0676  0.0895  0.0481
  305loPI    C3 4867  12.869   6.981  10.924  0.0220  0.0450  0.0730
  305loPI   PO4 4868  13.014   7.110  10.251  0.0317  0.1323  0.0054
  305loPI   GL1 4869  12.754   7.021   9.884 -0.2261 -0.2714  0.0378
  305loPI   GL2 4870  12.486   7.051   9.704 -0.1907  0.1949 -0.1789
  305loPI   C1A 4871  13.001   7.105   9.554 -0.2450  0.0294 -0.0360
  305loPI   C2A 4872  13.193   6.976   9.213 -0.2338  0.1062  0.1290
  305loPI   C3A 4873  13.195   6.959   8.823 -0.2975 -0.1198  0.0931
  305loPI   C4A 4874  12.837   6.965   8.578  0.0247 -0.0804 -0.0527
  305loPI   C5A 4875  12.436   7.019   8.734  0.2250 -0.1945  0.0188
  305loPI   C6A 4876  12.142   6.896   9.049  0.0271  0.1846  0.2023
  305loPI   C1B 4877  12.659   7.423   9.598 -0.0870 -0.1186 -0.1710
  305loPI   C2B 4878  12.761   7.775   9.211  0.1639  0.1185  0.1980
  305loPI   C3B 4879  12.833   7.743   8.818  0.2422  0.2140 -0.4980
  305loPI   C4B 4880  12.677   7.450   8.533 -0.1129  0.0236  0.0294
  306loPI    C1 4881  13.643   1.244  10.442  0.0027 -0.1139 -0.1340
  306loPI    C2 4882  13.375   1.128  10.715  0.0092  0.2101  0.0156
  306loPI    C3 4883  13.766   1.093  10.791  0.0117  0.0771 -0.0535
  306loPI   PO4 4884  13.625   1.022  10.263  0.0729  0.1424 -0.5201
  306loPI   GL1 4885  13.319   0.962   9.936 -0.1992 -0.3022  0.2440
  306loPI   GL2 4886  13.191   1.153  10.166 -0.1672  0.2685 -0.0639
  306loPI   C1A 4887  13.270   0.989   9.553  0.2293 -0.2028 -0.3544
  306loPI   C2A 4888  13.279   0.785   9.161  0.4600  0.3780 -0.0247
  306loPI   C3A 4889  13.434   0.616   8.667 -0.0403  0.0086  0.1331
  306loPI   C4A 4890  13.762   0.452   8.388  0.2882  0.1703 -0.2165
  306loPI   C5A 4891  14.172   0.477   8.294 -0.3178 -0.0885  0.0879
  306loPI   C6A 4892  14.420   0.654   8.020 -0.2305  0.1057 -0.0499
  306loPI   C1B 4893  12.853   1.421  10.051 -0.0509 -0.2150  0.0897
  306loPI   C2B 4894  12.419   1.361   9.994 -0.2589  0.3213 -0.1966
  306loPI   C3B 4895  11.975   1.198   9.987  0.2486  0.4190 -0.0444
  306loPI   C4B 4896  11.522   1.179   9.878  0.0879  0.2363 -0.1362
  307loPI    C1 4897  18.213   5.867   9.688 -0.4305 -0.2016 -0.0855
  307loPI    C2 4898  18.343   5.626   9.979  0.1564  0.0100 -0.1580
  307loPI    C3 4899  18.029   5.866  10.043  0.2125 -0.0211  0.2645
  307loPI   PO4 4900  18.238   5.720   9.478 -0.0834  0.3039 -0.1520
  307loPI   GL1 4901  18.301   5.606   9.051  0.0473  0.1218 -0.0485
  307loPI   GL2 4902  18.080   5.932   9.012 -0.0418 -0.1409  0.0734
  307loPI   C1A 4903  18.506   5.382   8.755  0.0240 -0.1426 -0.0962
  307loPI   C2A 4904  18.331   5.216   8.362 -0.3939 -0.1764 -0.1955
  307loPI   C3A 4905  18.202   5.112   7.898  0.0154 -0.1463  0.0222
  307loPI   C4A 4906  18.621   5.074   7.579  0.1579 -0.0710 -0.0750
  307loPI   C5A 4907  18.800   5.281   7.162  0.2133 -0.2624  0.1713
  307loPI   C6A 4908  18.936   5.605   7.043 -0.0699  0.0744 -0.0159
  307loPI   C1B 4909  18.107   5.663   8.572 -0.2871  0.1940  0.0755
  307loPI   C2B 4910  17.926   5.530   8.188 -0.0171  0.0395  0.0744
  307loPI   C3B 4911  17.719   5.346   7.854  0.1095  0.2235  0.0227
  307loPI   C4B 4912  17.716   5.293   7.398 -0.0171 -0.3419 -0.1415
  308loPI    C1 4913   2.820   7.509   9.952 -0.2502  0.0002 -0.1315
  308loPI    C2 4914   2.828   7.353  10.320 -0.0888  0.0912 -0.0957
  308loPI    C3 4915   2.863   7.748  10.269 -0.0496  0.0731 -0.2122
  308loPI   PO4 4916   2.957   7.262   9.812 -0.0802 -0.3114 -0.1578
  308loPI   GL1 4917   3.403   7.438   9.585  0.4893 -0.2182 -0.2062
  308loPI   GL2 4918   3.390   7.039   9.657 -0.3220  0.0444  0.1640
  308loPI   C1A 4919   3.616   7.303   9.166  0.0444  0.0123  0.1593
  308loPI   C2A 4920   3.820   7.106   8.853 -0.0392 -0.1036 -0.0675
  308loPI   C3A 4921   3.695   7.114   8.517  0.2861 -0.1079  0.0785
  308loPI   C4A 4922   3.770   7.021   8.155  0.2222  0.1005 -0.0505
  308loPI   C5A 4923   3.856   6.718   7.772 -0.1750 -0.0340  0.1453
  308loPI   C6A 4924   4.078   6.275   7.610 -0.0673 -0.2338 -0.0286
  308loPI   C1B 4925   3.470   6.801   9.176 -0.1542 -0.3437  0.0041
  308loPI   C2B 4926   3.382   6.848   8.776  0.0283 -0.0464 -0.0148
  308loPI   C3B 4927   3.283   6.840   8.339 -0.2545 -0.0447  0.1766
  308loPI   C4B 4928   3.018   6.566   8.260 -0.0366 -0.0456 -0.1791
  309loPI    C1 4929  10.703   2.327  10.971  0.1737  0.0280  0.0829
  309loPI    C2 4930  10.348   2.272  11.147  0.1901 -0.3981 -0.0050
  309loPI    C3 4931  10.472   2.642  11.057 -0.2285 -0.2441  0.0276
  309loPI   PO4 4932  10.616   2.195  10.667  0.0231 -0.1112 -0.1632
  309loPI   GL1 4933  10.842   2.065  10.315 -0.1175 -0.1740  0.0432
  309loPI   GL2 4934  11.059   2.144  10.048 -0.1117  0.0976  0.1108
  309loPI   C1A 4935  10.653   1.950   9.900 -0.3343  0.4018  0.0796
  309loPI   C2A 4936  10.491   2.074   9.497 -0.0511 -0.2707  0.0862
  309loPI   C3A 4937  10.347   2.265   9.129  0.2041  0.3533 -0.1702
  309loPI   C4A 4938  10.193   2.136   8.685  0.2004 -0.0923  0.2790
  309loPI   C5A 4939  10.230   1.869   8.414  0.1797 -0.0696 -0.0179
  309loPI   C6A 4940  10.073   1.678   8.136 -0.2528 -0.0981  0.1679
  309loPI   C1B 4941  11.249   2.424   9.835  0.2179 -0.3790  0.3212
  309loPI   C2B 4942  11.497   2.385   9.508 -0.0791  0.1007  0.0017
  309loPI   C3B 4943  11.576   2.347   9.077 -0.0373 -0.0297  0.1937
  309loPI   C4B 4944  11.772   2.306   8.626  0.0416 -0.1998 -0.0256
  310loPI    C1 4945   7.022   2.681   9.999 -0.1445  0.1080  0.2054
  310loPI    C2 4946   7.274   2.719  10.307  0.0249  0.2787  0.0483
  310loPI    C3 4947   7.205   2.358  10.148  0.1290  0.2238  0.1260
  310loPI   PO4 4948   7.153   2.876   9.881  0.0430 -0.1435  0.1594
  310loPI   GL1 4949   7.426   3.211   9.896  0.0607  0.0390  0.1462
  310loPI   GL2 4950   7.099   3.318   9.635  0.0574 -0.1206  0.6091
  310loPI   C1A 4951   7.581   3.456   9.557 -0.2870  0.0673 -0.0626
  310loPI   C2A 4952   7.603   3.616   9.264  0.1928  0.2447 -0.0620
  310loPI   C3A 4953   7.826   3.745   8.958 -0.1200  0.0631  0.1296
  310loPI   C4A 4954   7.924   3.909   8.544  0.2026  0.1054  0.1207
  310loPI   C5A 4955   8.142   4.317   8.468  0.0208 -0.3278 -0.2913
  310loPI   C6A 4956   8.279   4.648   8.343  0.0943 -0.0264 -0.1770
  310loPI   C1B 4957   7.167   3.396   9.170 -0.1377 -0.1174  0.1162
  310loPI   C2B 4958   7.212   3.525   8.782 -0.0808  0.2043  0.3477
  310loPI   C3B 4959   7.124   3.376   8.395 -0.0099 -0.1222 -0.0080
  310loPI   C4B 4960   7.454   3.234   8.084 -0.1349  0.0283  0.3653
  311loPI    C1 4961   0.457   7.551   9.887  0.0271 -0.2491  0.3737
  311loPI    C2 4962   0.172   7.413  10.131 -0.1738  0.1788  0.3901
  311loPI    C3 4963   0.491   7.601  10.283 -0.1535  0.1850  0.3400
  311loPI   PO4 4964   0.329   7.531   9.637 -0.2566 -0.0233  0.0439
  311loPI   GL1 4965   0.380   7.283   9.331  0.3742  0.0977 -0.0935
  311loPI   GL2 4966   0.064   7.300   9.174  0.1295 -0.0459  0.1900
  311loPI   C1A 4967   0.465   7.247   8.853 -0.0275 -0.2167  0.1853
  311loPI   C2A 4968   0.663   7.094   8.425 -0.1322 -0.1401 -0.0369
  311loPI   C3A 4969   0.431   7.236   8.013 -0.2704  0.1080  0.0534
  311loPI   C4A 4970   0.493   7.444   7.525  0.3293 -0.1484  0.1349
  311loPI   C5A 4971   0.921   7.556   7.342 -0.1591  0.1234 -0.0714
  311loPI   C6A 4972   1.361   7.617   7.442 -0.0957 -0.0883 -0.0524
  311loPI   C1B 4973  -0.181   7.113   8.834  0.1038 -0.0184  0.0111
  311loPI   C2B 4974  -0.294   7.056   8.389  0.0444  0.1280  0.1741
  311loPI   C3B 4975  -0.516   7.077   7.989  0.0884 -0.0000 -0.1425
  311loPI   C4B 4976  -0.572   7.234   7.521 -0.3800 -0.1175 -0.0035
  312loPI    C1 4977   7.258  13.207  10.071 -0.1064 -0.0571 -0.1427
  312loPI    C2 4978   7.137  13.574  10.172 -0.0353 -0.1329  0.2315
  312loPI    C3 4979   7.484  13.433  10.311  0.0288 -0.2732 -0.0634
  312loPI   PO4 4980   7.124  13.179   9.866 -0.0767 -0.0124  0.2267
  312loPI   GL1 4981   7.022  13.136   9.512  0.2548  0.1720 -0.1672
  312loPI   GL2 4982   6.754  13.290   9.474 -0.1346 -0.1807 -0.0999
  312loPI   C1A 4983   7.149  13.126   9.070 -0.4108 -0.1050  0.1366
  312loPI   C2A 4984   6.871  13.087   8.615  0.0289 -0.0632  0.0970
  312loPI   C3A 4985   6.802  13.054   8.118  0.2377 -0.0164 -0.0061
  312loPI   C4A 4986   6.534  13.497   7.851  0.0347  0.1424  0.0360
  312loPI   C5A 4987   6.532  13.635   7.451  0.0255 -0.1005 -0.0801
  312loPI   C6A 4988   6.553  13.533   7.061 -0.0217 -0.0203  0.1214
  312loPI   C1B 4989   6.527  13.532   9.171  0.2258  0.0050  0.2059
  312loPI   C2B 4990   6.476  13.816   8.762 -0.1055 -0.0836 -0.2971
  312loPI   C3B 4991   6.446  14.275   8.676  0.2345 -0.1905 -0.0600
  312loPI   C4B 4992   6.701  14.606   8.776 -0.0137 -0.3213  0.0592
  313loPI    C1 4993   3.819   8.982   9.931  0.0651  0.1754  0.0874
  313loPI    C2 4994   3.833   8.752  10.257 -0.2063  0.0846  0.0382
  313loPI    C3 4995   3.875   9.148  10.290 -0.3615  0.0886  0.2002
  313loPI   PO4 4996   3.629   8.895   9.800  0.0440 -0.2846  0.1067
  313loPI   GL1 4997   3.580   8.821   9.361 -0.2322 -0.0073  0.0287
  313loPI   GL2 4998   3.825   8.904   9.065  0.3564  0.1119 -0.0876
  313loPI   C1A 4999   3.356   8.794   8.996  0.1424  0.2921 -0.2662
  313loPI   C2A 5000   3.420   8.865   8.570  0.0394  0.0391  0.0720
  313loPI   C3A 5001   3.556   9.192   8.342 -0.0466 -0.1381 -0.1724
  313loPI   C4A 5002   3.837   9.387   8.071  0.0438 -0.0556  0.0836
  313loPI   C5A 5003   4.006   9.501   7.637  0.3214  0.1773 -0.1107
  313loPI   C6A 5004   4.211   9.573   7.198 -0.1514  0.0979  0.1782
  313loPI   C1B 5005   3.882   8.819   8.717  0.0627 -0.0114  0.0040
  313loPI   C2B 5006   4.051   9.028   8.395 -0.2857  0.0673  0.0501
  313loPI   C3B 5007   4.201   9.041   7.918 -0.1335 -0.0527 -0.0200
  313loPI   C4B 5008   4.254   8.831   7.558 -0.1634 -0.0735 -0.1255
  314loPI    C1 5009  18.472  16.447  10.270  0.0480 -0.0120  0.1517
  314loPI    C2 5010  18.079  16.517  10.245  0.0292 -0.1392  0.0847
  314loPI    C3 5011  18.229  16.326  10.563  0.0893  0.2577  0.3011
  314loPI   PO4 5012  18.465  16.388   9.953  0.1814  0.1267  0.0635
  314loPI   GL1 5013  18.094  16.305   9.707  0.1482 -0.0567 -0.1241
  314loPI   GL2 5014  17.821  16.200   9.839  0.2192  0.1505 -0.0803
  314loPI   C1A 5015  17.994  16.315   9.325 -0.0908  0.3349  0.1306
  314loPI   C2A 5016  18.004  16.298   8.898 -0.2572  0.2673 -0.2328
  314loPI   C3A 5017  17.929  16.359   8.509 -0.0827  0.3631 -0.2132
  314loPI   C4A 5018  18.013  16.066   8.187  0.0572  0.2496  0.2660
  314loPI   C5A 5019  18.193  15.980   7.945 -0.1950  0.2543  0.4759
  314loPI   C6A 5020  18.416  16.007   7.698  0.1486 -0.0488  0.3487
  314loPI   C1B 5021  17.578  16.517   9.669  0.0122 -0.1111  0.1771
  314loPI   C2B 5022  17.546  16.592   9.224  0.2021 -0.0028  0.1115
  314loPI   C3B 5023  17.575  16.557   8.743  0.1150  0.1499  0.4126
  314loPI   C4B 5024  17.540  16.569   8.355 -0.1760  0.0411 -0.1275
  315loPI    C1 5025   6.010   4.724  10.314 -0.1609 -0.0251  0.2897
  315loPI    C2 5026   5.741   5.019  10.286 -0.2308 -0.1034  0.1235
  315loPI    C3 5027   5.962   4.981  10.617 -0.2476  0.1128  0.1607
  315loPI   PO4 5028   5.915   4.540  10.102 -0.2326 -0.1390 -0.5037
  315loPI   GL1 5029   5.777   4.604   9.664  0.0171  0.2491  0.1108
  315loPI   GL2 5030   6.096   4.375   9.684  0.0781 -0.0219 -0.1159
  315loPI   C1A 5031   5.549   4.736   9.318  0.1370 -0.2725  0.0161
  315loPI   C2A 5032   5.344   4.835   8.902  0.2569 -0.3179 -0.1060
  315loPI   C3A 5033   5.387   4.790   8.429 -0.2953  0.1263 -0.2646
  315loPI   C4A 5034   5.574   4.571   8.097  0.5904 -0.0479 -0.2115
  315loPI   C5A 5035   5.871   4.583   7.709 -0.1100  0.0372  0.0316
  315loPI   C6A 5036   6.274   4.383   7.591 -0.1223 -0.0671  0.0905
  315loPI   C1B 5037   6.134   4.511   9.217  0.3040  0.1563 -0.1544
  315loPI   C2B 5038   6.373   4.808   8.929 -0.0949  0.0488  0.0804
  315loPI   C3B 5039   6.361   4.862   8.587  0.0673 -0.0404  0.3624
  315loPI   C4B 5040   6.619   4.929   8.253 -0.1014  0.1939 -0.1753
  316loPI    C1 5041   2.053  11.110   9.986 -0.0511 -0.0425  0.1644
  316loPI    C2 5042   1.883  10.801   9.797 -0.1731  0.0569  0.1103
  316loPI    C3 5043   1.880  10.817  10.197 -0.1047 -0.0462  0.1153
  316loPI   PO4 5044   1.989  11.275   9.789  0.0447 -0.0824 -0.1891
  316loPI   GL1 5045   2.169  11.530   9.385  0.1882 -0.3858  0.3724
  316loPI   GL2 5046   2.114  11.893   9.381 -0.0711  0.2877  0.1070
  316loPI   C1A 5047   2.415  11.341   9.009 -0.1692 -0.1639  0.0404
  316loPI   C2A 5048   2.523  11.365   8.619 -0.0920  0.0660 -0.0992
  316loPI   C3A 5049   2.640  11.346   8.140  0.2057  0.0182  0.0124
  316loPI   C4A 5050   2.817  11.287   7.810 -0.0330 -0.1488 -0.0352
  316loPI   C5A 5051   3.090  10.901   7.704 -0.1832  0.1606 -0.0853
  316loPI   C6A 5052   2.981  10.720   7.251  0.0573 -0.0537 -0.1548
  316loPI   C1B 5053   2.071  12.085   9.053  0.1111 -0.1760 -0.0750
  316loPI   C2B 5054   2.165  12.217   8.675 -0.0650 -0.0937 -0.3181
  316loPI   C3B 5055   2.259  12.279   8.175 -0.1362 -0.2019 -0.0312
  316loPI   C4B 5056   2.425  12.255   7.682  0.2046  0.0323 -0.0092
  317loPI    C1 5057  14.334   5.584  10.051  0.1556 -0.0443  0.0740
  317loPI    C2 5058  14.083   5.628  10.359 -0.1359 -0.1654 -0.1408
  317loPI    C3 5059  14.174   5.262  10.226  0.2400 -0.1276 -0.0012
  317loPI   PO4 5060  14.213   5.787   9.848  0.3554  0.2949 -0.0602
  317loPI   GL1 5061  14.042   6.108   9.481 -0.0396 -0.0263  0.1995
  317loPI   GL2 5062  13.818   5.949   9.514 -0.0800  0.2368 -0.1459
  317loPI   C1A 5063  14.258   6.039   9.053  0.1091 -0.1120  0.2221
  317loPI   C2A 5064  14.338   5.979   8.650 -0.0870  0.2236  0.0276
  317loPI   C3A 5065  14.335   5.797   8.276  0.1029 -0.0762 -0.0345
  317loPI   C4A 5066  14.031   5.487   8.192  0.2916  0.2632  0.4238
  317loPI   C5A 5067  13.774   5.150   8.200 -0.2104  0.0549  0.0726
  317loPI   C6A 5068  13.382   5.041   8.118  0.0510  0.0250  0.1015
  317loPI   C1B 5069  13.632   5.955   9.111  0.0723  0.0283  0.0679
  317loPI   C2B 5070  13.494   6.072   8.766  0.2641 -0.0022 -0.1016
  317loPI   C3B 5071  13.229   6.043   8.464 -0.0194 -0.1988 -0.0029
  317loPI   C4B 5072  13.314   6.106   8.129  0.1794  0.1409  0.2040
  318loPI    C1 5073   2.423   2.213  10.533 -0.4694  0.0934 -0.1237
  318loPI    C2 5074   2.738   2.450  10.602 -0.0870 -0.4015 -0.1109
  318loPI    C3 5075   2.452   2.412  10.879 -0.2111  0.1184 -0.1573
  318loPI   PO4 5076   2.332   2.358  10.230 -0.1772  0.1714  0.1783
  318loPI   GL1 5077   2.039   2.396   9.851  0.3577  0.1844 -0.1079
  318loPI   GL2 5078   1.844   2.435   9.569  0.4505 -0.1256 -0.0412
  318loPI   C1A 5079   2.322   2.487   9.395  0.0812  0.0653 -0.1000
  318loPI   C2A 5080   2.286   2.378   9.042 -0.0538  0.3890 -0.0547
  318loPI   C3A 5081   2.397   2.412   8.710 -0.0024  0.0493  0.1116
  318loPI   C4A 5082   2.405   2.254   8.205  0.0504 -0.3119 -0.3012
  318loPI   C5A 5083   2.407   2.115   7.804  0.0102  0.0219 -0.3283
  318loPI   C6A 5084   2.801   1.921   7.565  0.3011  0.1046 -0.1018
  318loPI   C1B 5085   2.003   2.079   9.407 -0.0708  0.3129  0.1990
  318loPI   C2B 5086   2.103   1.895   8.958  0.0587  0.0809 -0.2092
  318loPI   C3B 5087   2.290   1.861   8.511 -0.1702 -0.0455  0.1689
  318loPI   C4B 5088   2.508   1.727   8.097 -0.0887  0.0165  0.0819
  319loPI    C1 5089  16.230   8.577   9.868 -0.3599  0.1173 -0.0889
  319loPI    C2 5090  16.269   8.975   9.841  0.2230  0.0703 -0.0615
  319loPI    C3 5091  16.334   8.790  10.190  0.0234 -0.0592 -0.0911
  319loPI   PO4 5092  16.015   8.534   9.709 -0.2223  0.1640 -0.1641
  319loPI   GL1 5093  15.961   8.790   9.403 -0.0691  0.0547 -0.1389
  319loPI   GL2 5094  15.598   8.701   9.524  0.1565 -0.0890  0.2307
  319loPI   C1A 5095  15.832   9.103   9.247  0.0246 -0.1514  0.0304
  319loPI   C2A 5096  15.574   9.032   8.880  0.0540  0.1774  0.2794
  319loPI   C3A 5097  15.611   9.141   8.449  0.0461 -0.0389 -0.1611
  319loPI   C4A 5098  15.429   9.177   8.039 -0.0806  0.1560  0.0617
  319loPI   C5A 5099  15.508   9.207   7.607 -0.0056  0.3981  0.0166
  319loPI   C6A 5100  15.713   9.498   7.325 -0.0665 -0.0500 -0.0943
  319loPI   C1B 5101  15.556   8.574   9.120 -0.0481  0.3005 -0.0649
  319loPI   C2B 5102  15.553   8.598   8.630 -0.1223  0.0091  0.0441
  319loPI   C3B 5103  15.891   8.668   8.362 -0.3035 -0.1114  0.2063
  319loPI   C4B 5104  16.010   8.989   8.066  0.2081  0.0387 -0.0073
  320loPI    C1 5105   5.363   2.818  10.123  0.1002  0.2683 -0.0181
  320loPI    C2 5106   5.118   2.838  10.439  0.1331  0.1366  0.0162
  320loPI    C3 5107   5.212   3.171  10.238 -0.1190  0.1806 -0.0321
  320loPI   PO4 5108   5.546   2.697  10.203  0.1423 -0.0464 -0.0546
  320loPI   GL1 5109   5.701   2.299   9.923 -0.0194 -0.0038 -0.4429
  320loPI   GL2 5110   5.446   2.419   9.823  0.2686  0.1204 -0.0892
  320loPI   C1A 5111   5.950   2.439   9.637 -0.3109 -0.1233 -0.2151
  320loPI   C2A 5112   6.304   2.400   9.414  0.1463 -0.0739  0.6591
  320loPI   C3A 5113   6.396   2.470   9.054 -0.3064  0.0596  0.2516
  320loPI   C4A 5114   6.530   2.416   8.629 -0.0230 -0.4291  0.1494
  320loPI   C5A 5115   6.358   2.211   8.334  0.0538  0.0864  0.0286
  320loPI   C6A 5116   6.035   1.949   8.132  0.2420 -0.0046  0.0513
  320loPI   C1B 5117   5.585   2.669   9.511 -0.0387  0.0433  0.0850
  320loPI   C2B 5118   5.448   2.696   8.961  0.1235  0.0312 -0.4354
  320loPI   C3B 5119   5.512   2.898   8.567 -0.5939  0.3471 -0.0825
  320loPI   C4B 5120   5.746   3.094   8.187  0.2445  0.2446 -0.0483
  321loPI    C1 5121  15.419   1.609  10.449  0.0540 -0.1845  0.1664
  321loPI    C2 5122  15.033   1.587  10.551 -0.0303  0.0076 -0.0999
  321loPI    C3 5123  15.316   1.515  10.824 -0.2525 -0.0728  0.1133
  321loPI   PO4 5124  15.531   1.448  10.209  0.1144 -0.5093 -0.0237
  321loPI   GL1 5125  15.586   1.296   9.861 -0.1184 -0.1236 -0.0476
  321loPI   GL2 5126  15.802   1.256   9.683  0.3603  0.1655 -0.3799
  321loPI   C1A 5127  15.322   1.022   9.581  0.0323 -0.1242  0.0073
  321loPI   C2A 5128  15.154   1.066   9.149  0.2703 -0.0944 -0.0112
  321loPI   C3A 5129  15.176   1.306   8.807 -0.1324  0.2661  0.1435
  321loPI   C4A 5130  15.400   1.433   8.506  0.3732 -0.1935 -0.0632
  321loPI   C5A 5131  15.635   1.517   8.148  0.2421 -0.1005  0.0219
  321loPI   C6A 5132  16.051   1.612   8.163 -0.0071 -0.2005 -0.2094
  321loPI   C1B 5133  16.045   1.197   9.306  0.1350 -0.1119 -0.1302
  321loPI   C2B 5134  16.113   1.199   8.850  0.0619 -0.0168  0.2418
  321loPI   C3B 5135  15.925   1.260   8.452 -0.1637  0.0128 -0.3216
  321loPI   C4B 5136  15.739   0.804   8.244 -0.2601 -0.0323 -0.1671
  322loPI    C1 5137   1.683  15.070  10.478  0.1587  0.1247 -0.2272
  322loPI    C2 5138   1.752  14.683  10.548 -0.1648  0.1051  0.0033
  322loPI    C3 5139   2.047  14.949  10.593  0.0335 -0.1007 -0.0601
  322loPI   PO4 5140   1.629  15.099  10.197 -0.1509 -0.0840 -0.1502
  322loPI   GL1 5141   1.829  15.099   9.860 -0.0824  0.3245  0.0588
  322loPI   GL2 5142   1.813  15.422   9.668 -0.1141 -0.0596  0.1065
  322loPI   C1A 5143   1.961  15.014   9.416 -0.1790  0.1157  0.2518
  322loPI   C2A 5144   1.925  15.003   8.911  0.0305  0.1050 -0.0486
  322loPI   C3A 5145   1.789  14.948   8.489 -0.2626  0.3977  0.1865
  322loPI   C4A 5146   1.730  15.146   8.056  0.0863 -0.1448  0.1316
  322loPI   C5A 5147   1.841  15.515   8.059 -0.0161  0.0118  0.0886
  322loPI   C6A 5148   1.670  15.960   8.072  0.2736  0.1013 -0.2151
  322loPI   C1B 5149   1.870  15.522   9.337  0.1741  0.1046  0.1106
  322loPI   C2B 5150   2.189  15.399   9.029  0.3274  0.0882  0.4067
  322loPI   C3B 5151   2.290  15.551   8.608 -0.3066  0.0122 -0.0976
  322loPI   C4B 5152   2.584  15.561   8.250  0.0912 -0.0518 -0.1293
  323loPI    C1 5153  14.239   9.205  10.038 -0.1783 -0.1978 -0.0747
  323loPI    C2 5154  14.208   9.327  10.417 -0.2519 -0.1307 -0.1018
  323loPI    C3 5155  14.422   9.000  10.329 -0.2496 -0.1569 -0.0008
  323loPI   PO4 5156  14.054   9.379   9.965 -0.0277 -0.0322 -0.1720
  323loPI   GL1 5157  13.845   9.620   9.743  0.1877 -0.1225  0.0048
  323loPI   GL2 5158  13.949   9.897   9.817  0.2545  0.1732 -0.0262
  323loPI   C1A 5159  13.807   9.707   9.317  0.0614  0.1916 -0.0485
  323loPI   C2A 5160  13.977   9.604   8.969  0.0169 -0.0643 -0.2288
  323loPI   C3A 5161  14.152   9.631   8.592 -0.2959 -0.2451  0.2790
  323loPI   C4A 5162  14.304   9.492   8.186 -0.1581  0.1547 -0.0546
  323loPI   C5A 5163  14.179   9.492   7.779 -0.1198  0.0859 -0.1239
  323loPI   C6A 5164  13.882   9.444   7.443 -0.1590 -0.0380 -0.3545
  323loPI   C1B 5165  14.271   9.927   9.447 -0.1157  0.1116 -0.0669
  323loPI   C2B 5166  14.379   9.808   9.095 -0.1188 -0.0010 -0.0693
  323loPI   C3B 5167  14.543   9.966   8.784  0.1458 -0.0101 -0.1658
  323loPI   C4B 5168  14.665  10.219   8.543  0.1023  0.2135 -0.1684
  324loPI    C1 5169  16.222  16.030  10.313  0.0662 -0.1293  0.1469
  324loPI    C2 5170  16.148  16.406  10.198 -0.1332 -0.1916  0.0664
  324loPI    C3 5171  16.289  16.334  10.565 -0.1462 -0.0423  0.1015
  324loPI   PO4 5172  16.412  15.962  10.043  0.0211  0.1721  0.2155
  324loPI   GL1 5173  16.635  15.783   9.642 -0.0651  0.1609 -0.3322
  324loPI   GL2 5174  16.933  15.789   9.691  0.2340  0.0697 -0.2626
  324loPI   C1A 5175  16.288  15.874   9.373  0.2401 -0.0791  0.1659
  324loPI   C2A 5176  16.194  16.088   8.992  0.3224 -0.0263 -0.2948
  324loPI   C3A 5177  15.848  16.281   8.814  0.1525  0.1824  0.1940
  324loPI   C4A 5178  15.627  16.250   8.470 -0.1667  0.2506  0.1214
  324loPI   C5A 5179  15.434  16.509   8.144 -0.0444 -0.3472 -0.0174
  324loPI   C6A 5180  15.731  16.590   7.764 -0.0215  0.0347  0.1399
  324loPI   C1B 5181  17.102  15.726   9.296  0.0128 -0.0415 -0.0070
  324loPI   C2B 5182  17.065  15.842   8.873  0.3706 -0.0029 -0.0512
  324loPI   C3B 5183  16.844  15.790   8.517 -0.0668 -0.0977  0.1420
  324loPI   C4B 5184  16.706  15.762   8.171  0.1361 -0.3065  0.0263
  325loPI    C1 5185  12.878   0.468  10.544  0.1888 -0.1172  0.0055
  325loPI    C2 5186  12.826   0.318  10.912 -0.1294  0.2124  0.1009
  325loPI    C3 5187  13.111   0.591  10.845 -0.0086  0.0821  0.0802
  325loPI   PO4 5188  12.842   0.215  10.419 -0.2724  0.2151  0.2765
  325loPI   GL1 5189  13.015   0.116  10.043 -0.0516  0.4318 -0.1186
  325loPI   GL2 5190  13.075   0.420  10.023 -0.2543  0.0788 -0.0493
  325loPI   C1A 5191  12.814  -0.053   9.647 -0.2808  0.1427 -0.1882
  325loPI   C2A 5192  12.739  -0.222   9.250 -0.2582  0.1536 -0.0662
  325loPI   C3A 5193  12.424  -0.267   8.934  0.1344 -0.0435 -0.1397
  325loPI   C4A 5194  12.207  -0.210   8.561 -0.2480 -0.0371 -0.0635
  325loPI   C5A 5195  12.077   0.177   8.329 -0.1368 -0.0604 -0.1713
  325loPI   C6A 5196  12.047   0.583   8.157 -0.3620  0.2038 -0.2972
  325loPI   C1B 5197  13.282   0.500   9.741 -0.1446 -0.0251 -0.0815
  325loPI   C2B 5198  13.128   0.381   9.453 -0.1512  0.2037  0.0210
  325loPI   C3B 5199  13.248   0.143   9.124 -0.0944  0.1728  0.1710
  325loPI   C4B 5200  12.924  -0.061   8.796 -0.0160 -0.1438  0.0371
  326loPI    C1 5201   6.687  13.031   9.963 -0.2026 -0.0206  0.1622
  326loPI    C2 5202   6.478  12.881  10.269 -0.2672 -0.0190  0.1191
  326loPI    C3 5203   6.862  12.983  10.319 -0.2024 -0.2641  0.1307
  326loPI   PO4 5204   6.492  12.906   9.747 -0.1905 -0.1505 -0.1550
  326loPI   GL1 5205   6.437  12.992   9.249 -0.1640 -0.0195 -0.4130
  326loPI   GL2 5206   6.741  12.776   9.297  0.3160  0.0152  0.0449
  326loPI   C1A 5207   6.272  12.765   8.920 -0.0011  0.1219  0.0501
  326loPI   C2A 5208   6.357  12.745   8.556 -0.2605 -0.1861  0.1758
  326loPI   C3A 5209   6.427  12.563   8.135 -0.2024  0.1489 -0.1274
  326loPI   C4A 5210   6.626  12.600   7.792  0.0265 -0.1159  0.2803
  326loPI   C5A 5211   6.761  12.695   7.324 -0.0428  0.1602 -0.1349
  326loPI   C6A 5212   6.492  12.612   6.957 -0.3208 -0.4036 -0.2336
  326loPI   C1B 5213   6.743  12.709   8.870  0.1638 -0.0207  0.1220
  326loPI   C2B 5214   6.931  12.613   8.418 -0.0657  0.1281  0.1267
  326loPI   C3B 5215   7.069  12.669   8.020 -0.1735 -0.0508 -0.1696
  326loPI   C4B 5216   7.224  12.487   7.646  0.0571 -0.0174 -0.3447
  327loPI    C1 5217   1.600   5.969   9.417 -0.0301 -0.2330 -0.1386
  327loPI    C2 5218   1.519   6.347   9.521  0.0756 -0.2681  0.0770
  327loPI    C3 5219   1.251   6.058   9.589  0.0433 -0.2512  0.0217
  327loPI   PO4 5220   1.611   5.931   9.104  0.0827  0.1473 -0.0768
  327loPI   GL1 5221   1.534   5.562   8.857 -0.3129  0.1655 -0.3224
  327loPI   GL2 5222   1.562   5.195   8.872  0.2227 -0.3701 -0.0820
  327loPI   C1A 5223   1.173   5.398   8.645  0.0253  0.1652 -0.0514
  327loPI   C2A 5224   0.833   5.166   8.640  0.2049  0.0468  0.2765
  327loPI   C3A 5225   0.643   4.907   8.286 -0.0035  0.1592  0.1628
  327loPI   C4A 5226   0.904   4.876   7.841 -0.5503  0.2539  0.0379
  327loPI   C5A 5227   0.733   4.716   7.467  0.1786 -0.3929  0.0021
  327loPI   C6A 5228   0.378   4.699   7.271 -0.1583 -0.1008 -0.1608
  327loPI   C1B 5229   1.638   5.315   8.385  0.0078 -0.1604 -0.4009
  327loPI   C2B 5230   1.790   5.408   7.935  0.2210  0.0597 -0.3604
  327loPI   C3B 5231   2.135   5.499   7.541 -0.5560  0.0613 -0.1637
  327loPI   C4B 5232   2.522   5.146   7.464  0.0155  0.0695  0.1483
  328loPI    C1 5233  15.269   4.312  10.052  0.1504  0.1292 -0.0479
  328loPI    C2 5234  15.316   4.080  10.374 -0.2397 -0.1705 -0.1988
  328loPI    C3 5235  15.128   4.431  10.406  0.0258 -0.0399 -0.0393
  328loPI   PO4 5236  15.208   4.136   9.878  0.0791 -0.0756  0.1245
  328loPI   GL1 5237  15.407   3.970   9.582  0.1231 -0.2362 -0.2567
  328loPI   GL2 5238  15.324   3.728   9.578 -0.2094  0.0488 -0.1725
  328loPI   C1A 5239  15.200   4.059   9.219 -0.1127  0.1593  0.3757
  328loPI   C2A 5240  15.180   4.101   8.755 -0.3404  0.1332 -0.2262
  328loPI   C3A 5241  15.103   4.230   8.329  0.0909 -0.3602 -0.0987
  328loPI   C4A 5242  14.979   4.426   8.015 -0.0148  0.1537  0.1832
  328loPI   C5A 5243  15.238   4.692   7.679  0.1211 -0.1459  0.0048
  328loPI   C6A 5244  15.355   5.150   7.623  0.1902  0.3491  0.1222
  328loPI   C1B 5245  15.371   3.524   9.274 -0.0672  0.0644  0.0477
  328loPI   C2B 5246  15.201   3.601   8.922  0.5230 -0.0353  0.2594
  328loPI   C3B 5247  15.181   3.626   8.477 -0.3912 -0.3072  0.1752
  328loPI   C4B 5248  14.981   3.674   8.123  0.1175 -0.0304 -0.2891
  329loPI    C1 5249  14.152  10.090  10.344  0.2990 -0.1635  0.1129
  329loPI    C2 5250  14.335   9.809  10.126  0.1449 -0.1984  0.0269
  329loPI    C3 5251  14.326   9.779  10.525  0.2048 -0.2695  0.0231
  329loPI   PO4 5252  13.931  10.222  10.166 -0.1943  0.2938  0.1819
  329loPI   GL1 5253  13.675  10.339   9.807  0.0094  0.3030 -0.1560
  329loPI   GL2 5254  13.787  10.552   9.642  0.0130  0.0901  0.0576
  329loPI   C1A 5255  13.504  10.241   9.390  0.2724 -0.0042 -0.4742
  329loPI   C2A 5256  13.455   9.977   9.056  0.3541 -0.1097 -0.2956
  329loPI   C3A 5257  13.711  10.003   8.672  0.4579  0.2015 -0.2101
  329loPI   C4A 5258  14.165  10.128   8.524 -0.3259 -0.1817 -0.0055
  329loPI   C5A 5259  14.461  10.171   8.073 -0.1898 -0.1798 -0.0670
  329loPI   C6A 5260  14.576  10.325   7.667  0.0248  0.1046 -0.1190
  329loPI   C1B 5261  13.936  10.531   9.252 -0.2249 -0.3443 -0.0784
  329loPI   C2B 5262  14.120  10.353   8.977  0.0660 -0.0490  0.0093
  329loPI   C3B 5263  14.352  10.561   8.693 -0.2051 -0.1956 -0.0357
  329loPI   C4B 5264  14.683  10.618   8.306  0.0332  0.3164 -0.1533
  330loPI    C1 5265  16.812   2.084  10.135  0.1911 -0.1659 -0.1077
  330loPI    C2 5266  16.885   1.833  10.438  0.5297 -0.0198 -0.0634
  330loPI    C3 5267  17.089   2.176  10.409  0.1258  0.2181 -0.1649
  330loPI   PO4 5268  16.894   1.851   9.892 -0.0542  0.0212  0.0416
  330loPI   GL1 5269  16.963   1.974   9.443 -0.1319 -0.2204  0.1197
  330loPI   GL2 5270  17.303   2.028   9.480  0.2298 -0.1186  0.1255
  330loPI   C1A 5271  17.033   1.696   9.179 -0.0297 -0.3196 -0.0985
  330loPI   C2A 5272  16.936   1.511   8.836  0.3196 -0.1282 -0.2518
  330loPI   C3A 5273  16.855   1.484   8.498  0.2519 -0.0083 -0.0618
  330loPI   C4A 5274  16.535   1.733   8.232  0.1609  0.0405 -0.0481
  330loPI   C5A 5275  16.283   2.034   8.098 -0.1506 -0.3760 -0.0415
  330loPI   C6A 5276  15.979   2.156   7.769 -0.1037 -0.0108 -0.3357
  330loPI   C1B 5277  17.389   1.925   8.998 -0.1721  0.2624 -0.0153
  330loPI   C2B 5278  17.565   1.822   8.604 -0.1664 -0.0972  0.0970
  330loPI   C3B 5279  17.323   1.637   8.368 -0.3340  0.1181 -0.1425
  330loPI   C4B 5280  17.274   1.229   8.199  0.1786 -0.0761  0.1713
  331loPI    C1 5281  16.982   9.788   9.948 -0.0645 -0.0151 -0.0221
  331loPI    C2 5282  17.319   9.822   9.734  0.0996  0.0742  0.2448
  331loPI    C3 5283  17.330   9.663  10.101 -0.1651  0.0004  0.2236
  331loPI   PO4 5284  16.749   9.639   9.792 -0.0857 -0.1471 -0.1660
  331loPI   GL1 5285  16.656   9.420   9.497 -0.0624 -0.0460 -0.0024
  331loPI   GL2 5286  16.259   9.416   9.451  0.0600  0.2645  0.1272
  331loPI   C1A 5287  16.707   9.630   8.989  0.2653 -0.0058 -0.2128
  331loPI   C2A 5288  16.575   9.661   8.526 -0.1489 -0.0891  0.2119
  331loPI   C3A 5289  16.668   9.598   8.069 -0.3642  0.0218  0.2361
  331loPI   C4A 5290  16.752   9.558   7.680 -0.1009  0.0182 -0.1237
  331loPI   C5A 5291  17.057   9.500   7.335 -0.1113 -0.1784 -0.0735
  331loPI   C6A 5292  16.952   9.258   7.047  0.3956  0.1072 -0.1071
  331loPI   C1B 5293  16.328   9.377   9.105  0.3014 -0.1406  0.0472
  331loPI   C2B 5294  16.155   9.464   8.634  0.0305  0.0278  0.0003
  331loPI   C3B 5295  15.893   9.475   8.164  0.1454  0.2697 -0.0218
  331loPI   C4B 5296  15.720   9.678   7.859 -0.1666  0.0580 -0.1517
  332loPI    C1 5297  16.612  12.476  10.160  0.0533  0.2637  0.0870
  332loPI    C2 5298  16.768  12.438  10.527 -0.1881 -0.0396  0.1631
  332loPI    C3 5299  16.783  12.131  10.271  0.0104  0.1822 -0.0979
  332loPI   PO4 5300  16.633  12.673  10.015  0.4491  0.3307  0.0416
  332loPI   GL1 5301  16.465  12.803   9.592 -0.0497 -0.2796  0.1624
  332loPI   GL2 5302  16.147  12.646   9.610 -0.2152 -0.1007  0.0131
  332loPI   C1A 5303  16.804  12.977   9.261 -0.1859 -0.1453  0.0111
  332loPI   C2A 5304  16.822  13.061   8.959 -0.2446  0.0545 -0.0973
  332loPI   C3A 5305  16.922  13.082   8.493 -0.1223 -0.1877  0.2161
  332loPI   C4A 5306  16.962  13.305   8.048 -0.2488 -0.3494  0.0281
  332loPI   C5A 5307  16.949  13.301   7.679  0.0611  0.1502 -0.0251
  332loPI   C6A 5308  16.938  13.494   7.323 -0.0542  0.2907  0.0106
  332loPI   C1B 5309  16.290  12.717   9.158  0.0804  0.1121 -0.0815
  332loPI   C2B 5310  16.323  12.850   8.654  0.2567 -0.0133  0.1308
  332loPI   C3B 5311  16.443  13.079   8.279  0.1909  0.0673 -0.1107
  332loPI   C4B 5312  16.557  13.011   7.874  0.1445  0.3705  0.1560
  333loPI    C1 5313  17.992   9.520   9.472 -0.0174 -0.1794  0.1877
  333loPI    C2 5314  17.763   9.585   9.794  0.0019  0.0713  0.1527
  333loPI    C3 5315  18.158   9.649   9.812  0.0165 -0.0045  0.1058
  333loPI   PO4 5316  17.948   9.297   9.341 -0.0095  0.1558  0.1623
  333loPI   GL1 5317  18.119   9.169   8.938  0.2210  0.1113 -0.0095
  333loPI   GL2 5318  18.010   9.460   8.862 -0.2635  0.0440 -0.1344
  333loPI   C1A 5319  18.070   8.995   8.497 -0.0927 -0.0639  0.0064
  333loPI   C2A 5320  18.005   9.041   8.035  0.0966  0.1348  0.2388
  333loPI   C3A 5321  17.802   9.025   7.595  0.2258  0.1448  0.2268
  333loPI   C4A 5322  17.720   8.818   7.121  0.3004 -0.0816  0.1774
  333loPI   C5A 5323  17.567   9.119   6.773  0.0682  0.1289  0.1831
  333loPI   C6A 5324  17.250   9.283   6.498 -0.0066 -0.2749 -0.2439
  333loPI   C1B 5325  18.183   9.487   8.438 -0.1726  0.1753  0.2017
  333loPI   C2B 5326  18.395   9.540   7.981  0.0474  0.2459  0.1666
  333loPI   C3B 5327  18.156   9.332   7.643 -0.1820  0.1283 -0.0538
  333loPI   C4B 5328  18.033   9.222   7.191  0.3815  0.1068 -0.2641
  334loPI    C1 5329  14.954   7.699   9.956 -0.1711  0.0675  0.0844
  334loPI    C2 5330  15.058   7.478  10.273  0.2573 -0.0292 -0.1158
  334loPI    C3 5331  15.291   7.781  10.155 -0.0319  0.1695 -0.1872
  334loPI   PO4 5332  14.765   7.487   9.768  0.4401  0.1403 -0.1236
  334loPI   GL1 5333  14.586   7.273   9.442  0.0173 -0.2199 -0.1761
  334loPI   GL2 5334  14.855   7.419   9.248  0.2759 -0.1943 -0.0237
  334loPI   C1A 5335  14.305   7.279   9.015 -0.1697 -0.2513  0.1239
  334loPI   C2A 5336  13.856   7.327   8.931 -0.1453 -0.4136  0.0438
  334loPI   C3A 5337  13.641   7.175   8.618 -0.2517 -0.2243 -0.1672
  334loPI   C4A 5338  13.453   6.942   8.185 -0.0344  0.2342  0.0244
  334loPI   C5A 5339  13.313   6.653   7.917  0.2706  0.0021 -0.1188
  334loPI   C6A 5340  13.482   6.859   7.585  0.2364  0.0234  0.2902
  334loPI   C1B 5341  14.733   7.555   8.875  0.1466  0.3316  0.3360
  334loPI   C2B 5342  14.521   7.422   8.554  0.1639  0.0360 -0.3457
  334loPI   C3B 5343  14.213   7.317   8.480  0.1063 -0.2321 -0.0596
  334loPI   C4B 5344  14.055   7.323   8.088 -0.0229  0.0786 -0.0414
  335loPI    C1 5345   9.555  14.827  10.136  0.2504 -0.0958 -0.0753
  335loPI    C2 5346   9.715  15.160   9.982 -0.1783  0.0329 -0.2572
  335loPI    C3 5347   9.721  15.100  10.377  0.0057  0.1986 -0.2331
  335loPI   PO4 5348   9.347  14.820   9.898  0.1157 -0.2876  0.0730
  335loPI   GL1 5349   9.512  14.619   9.600 -0.1083  0.0180 -0.2651
  335loPI   GL2 5350   9.672  14.410   9.872  0.1764  0.4290 -0.0413
  335loPI   C1A 5351   9.460  14.388   9.207 -0.1087 -0.4221  0.1984
  335loPI   C2A 5352   9.418  14.126   8.862 -0.2200  0.0524 -0.1593
  335loPI   C3A 5353   9.334  14.158   8.501 -0.0242 -0.0936 -0.3061
  335loPI   C4A 5354   9.358  13.941   8.143  0.1795 -0.4078 -0.1438
  335loPI   C5A 5355   9.207  13.602   7.987  0.2735 -0.1183 -0.3535
  335loPI   C6A 5356   8.810  13.325   7.800  0.1842  0.0193 -0.1569
  335loPI   C1B 5357   9.771  14.144   9.622 -0.4046 -0.0747  0.1431
  335loPI   C2B 5358   9.814  13.986   9.184 -0.0130  0.1536  0.0132
  335loPI   C3B 5359   9.735  13.802   8.742  0.0333  0.1016  0.1332
  335loPI   C4B 5360   9.888  13.782   8.235  0.0781  0.0375  0.2037
  336loPI    C1 5361  12.869   4.729  10.059  0.1866 -0.2775  0.1126
  336loPI    C2 5362  13.052   4.843  10.396  0.0162 -0.0763  0.1394
  336loPI    C3 5363  12.822   4.516  10.395 -0.0917 -0.0015  0.2537
  336loPI   PO4 5364  13.055   4.800   9.869 -0.0408 -0.0503  0.0557
  336loPI   GL1 5365  13.273   4.859   9.552  0.0732  0.1928  0.3181
  336loPI   GL2 5366  13.551   5.023   9.473  0.2883 -0.2323 -0.1384
  336loPI   C1A 5367  13.264   4.429   9.318  0.1538  0.1395 -0.0860
  336loPI   C2A 5368  13.286   4.069   9.084  0.1033  0.2281 -0.1592
  336loPI   C3A 5369  13.146   4.058   8.810  0.2295  0.0862  0.1365
  336loPI   C4A 5370  12.768   4.133   8.651 -0.1212 -0.2298 -0.1877
  336loPI   C5A 5371  12.328   4.073   8.696 -0.0094  0.0198 -0.2494
  336loPI   C6A 5372  12.046   3.990   9.064 -0.3327  0.2799 -0.2162
  336loPI   C1B 5373  13.308   4.920   9.049 -0.1641 -0.1927 -0.0718
  336loPI   C2B 5374  13.090   4.603   8.802  0.0114  0.1965 -0.2451
  336loPI   C3B 5375  12.698   4.686   8.700 -0.0679 -0.0012  0.2169
  336loPI   C4B 5376  12.281   4.802   8.596  0.3770 -0.3420  0.0627
  337loPI    C1 5377   2.202  10.356   9.723  0.1055  0.0900  0.0573
  337loPI    C2 5378   2.214  10.079  10.011 -0.0150  0.2286  0.1979
  337loPI    C3 5379   1.921  10.351  10.008 -0.0819  0.1577 -0.1237
  337loPI   PO4 5380   2.275  10.193   9.508  0.0575  0.1803 -0.2176
  337loPI   GL1 5381   2.578  10.199   9.229 -0.1664  0.0228  0.0473
  337loPI   GL2 5382   2.604  10.537   9.350  0.3866  0.2199  0.4122
  337loPI   C1A 5383   2.469  10.268   8.807 -0.1261 -0.1492  0.0522
  337loPI   C2A 5384   2.388  10.313   8.316  0.0688 -0.1398 -0.2390
  337loPI   C3A 5385   2.329  10.576   8.096  0.0595 -0.0166 -0.1001
  337loPI   C4A 5386   2.608  10.852   7.807 -0.1996  0.2142  0.0583
  337loPI   C5A 5387   2.581  11.002   7.472  0.0922  0.1486 -0.1530
  337loPI   C6A 5388   2.707  11.319   7.300 -0.1051  0.1383 -0.0132
  337loPI   C1B 5389   2.833  10.566   8.949 -0.0570  0.2911 -0.0126
  337loPI   C2B 5390   2.874  10.525   8.508  0.1758  0.0882 -0.2610
  337loPI   C3B 5391   2.956  10.558   8.079  0.0472 -0.2931 -0.1528
  337loPI   C4B 5392   2.894  10.467   7.650  0.2036 -0.1119 -0.0721
  338loPI    C1 5393  18.125   7.273   9.796  0.0103 -0.3310  0.1455
  338loPI    C2 5394  18.503   7.159   9.731  0.0661 -0.0943  0.0439
  338loPI    C3 5395  18.408   7.547   9.725 -0.2025 -0.1595 -0.0554
  338loPI   PO4 5396  17.928   7.107   9.627  0.1335 -0.0727 -0.1913
  338loPI   GL1 5397  17.861   6.967   9.253 -0.2411 -0.1032  0.2326
  338loPI   GL2 5398  17.714   7.345   9.217  0.0707  0.1395  0.3408
  338loPI   C1A 5399  17.966   6.984   8.748  0.0528  0.1470 -0.1951
  338loPI   C2A 5400  17.827   6.787   8.349 -0.0751  0.0247 -0.0947
  338loPI   C3A 5401  17.674   6.876   7.927  0.0825  0.0543  0.2052
  338loPI   C4A 5402  17.779   6.850   7.427  0.0488  0.3461 -0.0485
  338loPI   C5A 5403  17.808   7.062   7.047 -0.0771  0.1956 -0.2889
  338loPI   C6A 5404  17.800   7.053   6.585 -0.0120 -0.2338 -0.1981
  338loPI   C1B 5405  17.716   7.465   8.771  0.2924 -0.0992  0.0169
  338loPI   C2B 5406  17.729   7.298   8.376 -0.2079 -0.0802  0.2269
  338loPI   C3B 5407  17.697   7.422   7.978 -0.1444  0.2506  0.3892
  338loPI   C4B 5408  17.680   7.763   7.734  0.0907  0.0664  0.2209
  339loPI    C1 5409   8.841  16.201  10.175  0.0576  0.0415  0.2122
  339loPI    C2 5410   8.701  15.851  10.309 -0.1355  0.0860  0.1311
  339loPI    C3 5411   8.986  16.044  10.513  0.2614 -0.3095 -0.0321
  339loPI   PO4 5412   8.803  16.097   9.856 -0.0798  0.2021  0.2341
  339loPI   GL1 5413   8.970  16.158   9.353 -0.3275 -0.0339 -0.2114
  339loPI   GL2 5414   8.935  16.547   9.391 -0.0483 -0.0840  0.0377
  339loPI   C1A 5415   9.284  16.180   8.979 -0.1150  0.1524  0.1358
  339loPI   C2A 5416   9.596  15.933   8.803 -0.0661  0.4088 -0.0394
  339loPI   C3A 5417   9.548  15.441   8.608  0.0003  0.1344 -0.2762
  339loPI   C4A 5418   9.265  15.148   8.571  0.0651 -0.1163 -0.2999
  339loPI   C5A 5419   9.128  14.951   8.266  0.1393  0.1958  0.3333
  339loPI   C6A 5420   8.879  14.868   7.957  0.1771  0.0233  0.2342
  339loPI   C1B 5421   8.901  16.470   8.951  0.0028 -0.3194  0.0605
  339loPI   C2B 5422   8.869  16.449   8.518 -0.1182 -0.1674  0.0094
  339loPI   C3B 5423   8.646  16.317   8.166  0.0104 -0.0736 -0.0027
  339loPI   C4B 5424   8.304  16.274   7.895  0.0363 -0.1338  0.3455
  340loPI    C1 5425   9.213   0.405  10.997  0.0305 -0.0829  0.0571
  340loPI    C2 5426   9.161   0.714  11.246  0.3617  0.0163  0.0085
  340loPI    C3 5427   9.235   0.350  11.393  0.0792 -0.0219  0.0630
  340loPI   PO4 5428   9.494   0.482  10.800  0.1645  0.0116  0.0893
  340loPI   GL1 5429   9.566   0.534  10.385 -0.0297 -0.0990 -0.4369
  340loPI   GL2 5430   9.439   0.391  10.118  0.1854  0.1773 -0.0151
  340loPI   C1A 5431   9.876   0.872  10.324 -0.0676 -0.0554  0.2831
  340loPI   C2A 5432  10.073   1.157  10.068  0.0604 -0.0840 -0.0112
  340loPI   C3A 5433  10.409   1.491   9.878 -0.4041 -0.2225  0.0005
  340loPI   C4A 5434  10.671   1.488   9.555  0.3969  0.2051 -0.1558
  340loPI   C5A 5435  10.631   1.681   9.169  0.0502 -0.0329 -0.0993
  340loPI   C6A 5436  10.356   1.729   8.876  0.0604  0.1738 -0.0557
  340loPI   C1B 5437   9.691   0.314   9.685 -0.1182 -0.2376 -0.1346
  340loPI   C2B 5438   9.856   0.171   9.410 -0.2379  0.1090  0.0592
  340loPI   C3B 5439   9.859   0.214   9.026  0.1597  0.0895 -0.0661
  340loPI   C4B 5440   9.981   0.383   8.720  0.0894 -0.4117  0.0903
  341loPI    C1 5441   5.423  10.603   9.986  0.2677  0.0233 -0.0619
  341loPI    C2 5442   5.082  10.465  10.142  0.3299  0.1418  0.1839
  341loPI    C3 5443   5.431  10.299  10.245  0.3693  0.2025  0.1487
  341loPI   PO4 5444   5.415  10.641   9.757  0.2938 -0.0048  0.2360
  341loPI   GL1 5445   5.686  10.806   9.447  0.1780 -0.0278  0.2837
  341loPI   GL2 5446   5.893  10.584   9.541 -0.2427 -0.1680  0.2573
  341loPI   C1A 5447   5.876  10.986   9.190 -0.4443 -0.1066  0.0047
  341loPI   C2A 5448   6.195  11.201   8.864 -0.3616  0.1376 -0.1599
  341loPI   C3A 5449   6.423  11.247   8.512 -0.3193  0.2292 -0.2480
  341loPI   C4A 5450   6.821  11.116   8.224  0.2802  0.2484  0.0560
  341loPI   C5A 5451   7.025  11.224   7.807 -0.1269 -0.0402 -0.1145
  341loPI   C6A 5452   7.439  11.097   7.715  0.4990  0.1071  0.1747
  341loPI   C1B 5453   5.679  10.472   9.134 -0.2867 -0.1092  0.2246
  341loPI   C2B 5454   5.705  10.517   8.705 -0.1401  0.0921 -0.0180
  341loPI   C3B 5455   5.742  10.533   8.254  0.2799  0.0450  0.0025
  341loPI   C4B 5456   5.522  10.582   7.898  0.1299 -0.1145 -0.0581
  342loPI    C1 5457   5.870   2.804  10.615 -0.1402 -0.0023  0.2082
  342loPI    C2 5458   5.889   2.420  10.505 -0.0757  0.0198  0.1415
  342loPI    C3 5459   5.913   2.518  10.892  0.3647 -0.0138  0.1274
  342loPI   PO4 5460   6.039   2.927  10.374  0.1028  0.0837 -0.2852
  342loPI   GL1 5461   5.832   2.983   9.960 -0.0121 -0.2492 -0.0112
  342loPI   GL2 5462   6.118   2.838   9.866 -0.2465 -0.0183 -0.3058
  342loPI   C1A 5463   5.868   3.152   9.615 -0.1904  0.2754 -0.1496
  342loPI   C2A 5464   5.814   3.081   9.195 -0.4101  0.1111  0.0275
  342loPI   C3A 5465   5.793   3.258   8.777 -0.2051  0.1018 -0.2925
  342loPI   C4A 5466   6.097   3.268   8.535  0.3299 -0.0483  0.0684
  342loPI   C5A 5467   6.223   3.487   8.113 -0.0600  0.1054 -0.1521
  342loPI   C6A 5468   6.533   3.392   7.738 -0.0911  0.2484  0.1257
  342loPI   C1B 5469   6.198   2.897   9.405 -0.3489  0.0967 -0.1335
  342loPI   C2B 5470   6.241   2.966   9.005  0.0115 -0.3052  0.2477
  342loPI   C3B 5471   6.362   2.871   8.597 -0.2118  0.0783 -0.1121
  342loPI   C4B 5472   6.328   3.017   8.170  0.1513 -0.1229  0.0920
  343loPI    C1 5473  10.299   4.337  10.452  0.1500  0.0899 -0.0754
  343loPI    C2 5474  10.136   4.509  10.774  0.1127  0.1130 -0.1066
  343loPI    C3 5475   9.903   4.324  10.506  0.1407  0.1195 -0.1354
  343loPI   PO4 5476  10.475   4.498  10.381 -0.0693 -0.1486  0.0065
  343loPI   GL1 5477  10.591   4.476   9.951 -0.2146 -0.2382  0.0302
  343loPI   GL2 5478  10.329   4.747   9.992  0.1919  0.1035 -0.2546
  343loPI   C1A 5479  10.813   4.726   9.669  0.2392  0.3185 -0.2981
  343loPI   C2A 5480  11.034   4.659   9.362 -0.0044 -0.0082  0.0529
  343loPI   C3A 5481  11.239   4.511   9.107 -0.0652 -0.3079  0.1907
  343loPI   C4A 5482  11.322   4.408   8.652 -0.0050  0.3200 -0.1156
  343loPI   C5A 5483  11.380   4.542   8.280  0.0304 -0.2946  0.1535
  343loPI   C6A 5484  11.307   4.621   7.893 -0.0059 -0.1783  0.2923
  343loPI   C1B 5485  10.373   5.079   9.661 -0.1586  0.2930  0.0647
  343loPI   C2B 5486  10.566   5.243   9.303 -0.2557  0.0792  0.2303
  343loPI   C3B 5487  10.718   5.297   8.874 -0.1561  0.0793 -0.0035
  343loPI   C4B 5488  10.926   5.376   8.496 -0.2226 -0.0304  0.2250
  344loPI    C1 5489  16.998   8.994   9.624 -0.1933 -0.0862 -0.1452
  344loPI    C2 5490  16.732   9.126   9.892  0.0575 -0.1536  0.1424
  344loPI    C3 5491  17.093   9.297   9.867  0.0277 -0.1310 -0.1732
  344loPI   PO4 5492  16.991   8.973   9.466  0.0796 -0.0996 -0.1089
  344loPI   GL1 5493  16.859   9.201   9.107 -0.2948  0.0216 -0.0628
  344loPI   GL2 5494  16.698   9.009   9.014 -0.2151 -0.1400 -0.1130
  344loPI   C1A 5495  17.011   9.310   8.750 -0.0541 -0.2788  0.1839
  344loPI   C2A 5496  16.996   9.230   8.282 -0.2156  0.2785 -0.0618
  344loPI   C3A 5497  16.891   9.161   7.915  0.1392 -0.0169  0.0304
  344loPI   C4A 5498  16.803   9.049   7.557  0.0950 -0.2959 -0.2662
  344loPI   C5A 5499  16.541   9.318   7.295  0.0784  0.0126 -0.2857
  344loPI   C6A 5500  16.099   9.331   7.043  0.1962  0.0409 -0.0071
  344loPI   C1B 5501  16.512   9.173   8.667 -0.0791 -0.0583 -0.0490
  344loPI   C2B 5502  16.410   9.240   8.248  0.1439 -0.2835 -0.0218
  344loPI   C3B 5503  16.247   9.415   7.820 -0.1902  0.1406  0.0200
  344loPI   C4B 5504  16.195   9.631   7.484 -0.0895  0.2010 -0.1003
  345loPI    C1 5505   3.510   7.883   9.969 -0.0841 -0.0926  0.1603
  345loPI    C2 5506   3.290   7.558  10.048 -0.1304 -0.0823  0.0746
  345loPI    C3 5507   3.362   7.826  10.336 -0.1532 -0.1318  0.1264
  345loPI   PO4 5508   3.540   7.961   9.681 -0.1581 -0.0359  0.2365
  345loPI   GL1 5509   3.795   7.756   9.350 -0.3094 -0.1666  0.2312
  345loPI   GL2 5510   4.029   7.579   9.281  0.1554  0.0167 -0.0010
  345loPI   C1A 5511   3.992   8.015   9.040  0.3693  0.3386 -0.1059
  345loPI   C2A 5512   4.095   8.023   8.569  0.0512 -0.5534  0.3118
  345loPI   C3A 5513   4.169   7.815   8.224 -0.2536  0.0314 -0.0837
  345loPI   C4A 5514   4.274   7.458   8.064 -0.0221 -0.4476 -0.1662
  345loPI   C5A 5515   4.554   7.224   7.780 -0.1147  0.1738  0.1049
  345loPI   C6A 5516   4.642   7.054   7.382  0.0140 -0.2261  0.1410
  345loPI   C1B 5517   4.161   7.497   8.888  0.1387  0.1662 -0.0792
  345loPI   C2B 5518   4.241   7.318   8.559 -0.1339 -0.0501  0.3226
  345loPI   C3B 5519   4.247   6.916   8.346  0.1132  0.0272  0.3201
  345loPI   C4B 5520   4.514   6.607   8.451  0.1670 -0.0990 -0.2249
  346loPI    C1 5521   8.606   0.128  10.330  0.0427  0.1145 -0.0343
  346loPI    C2 5522   8.250  -0.034  10.246  0.0965 -0.0149 -0.0148
  346loPI    C3 5523   8.379  -0.021  10.624  0.1628 -0.0728 -0.0353
  346loPI   PO4 5524   8.627   0.327  10.214  0.0225  0.0734 -0.1563
  346loPI   GL1 5525   8.357   0.623   9.892 -0.1145  0.0972  0.2975
  346loPI   GL2 5526   8.107   0.676   9.662 -0.1139  0.1455  0.3525
  346loPI   C1A 5527   8.566   0.957   9.590  0.3487 -0.0330  0.3506
  346loPI   C2A 5528   8.804   1.139   9.261  0.0521  0.1334 -0.0809
  346loPI   C3A 5529   8.957   1.138   8.855 -0.1173 -0.0327  0.1697
  346loPI   C4A 5530   9.160   1.392   8.603  0.3899 -0.0576  0.0719
  346loPI   C5A 5531   9.275   1.738   8.418  0.1909 -0.3719 -0.0205
  346loPI   C6A 5532   9.677   1.947   8.458  0.0367  0.0466 -0.3607
  346loPI   C1B 5533   8.198   0.630   9.299  0.0833  0.5291 -0.1654
  346loPI   C2B 5534   8.534   0.310   9.241 -0.0507  0.0343 -0.1054
  346loPI   C3B 5535   8.775   0.251   8.886  0.1793  0.1275  0.3073
  346loPI   C4B 5536   8.979   0.356   8.647 -0.1576 -0.1848  0.1109
  347loPI    C1 5537   6.991  11.761   9.885  0.0146 -0.2534 -0.2574
  347loPI    C2 5538   6.805  11.461  10.074 -0.1151 -0.0359 -0.0322
  347loPI    C3 5539   7.148  11.608  10.220 -0.2435  0.1685  0.0678
  347loPI   PO4 5540   7.010  11.711   9.633  0.2059  0.0585  0.3915
  347loPI   GL1 5541   7.301  11.619   9.275 -0.1952  0.1700  0.1587
  347loPI   GL2 5542   7.029  11.397   9.164 -0.2598  0.1862  0.0592
  347loPI   C1A 5543   7.438  11.489   8.827 -0.0200  0.2230  0.1485
  347loPI   C2A 5544   7.710  11.356   8.664  0.1535 -0.2784  0.0507
  347loPI   C3A 5545   7.784  11.307   8.283 -0.0506 -0.0401 -0.1267
  347loPI   C4A 5546   8.068  11.579   8.172  0.1475 -0.0140  0.3917
  347loPI   C5A 5547   8.100  11.970   7.976 -0.0139 -0.3707  0.1096
  347loPI   C6A 5548   7.993  12.244   7.594  0.1456  0.2204 -0.1806
  347loPI   C1B 5549   6.953  11.304   8.676  0.4503  0.3830 -0.1324
  347loPI   C2B 5550   6.786  11.576   8.323  0.0704 -0.2163 -0.0231
  347loPI   C3B 5551   6.526  11.667   7.977  0.0226 -0.3355 -0.0403
  347loPI   C4B 5552   6.572  11.508   7.598  0.1684 -0.0758  0.1947
  348loPI    C1 5553  16.562   6.338   9.671  0.1156  0.2392 -0.1665
  348loPI    C2 5554  16.329   6.661   9.633  0.1089  0.2822  0.2046
  348loPI    C3 5555  16.294   6.425   9.954  0.4341  0.1723  0.1630
  348loPI   PO4 5556  16.569   6.239   9.428  0.0096  0.1645  0.1083
  348loPI   GL1 5557  16.475   6.386   9.111 -0.0347 -0.0397 -0.2886
  348loPI   GL2 5558  16.840   6.341   9.001 -0.0025 -0.0554 -0.0955
  348loPI   C1A 5559  16.245   6.495   8.694  0.0106  0.2855 -0.3964
  348loPI   C2A 5560  16.418   6.754   8.459  0.3277 -0.1669  0.0143
  348loPI   C3A 5561  16.280   6.707   8.075  0.0223  0.0471  0.4443
  348loPI   C4A 5562  16.447   6.788   7.672 -0.0005 -0.2324  0.2141
  348loPI   C5A 5563  16.331   7.068   7.369  0.3510 -0.0435 -0.1902
  348loPI   C6A 5564  16.015   7.157   7.167  0.2796  0.0991  0.2848
  348loPI   C1B 5565  16.731   6.380   8.652  0.2169 -0.0491 -0.1295
  348loPI   C2B 5566  16.637   6.405   8.183  0.1836 -0.1847  0.0555
  348loPI   C3B 5567  16.788   6.549   7.867  0.5514 -0.2262  0.1105
  348loPI   C4B 5568  16.768   6.931   8.060  0.0590 -0.0911 -0.0623
  349loPI    C1 5569  13.877  14.911  10.595 -0.1936 -0.0815  0.1249
  349loPI    C2 5570  13.590  15.078  10.371 -0.0693 -0.0592 -0.0190
  349loPI    C3 5571  13.670  15.224  10.735 -0.0624  0.1018 -0.0842
  349loPI   PO4 5572  13.975  14.721  10.411 -0.1034  0.0104 -0.0203
  349loPI   GL1 5573  13.947  14.621  10.008  0.2358 -0.3302  0.3876
  349loPI   GL2 5574  13.588  14.690  10.010 -0.2714 -0.0747 -0.3827
  349loPI   C1A 5575  13.838  14.593   9.559  0.1796 -0.0271  0.0455
  349loPI   C2A 5576  13.617  14.249   9.197 -0.0223  0.0201  0.0051
  349loPI   C3A 5577  13.611  14.166   8.695 -0.0472  0.1952  0.4152
  349loPI   C4A 5578  13.796  14.139   8.309  0.0199 -0.0555  0.2846
  349loPI   C5A 5579  13.820  14.297   7.893  0.0558 -0.0842  0.2442
  349loPI   C6A 5580  13.685  14.333   7.460 -0.6206  0.0795  0.2347
  349loPI   C1B 5581  13.722  15.007   9.787  0.3244  0.1502 -0.0337
  349loPI   C2B 5582  13.721  15.129   9.451 -0.0628 -0.1626  0.3695
  349loPI   C3B 5583  13.393  15.139   9.060 -0.0070 -0.0360 -0.3680
  349loPI   C4B 5584  13.050  15.014   8.771  0.0918  0.0706 -0.1792
  350loPI    C1 5585   7.732   7.712  10.051 -0.2891  0.2083  0.0775
  350loPI    C2 5586   7.853   7.887  10.389 -0.1559 -0.0546  0.1685
  350loPI    C3 5587   7.652   7.542  10.404 -0.0419 -0.1307 -0.0254
  350loPI   PO4 5588   7.669   7.851   9.883  0.1358  0.0059 -0.2167
  350loPI   GL1 5589   7.895   7.907   9.567 -0.1067  0.2248 -0.1782
  350loPI   GL2 5590   7.517   7.919   9.382 -0.3298  0.0214  0.0530
  350loPI   C1A 5591   8.414   8.027   9.551  0.3464  0.0560  0.0857
  350loPI   C2A 5592   8.633   8.231   9.282 -0.0381 -0.2989 -0.1438
  350loPI   C3A 5593   8.758   8.123   8.871 -0.0587  0.1777  0.2826
  350loPI   C4A 5594   9.092   8.034   8.587 -0.0835  0.1071  0.2437
  350loPI   C5A 5595   9.137   8.169   8.105  0.4075 -0.2665  0.3380
  350loPI   C6A 5596   9.131   8.189   7.675  0.1126 -0.1432  0.0097
  350loPI   C1B 5597   7.619   7.826   8.924 -0.2176  0.1088  0.1863
  350loPI   C2B 5598   7.791   7.696   8.523  0.0757 -0.3576  0.1840
  350loPI   C3B 5599   8.158   7.643   8.303 -0.1252 -0.2756  0.0815
  350loPI   C4B 5600   8.194   7.700   7.819  0.4126  0.0512  0.2235
  351loPI    C1 5601  11.332  13.487  10.035  0.0800  0.0493 -0.0523
  351loPI    C2 5602  11.689  13.668  10.045  0.1267 -0.0440 -0.0261
  351loPI    C3 5603  11.663  13.273  10.103  0.0201 -0.0389 -0.0381
  351loPI   PO4 5604  11.186  13.561   9.830  0.3137  0.0147  0.2243
  351loPI   GL1 5605  11.160  13.386   9.388 -0.2223 -0.0326  0.1914
  351loPI   GL2 5606  11.011  13.092   9.452  0.3667  0.1763  0.0342
  351loPI   C1A 5607  11.455  13.108   9.208  0.1132  0.2299  0.0550
  351loPI   C2A 5608  11.749  12.965   8.946 -0.2180 -0.0801  0.1057
  351loPI   C3A 5609  12.083  12.874   8.501  0.1141 -0.0334 -0.1358
  351loPI   C4A 5610  12.439  12.967   8.191  0.1682 -0.2738  0.0321
  351loPI   C5A 5611  12.567  13.259   8.014 -0.0139  0.1374  0.2727
  351loPI   C6A 5612  12.794  13.522   7.819  0.0855 -0.2007 -0.1501
  351loPI   C1B 5613  11.010  12.990   9.005 -0.2276 -0.0792 -0.1825
  351loPI   C2B 5614  11.353  13.068   8.640  0.0575  0.1624 -0.0698
  351loPI   C3B 5615  11.334  13.273   8.244  0.0415  0.1061 -0.1815
  351loPI   C4B 5616  11.369  13.571   8.031  0.1440  0.0868 -0.0600
  352loPI    C1 5617  18.136   8.627   9.322 -0.1926  0.1262  0.1871
  352loPI    C2 5618  18.309   8.965   9.448  0.0278 -0.0023  0.2356
  352loPI    C3 5619  18.303   8.643   9.685 -0.2049 -0.0259  0.2004
  352loPI   PO4 5620  17.864   8.813   9.219  0.3207  0.1918  0.0698
  352loPI   GL1 5621  17.727   8.740   8.815  0.0167  0.1344  0.3382
  352loPI   GL2 5622  17.753   8.399   8.898 -0.2859 -0.1912  0.1041
  352loPI   C1A 5623  17.562   8.853   8.362 -0.1330  0.0089 -0.2879
  352loPI   C2A 5624  17.363   8.983   8.008  0.0348  0.0980  0.1723
  352loPI   C3A 5625  17.294   9.162   7.605  0.0391  0.1117 -0.0518
  352loPI   C4A 5626  17.279   8.948   7.223  0.0650 -0.0601  0.0456
  352loPI   C5A 5627  17.199   8.736   6.846  0.0557 -0.1854 -0.2249
  352loPI   C6A 5628  17.204   8.338   6.566  0.1433 -0.0977  0.1390
  352loPI   C1B 5629  17.562   8.397   8.460  0.2125 -0.1494  0.2002
  352loPI   C2B 5630  17.472   8.493   8.007 -0.1944 -0.1911 -0.0222
  352loPI   C3B 5631  17.499   8.607   7.490  0.4182  0.1953 -0.2441
  352loPI   C4B 5632  17.416   8.372   7.081 -0.1616 -0.1893  0.2711
  353loPI    C1 5633   2.650   8.714   9.833 -0.1692 -0.0056 -0.1882
  353loPI    C2 5634   2.279   8.745   9.979 -0.0069  0.1240  0.2118
  353loPI    C3 5635   2.544   8.503  10.156  0.1226  0.0880 -0.0272
  353loPI   PO4 5636   2.555   8.846   9.483  0.0563 -0.2055 -0.0383
  353loPI   GL1 5637   2.268   8.933   9.112 -0.1639  0.1624  0.2976
  353loPI   GL2 5638   2.044   8.871   8.938  0.3580  0.0150  0.2571
  353loPI   C1A 5639   2.536   9.255   8.791  0.0437  0.2236 -0.2076
  353loPI   C2A 5640   2.608   9.549   8.511 -0.1512  0.3662  0.2654
  353loPI   C3A 5641   2.723   9.955   8.486  0.2083  0.0279  0.0803
  353loPI   C4A 5642   2.803  10.049   8.074  0.1744 -0.1904  0.1030
  353loPI   C5A 5643   2.786   9.991   7.661  0.4169  0.1804 -0.3239
  353loPI   C6A 5644   2.543  10.034   7.332  0.6084 -0.2411 -0.1181
  353loPI   C1B 5645   2.231   8.883   8.582 -0.1008  0.0060  0.1725
  353loPI   C2B 5646   2.086   8.651   8.136  0.0699  0.0815  0.2788
  353loPI   C3B 5647   2.264   8.320   7.767 -0.1680  0.0580 -0.0953
  353loPI   C4B 5648   2.649   8.188   7.493  0.1535  0.0468 -0.3020
  354loPI    C1 5649   9.987  18.051  10.890 -0.3518  0.2722  0.0465
  354loPI    C2 5650   9.818  18.332  10.661 -0.0464  0.3737 -0.0593
  354loPI    C3 5651  10.151  18.415  10.868  0.1724  0.0293 -0.2645
  354loPI   PO4 5652   9.900  17.854  10.674 -0.0631 -0.1550 -0.1542
  354loPI   GL1 5653   9.945  17.909  10.265  0.0073  0.0274 -0.0704
  354loPI   GL2 5654  10.041  17.680  10.131 -0.1027  0.2998 -0.0056
  354loPI   C1A 5655  10.278  18.118  10.010 -0.1694 -0.1360  0.1844
  354loPI   C2A 5656  10.523  18.105   9.606  0.0473  0.4320 -0.3817
  354loPI   C3A 5657  10.705  18.044   9.155 -0.2021  0.4005 -0.2215
  354loPI   C4A 5658  10.930  18.025   8.825 -0.2482  0.1745 -0.1004
  354loPI   C5A 5659  11.273  17.820   8.461 -0.2537  0.0430 -0.1260
  354loPI   C6A 5660  11.652  17.471   8.495  0.4140 -0.0840 -0.2287
  354loPI   C1B 5661  10.145  17.725   9.719 -0.0762  0.0618 -0.0050
  354loPI   C2B 5662  10.288  17.794   9.251  0.5661  0.0536 -0.1165
  354loPI   C3B 5663  10.394  17.752   8.851  0.3061  0.2503  0.0807
  354loPI   C4B 5664  10.631  17.571   8.566  0.1004  0.4326 -0.0782
  355loPI    C1 5665  16.965  17.133  10.528 -0.0226  0.3099 -0.0024
  355loPI    C2 5666  16.960  16.783  10.721  0.0455  0.2173 -0.1667
  355loPI    C3 5667  16.755  17.095  10.866  0.0318  0.1265  0.0115
  355loPI   PO4 5668  16.873  17.018  10.229  0.1416  0.1672 -0.1366
  355loPI   GL1 5669  16.827  16.813   9.788  0.1008  0.2131 -0.0815
  355loPI   GL2 5670  16.730  17.006   9.681  0.2343  0.2138 -0.0725
  355loPI   C1A 5671  16.724  16.621   9.370 -0.1274  0.1350 -0.2178
  355loPI   C2A 5672  16.599  16.596   8.994 -0.4360  0.0815  0.0759
  355loPI   C3A 5673  16.607  16.639   8.570 -0.1176 -0.1155  0.1672
  355loPI   C4A 5674  16.625  16.799   8.213 -0.1556 -0.1405  0.2914
  355loPI   C5A 5675  16.323  17.083   8.192 -0.2038 -0.0745 -0.0417
  355loPI   C6A 5676  15.872  17.077   8.326  0.1094 -0.3316  0.0346
  355loPI   C1B 5677  16.730  17.219   9.230  0.1443 -0.3549  0.1236
  355loPI   C2B 5678  16.731  17.518   8.924  0.3678  0.1973  0.1571
  355loPI   C3B 5679  16.794  17.808   8.681  0.1642  0.4074 -0.1999
  355loPI   C4B 5680  16.933  17.724   8.225 -0.1095  0.0303  0.0618
  356loPI    C1 5681   8.777  16.689  10.127 -0.0875  0.2531  0.0648
  356loPI    C2 5682   8.786  17.089  10.118  0.2964  0.2645  0.5248
  356loPI    C3 5683   8.580  16.900  10.404 -0.0555  0.1240  0.1874
  356loPI   PO4 5684   9.042  16.622   9.961 -0.1642  0.1049  0.4215
  356loPI   GL1 5685   9.432  16.608   9.709 -0.4429 -0.0888 -0.1515
  356loPI   GL2 5686   9.328  16.298   9.758 -0.2696  0.1142  0.1039
  356loPI   C1A 5687   9.431  16.707   9.312 -0.1273  0.0784 -0.0025
  356loPI   C2A 5688   9.372  16.697   8.929  0.2089 -0.0233  0.1630
  356loPI   C3A 5689   9.494  16.425   8.566  0.0020 -0.1418  0.0613
  356loPI   C4A 5690   9.383  16.294   8.165  0.0829  0.3413 -0.1049
  356loPI   C5A 5691   9.209  15.972   8.003  0.0108  0.3983  0.1672
  356loPI   C6A 5692   9.561  15.731   7.657 -0.1253  0.1843  0.2919
  356loPI   C1B 5693   9.416  15.973   9.432  0.1799  0.1823 -0.2231
  356loPI   C2B 5694   9.648  15.670   9.209 -0.1063  0.0859  0.0515
  356loPI   C3B 5695   9.704  15.250   9.042 -0.0475 -0.1616  0.3308
  356loPI   C4B 5696   9.697  14.761   9.025  0.2892  0.0327  0.0674
  357loPI    C1 5697  10.474   7.961  10.745  0.0590 -0.0294  0.0385
  357loPI    C2 5698  10.125   7.811  10.869  0.0469 -0.0212  0.0143
  357loPI    C3 5699  10.330   8.060  11.105  0.1689 -0.2402  0.1420
  357loPI   PO4 5700  10.477   7.915  10.517  0.1408  0.1563 -0.0563
  357loPI   GL1 5701  10.525   8.008  10.067  0.1273 -0.4627 -0.0490
  357loPI   GL2 5702  10.490   8.295   9.934 -0.1096 -0.1376 -0.0698
  357loPI   C1A 5703  10.801   7.719   9.644  0.0146 -0.1537  0.1028
  357loPI   C2A 5704  10.416   7.696   9.363  0.0814  0.3169 -0.1340
  357loPI   C3A 5705  10.396   7.592   8.930 -0.0693 -0.2347  0.2484
  357loPI   C4A 5706  10.364   7.467   8.609  0.1958 -0.2379  0.1969
  357loPI   C5A 5707  10.528   7.547   8.232 -0.1141 -0.2827  0.4992
  357loPI   C6A 5708  10.703   7.735   7.904  0.1582 -0.2206  0.0208
  357loPI   C1B 5709  10.523   8.192   9.548 -0.0184 -0.0292 -0.2972
  357loPI   C2B 5710  10.521   8.074   9.069  0.0917 -0.0207 -0.1105
  357loPI   C3B 5711  10.522   8.025   8.735 -0.3459 -0.1714 -0.2366
  357loPI   C4B 5712  10.339   7.932   8.364 -0.1662  0.1177 -0.2443
  358loPI    C1 5713  17.645  16.183  10.540 -0.2584 -0.2384 -0.1326
  358loPI    C2 5714  17.599  15.952  10.864  0.0003  0.1240  0.1708
  358loPI    C3 5715  17.886  16.231  10.855 -0.0239  0.1433 -0.3621
  358loPI   PO4 5716  17.665  16.071  10.347  0.3048  0.2038  0.2946
  358loPI   GL1 5717  17.353  16.156   9.944  0.0241 -0.0222 -0.0749
  358loPI   GL2 5718  17.060  16.302   9.694  0.0823  0.0510  0.1384
  358loPI   C1A 5719  17.459  16.109   9.425  0.0446 -0.1920  0.0097
  358loPI   C2A 5720  17.543  16.149   9.050  0.0865 -0.0658  0.2196
  358loPI   C3A 5721  17.590  16.049   8.635 -0.0318 -0.0635 -0.0580
  358loPI   C4A 5722  17.416  16.080   8.219  0.1193  0.1422 -0.1151
  358loPI   C5A 5723  17.620  16.040   7.818 -0.1461  0.0623 -0.6075
  358loPI   C6A 5724  17.959  16.294   7.591  0.2427  0.1187  0.0570
  358loPI   C1B 5725  17.085  16.338   9.187 -0.0504 -0.3803 -0.0002
  358loPI   C2B 5726  17.055  16.336   8.687 -0.0153 -0.0437  0.0489
  358loPI   C3B 5727  16.948  16.233   8.301  0.2176 -0.0497 -0.1307
  358loPI   C4B 5728  17.158  16.177   7.871 -0.1428 -0.1158  0.3459
  359loPI    C1 5729   4.425  15.368  10.572  0.1880 -0.2312 -0.2879
  359loPI    C2 5730   4.505  14.978  10.607  0.0360 -0.2450 -0.0785
  359loPI    C3 5731   4.165  15.127  10.757  0.1747 -0.0017 -0.0007
  359loPI   PO4 5732   4.388  15.575  10.298  0.6102  0.1889  0.0948
  359loPI   GL1 5733   4.693  15.517   9.817  0.1653  0.0201  0.1260
  359loPI   GL2 5734   4.566  15.686   9.526  0.0609  0.0705  0.0052
  359loPI   C1A 5735   4.666  15.083   9.639 -0.0851  0.0682  0.0431
  359loPI   C2A 5736   4.800  14.842   9.237 -0.1785 -0.3440  0.1601
  359loPI   C3A 5737   4.725  14.802   8.828 -0.1004  0.0670 -0.4364
  359loPI   C4A 5738   4.736  14.714   8.416 -0.1299  0.2935 -0.0285
  359loPI   C5A 5739   4.698  14.540   7.945 -0.0095  0.0647 -0.0684
  359loPI   C6A 5740   4.998  14.331   7.743  0.0412 -0.0410  0.3615
  359loPI   C1B 5741   4.549  15.760   9.094 -0.0636 -0.1110 -0.2282
  359loPI   C2B 5742   4.461  16.031   8.768 -0.2032  0.1450 -0.0015
  359loPI   C3B 5743   4.216  16.090   8.376  0.0941 -0.0440 -0.1572
  359loPI   C4B 5744   3.886  16.070   8.124 -0.1773  0.1106  0.3015
  360loPI    C1 5745   0.826   5.791   9.595 -0.1273 -0.2427 -0.0480
  360loPI    C2 5746   0.763   6.154   9.440  0.0680 -0.2705 -0.1957
  360loPI    C3 5747   0.506   6.004   9.707  0.1628  0.1143  0.1220
  360loPI   PO4 5748   0.985   5.712   9.407  0.3740 -0.2656 -0.1573
  360loPI   GL1 5749   0.892   5.684   9.033 -0.1800 -0.0774  0.1609
  360loPI   GL2 5750   0.710   5.468   8.962  0.0233  0.0432 -0.0311
  360loPI   C1A 5751   1.147   5.897   8.616 -0.0394 -0.2829 -0.2642
  360loPI   C2A 5752   1.256   5.821   8.236  0.2755  0.0815 -0.1328
  360loPI   C3A 5753   1.283   5.542   7.827  0.2073  0.0744 -0.0352
  360loPI   C4A 5754   1.116   5.244   7.448  0.3595  0.0261  0.1417
  360loPI   C5A 5755   1.150   4.988   7.149  0.2341 -0.0266 -0.1509
  360loPI   C6A 5756   1.081   4.617   7.068  0.1702 -0.0919 -0.1456
  360loPI   C1B 5757   0.711   5.660   8.510  0.1636 -0.1609 -0.0270
  360loPI   C2B 5758   0.470   5.821   8.170  0.3092  0.1965  0.0212
  360loPI   C3B 5759   0.400   6.097   7.783  0.0556 -0.0589 -0.2414
  360loPI   C4B 5760   0.223   6.106   7.400  0.2083 -0.1527  0.1500
  361loPI    C1 5761  14.845   3.319  10.613 -0.2018  0.1194  0.0724
  361loPI    C2 5762  14.986   3.678  10.506  0.1386 -0.0949 -0.2200
  361loPI    C3 5763  15.163   3.473  10.800 -0.1273  0.0220  0.0264
  361loPI   PO4 5764  14.922   3.038  10.364  0.0687 -0.1735  0.2327
  361loPI   GL1 5765  14.851   3.091   9.877 -0.3345  0.0074 -0.2165
  361loPI   GL2 5766  15.133   3.217   9.629 -0.3052  0.1350 -0.0911
  361loPI   C1A 5767  14.929   2.647   9.568 -0.0119  0.1921  0.0392
  361loPI   C2A 5768  15.000   2.677   9.100 -0.2152 -0.2373 -0.0282
  361loPI   C3A 5769  15.264   2.748   8.758 -0.1319 -0.0104  0.3615
  361loPI   C4A 5770  15.509   2.750   8.393  0.0629  0.4858 -0.0513
  361loPI   C5A 5771  15.856   2.974   8.383 -0.2149 -0.2540 -0.0284
  361loPI   C6A 5772  16.126   3.006   8.090  0.1050  0.3387 -0.1004
  361loPI   C1B 5773  14.903   3.298   9.270 -0.1604  0.2094 -0.0440
  361loPI   C2B 5774  15.012   3.193   8.798  0.0517 -0.0706  0.0622
  361loPI   C3B 5775  15.018   3.068   8.375  0.2645  0.1702  0.1401
  361loPI   C4B 5776  15.045   2.914   8.048  0.0789  0.0606 -0.2241
  362loPI    C1 5777   1.959  13.176   9.892 -0.0708  0.1678  0.0259
  362loPI    C2 5778   2.344  13.069   9.869 -0.0832  0.1276  0.0044
  362loPI    C3 5779   2.115  12.929  10.166 -0.1828 -0.1702 -0.2079
  362loPI   PO4 5780   2.019  13.430   9.796  0.1084 -0.2873 -0.1223
  362loPI   GL1 5781   1.935  13.608   9.364 -0.1826 -0.1221  0.0523
  362loPI   GL2 5782   1.769  13.863   9.569  0.5492  0.0266  0.1372
  362loPI   C1A 5783   2.067  13.720   8.957  0.0264  0.0739  0.1025
  362loPI   C2A 5784   2.043  13.767   8.497  0.1401  0.0425 -0.2004
  362loPI   C3A 5785   2.221  13.596   8.112  0.0111  0.1944  0.1289
  362loPI   C4A 5786   2.296  13.517   7.680 -0.3079 -0.5311 -0.2035
  362loPI   C5A 5787   2.208  13.149   7.527 -0.1449  0.2035  0.3056
  362loPI   C6A 5788   2.191  12.937   7.143  0.2192 -0.0108 -0.0854
  362loPI   C1B 5789   1.785  14.094   9.216  0.0767 -0.0411  0.0736
  362loPI   C2B 5790   1.975  14.166   8.792 -0.1009  0.0173  0.0798
  362loPI   C3B 5791   1.846  14.470   8.501  0.1454 -0.0892  0.1324
  362loPI   C4B 5792   1.574  14.562   8.240  0.2049 -0.3087 -0.1004
  363loPI    C1 5793   0.696   9.796   9.639  0.2323  0.0436 -0.0473
  363loPI    C2 5794   0.737  10.041   9.952 -0.4211  0.0510  0.0462
  363loPI    C3 5795   0.864   9.663   9.977  0.0974  0.2197  0.0912
  363loPI   PO4 5796   0.717   9.826   9.358  0.0081 -0.0652 -0.2336
  363loPI   GL1 5797   0.509   9.786   9.015  0.1565  0.0701  0.2909
  363loPI   GL2 5798   0.152   9.813   9.136 -0.3214 -0.1722  0.1157
  363loPI   C1A 5799   0.343   9.858   8.516 -0.1516  0.1367 -0.1198
  363loPI   C2A 5800   0.322   9.893   8.096  0.0575  0.0278 -0.0391
  363loPI   C3A 5801   0.381   9.955   7.766 -0.4131 -0.1634 -0.0044
  363loPI   C4A 5802   0.301  10.273   7.411  0.3018 -0.1844 -0.2043
  363loPI   C5A 5803   0.158  10.399   6.980  0.0250  0.2087 -0.1682
  363loPI   C6A 5804   0.201  10.208   6.547 -0.0050 -0.0328 -0.1472
  363loPI   C1B 5805  -0.178   9.801   8.801  0.1308 -0.2416 -0.0477
  363loPI   C2B 5806  -0.406  10.040   8.517 -0.1421  0.0602 -0.0583
  363loPI   C3B 5807  -0.729  10.042   8.348  0.3441 -0.4151 -0.3220
  363loPI   C4B 5808  -1.102  10.002   8.028 -0.1819 -0.0570 -0.1493
  364loPI    C1 5809   6.855  15.871  10.279 -0.0703 -0.1050 -0.1113
  364loPI    C2 5810   6.831  16.020  10.650  0.0359 -0.1959 -0.0673
  364loPI    C3 5811   7.020  16.226  10.363 -0.1417 -0.0746 -0.0988
  364loPI   PO4 5812   6.663  15.764  10.240 -0.0453 -0.1137  0.1988
  364loPI   GL1 5813   6.633  15.592   9.878 -0.0754 -0.2303 -0.2339
  364loPI   GL2 5814   6.361  15.841   9.911  0.0754 -0.2263  0.2577
  364loPI   C1A 5815   6.648  15.295   9.478  0.0638  0.2236 -0.2239
  364loPI   C2A 5816   6.957  15.202   8.959  0.0359  0.0240 -0.1533
  364loPI   C3A 5817   7.218  15.114   8.650 -0.0565  0.1544  0.3846
  364loPI   C4A 5818   7.189  15.222   8.201 -0.0191  0.0850 -0.2876
  364loPI   C5A 5819   7.568  15.280   7.932 -0.0651  0.1587  0.0032
  364loPI   C6A 5820   7.863  15.406   7.746 -0.1930  0.2296  0.0076
  364loPI   C1B 5821   6.554  15.826   9.491 -0.0104  0.1471 -0.1139
  364loPI   C2B 5822   6.756  15.636   9.067  0.1668  0.0884  0.1182
  364loPI   C3B 5823   7.147  15.642   9.033 -0.0290 -0.0312 -0.0203
  364loPI   C4B 5824   7.333  15.270   9.277 -0.2587 -0.0779  0.2254
  365loPI    C1 5825   9.473  15.509  10.333 -0.0345  0.0223  0.2264
  365loPI    C2 5826   9.320  15.716  10.640 -0.1748  0.1655  0.0622
  365loPI    C3 5827   9.077  15.520  10.390 -0.0438 -0.1875  0.2064
  365loPI   PO4 5828   9.670  15.639  10.190 -0.0373 -0.1959 -0.0173
  365loPI   GL1 5829   9.922  15.595   9.830 -0.0349 -0.1409  0.1736
  365loPI   GL2 5830   9.735  15.946   9.761 -0.2383 -0.1182  0.0749
  365loPI   C1A 5831   9.886  15.352   9.526  0.3326 -0.1042 -0.0082
  365loPI   C2A 5832  10.022  15.041   9.314 -0.1216 -0.0511  0.0749
  365loPI   C3A 5833  10.226  14.865   9.000 -0.0541  0.0984  0.2150
  365loPI   C4A 5834  10.420  15.083   8.682 -0.1046 -0.0004  0.0422
  365loPI   C5A 5835  10.670  14.922   8.346 -0.0174 -0.0016  0.1990
  365loPI   C6A 5836  10.999  14.727   8.163  0.2864 -0.0269  0.2150
  365loPI   C1B 5837   9.849  16.277   9.461 -0.0555  0.1816 -0.0682
  365loPI   C2B 5838   9.883  16.359   9.116  0.2015  0.1630  0.1958
  365loPI   C3B 5839  10.117  16.410   8.734  0.0989 -0.1215  0.0785
  365loPI   C4B 5840  10.125  16.451   8.301  0.1187  0.0251  0.1713
  366loPI    C1 5841   8.307   2.277  10.820  0.1525  0.0623  0.0364
  366loPI    C2 5842   8.577   2.039  10.995  0.0844 -0.0461 -0.0046
  366loPI    C3 5843   8.617   2.437  11.017  0.3279 -0.0614 -0.1351
  366loPI   PO4 5844   8.288   2.109  10.558  0.1720  0.1825 -0.0923
  366loPI   GL1 5845   8.484   1.997  10.217  0.0266  0.0074 -0.0034
  366loPI   GL2 5846   8.747   2.265  10.094  0.2388 -0.1091 -0.0011
  366loPI   C1A 5847   8.775   1.838   9.820  0.3283 -0.2687 -0.1032
  366loPI   C2A 5848   8.921   2.086   9.526  0.0678 -0.0128 -0.1064
  366loPI   C3A 5849   8.762   2.181   9.172 -0.3748 -0.2059 -0.0054
  366loPI   C4A 5850   8.632   2.243   8.711 -0.0398  0.0976  0.0130
  366loPI   C5A 5851   9.012   2.308   8.230 -0.1641 -0.1640 -0.1121
  366loPI   C6A 5852   9.340   2.101   8.043 -0.5135 -0.2164  0.0346
  366loPI   C1B 5853   8.579   2.408   9.705  0.1900  0.1181 -0.1616
  366loPI   C2B 5854   8.578   2.643   9.350  0.1129 -0.2360 -0.0542
  366loPI   C3B 5855   8.755   2.666   9.011  0.2040  0.0024  0.0036
  366loPI   C4B 5856   8.958   2.580   8.646  0.3272 -0.2612  0.0491
  367loPI    C1 5857   0.884   4.029   9.801 -0.1163 -0.0997 -0.1022
  367loPI    C2 5858   0.923   3.901  10.178  0.1798  0.0301 -0.0861
  367loPI    C3 5859   0.583   4.075  10.060  0.2153  0.3200  0.2237
  367loPI   PO4 5860   1.059   3.893   9.656  0.0852  0.2346 -0.3848
  367loPI   GL1 5861   1.061   3.374   9.496  0.1212  0.2612  0.0845
  367loPI   GL2 5862   1.314   3.166   9.412 -0.0331  0.1828  0.3351
  367loPI   C1A 5863   1.047   3.423   9.067  0.3126 -0.1181  0.1570
  367loPI   C2A 5864   1.227   3.298   8.746  0.1972  0.0193 -0.0642
  367loPI   C3A 5865   1.298   3.131   8.277  0.1554 -0.3383  0.0948
  367loPI   C4A 5866   1.424   3.038   7.769 -0.1082 -0.1093 -0.0935
  367loPI   C5A 5867   1.507   2.710   7.471  0.3489  0.2688 -0.0590
  367loPI   C6A 5868   1.941   2.600   7.441 -0.1290  0.1790 -0.0202
  367loPI   C1B 5869   1.524   3.085   9.103 -0.0767 -0.0462 -0.1849
  367loPI   C2B 5870   1.695   3.156   8.656  0.3164 -0.0926  0.2971
  367loPI   C3B 5871   1.817   3.138   8.164 -0.0077 -0.3420  0.0877
  367loPI   C4B 5872   1.957   2.944   7.789  0.1714  0.1423  0.1055
  368loPI    C1 5873   0.755   5.255   9.471  0.1365 -0.0358 -0.0494
  368loPI    C2 5874   0.804   5.278   9.868  0.0246 -0.3154 -0.0168
  368loPI    C3 5875   1.121   5.300   9.625  0.0611  0.1988  0.0666
  368loPI   PO4 5876   0.542   5.435   9.424 -0.2331 -0.0695  0.0412
  368loPI   GL1 5877   0.452   5.862   9.201  0.0720 -0.0040 -0.1355
  368loPI   GL2 5878   0.232   5.695   9.124  0.2676  0.2082 -0.1024
  368loPI   C1A 5879   0.634   6.025   8.809  0.3015 -0.2063  0.2306
  368loPI   C2A 5880   0.775   6.129   8.399 -0.0931 -0.1092  0.0737
  368loPI   C3A 5881   0.893   5.994   7.910  0.1904 -0.1820 -0.1621
  368loPI   C4A 5882   1.148   5.990   7.540  0.0399 -0.1236  0.2764
  368loPI   C5A 5883   1.209   6.442   7.235 -0.2377  0.1802  0.0777
  368loPI   C6A 5884   0.883   6.728   7.185  0.0953  0.0197  0.1695
  368loPI   C1B 5885   0.226   5.718   8.723 -0.1248  0.0114  0.3463
  368loPI   C2B 5886  -0.060   5.675   8.353  0.0139  0.2357 -0.1893
  368loPI   C3B 5887  -0.222   5.653   7.996 -0.0468  0.1849  0.1146
  368loPI   C4B 5888  -0.478   5.607   7.558  0.1757 -0.0186  0.1601
  369loPI    C1 5889   5.748   9.861  10.278 -0.0648  0.0349  0.2200
  369loPI    C2 5890   5.443   9.610  10.338  0.1828 -0.3034  0.0955
  369loPI    C3 5891   5.507   9.911  10.594 -0.3960 -0.0775 -0.0097
  369loPI   PO4 5892   5.817   9.873   9.967 -0.2688  0.0134 -0.2628
  369loPI   GL1 5893   6.105  10.095   9.621  0.0317 -0.2260  0.2205
  369loPI   GL2 5894   6.330  10.005   9.515  0.1073 -0.3355  0.1633
  369loPI   C1A 5895   5.899  10.035   9.162  0.4045 -0.0203 -0.1164
  369loPI   C2A 5896   5.975  10.115   8.827  0.1675 -0.2845 -0.3964
  369loPI   C3A 5897   6.304  10.300   8.474 -0.2950  0.3273  0.1058
  369loPI   C4A 5898   6.760  10.312   8.251  0.0042  0.2025  0.0163
  369loPI   C5A 5899   7.118  10.115   8.129  0.0427 -0.0201  0.0346
  369loPI   C6A 5900   7.086   9.745   8.005  0.2243  0.0630 -0.0406
  369loPI   C1B 5901   6.391   9.911   9.140  0.1356 -0.0013 -0.0560
  369loPI   C2B 5902   6.536  10.058   8.824  0.3700  0.0909  0.0775
  369loPI   C3B 5903   6.672   9.779   8.417  0.0025  0.1170  0.1178
  369loPI   C4B 5904   6.649   9.929   7.936  0.2046  0.2558  0.1029
  370loPI    C1 5905   2.288  17.557  10.104  0.2043  0.0476  0.0259
  370loPI    C2 5906   2.613  17.403  10.278  0.1925  0.0749  0.0727
  370loPI    C3 5907   2.452  17.741  10.418  0.0246 -0.0464  0.1769
  370loPI   PO4 5908   2.192  17.247   9.931  0.1253 -0.0461  0.0555
  370loPI   GL1 5909   1.813  17.221   9.667  0.3304 -0.1136  0.2800
  370loPI   GL2 5910   1.658  17.498   9.391  0.4569  0.0005 -0.0316
  370loPI   C1A 5911   1.731  16.976   9.324  0.2356  0.1177  0.0282
  370loPI   C2A 5912   1.841  16.599   9.093 -0.0228 -0.0024 -0.0963
  370loPI   C3A 5913   1.623  16.322   8.835 -0.0380  0.1762  0.1862
  370loPI   C4A 5914   1.502  15.969   8.541  0.1495 -0.1863  0.0846
  370loPI   C5A 5915   1.386  15.615   8.217  0.0609  0.4546  0.0578
  370loPI   C6A 5916   1.213  15.355   7.958  0.1301  0.1053 -0.0795
  370loPI   C1B 5917   1.870  17.601   8.901 -0.3341 -0.1416  0.0170
  370loPI   C2B 5918   1.932  17.489   8.492  0.0953  0.0502 -0.1123
  370loPI   C3B 5919   2.089  17.340   8.180  0.1052  0.2473  0.1418
  370loPI   C4B 5920   2.306  17.415   7.829  0.1049  0.0895 -0.1802
  371loPI    C1 5921   6.020  12.946   9.601 -0.0430  0.0741 -0.2322
  371loPI    C2 5922   5.888  12.936   9.978  0.0532  0.0475 -0.1988
  371loPI    C3 5923   5.641  13.044   9.682 -0.0242  0.0624 -0.1292
  371loPI   PO4 5924   6.055  12.703   9.496  0.0316 -0.0576 -0.1002
  371loPI   GL1 5925   6.101  12.395   9.303  0.0254  0.0115  0.2570
  371loPI   GL2 5926   5.873  12.242   9.274  0.0793  0.2500  0.0668
  371loPI   C1A 5927   6.130  12.287   8.813  0.4523  0.1164  0.1635
  371loPI   C2A 5928   6.130  12.231   8.408 -0.0257 -0.0749 -0.0072
  371loPI   C3A 5929   6.210  12.118   8.009 -0.0633  0.0023  0.1657
  371loPI   C4A 5930   5.951  12.092   7.709 -0.1050  0.2325 -0.0107
  371loPI   C5A 5931   5.764  11.990   7.308  0.0817 -0.2209 -0.0179
  371loPI   C6A 5932   5.669  11.632   7.134 -0.1974 -0.0298 -0.1354
  371loPI   C1B 5933   5.663  12.374   9.029  0.1048 -0.1524  0.2186
  371loPI   C2B 5934   5.769  12.620   8.587  0.0387  0.0543 -0.1510
  371loPI   C3B 5935   5.856  12.674   8.121 -0.0801 -0.0472 -0.0256
  371loPI   C4B 5936   6.060  12.567   7.711 -0.2459 -0.0479  0.1264
  372loPI    C1 5937  14.568   2.683  10.269 -0.2707 -0.0751 -0.0889
  372loPI    C2 5938  14.334   2.907  10.035 -0.1152  0.2086  0.0226
  372loPI    C3 5939  14.427   3.032  10.404 -0.0355 -0.0472  0.0912
  372loPI   PO4 5940  14.508   2.492  10.244  0.0450  0.1182  0.1794
  372loPI   GL1 5941  14.459   2.325   9.808 -0.1455  0.0214 -0.2437
  372loPI   GL2 5942  14.112   2.262   9.901  0.0092 -0.3578  0.2583
  372loPI   C1A 5943  14.449   2.500   9.515 -0.1291 -0.1875  0.0485
  372loPI   C2A 5944  14.541   2.438   9.130 -0.0778  0.1593  0.0620
  372loPI   C3A 5945  14.485   2.226   8.756 -0.0109 -0.0261  0.2806
  372loPI   C4A 5946  14.531   2.158   8.331 -0.1229  0.0943  0.2494
  372loPI   C5A 5947  14.185   2.121   8.044  0.0780 -0.0092 -0.1075
  372loPI   C6A 5948  13.953   2.115   7.660  0.4982 -0.0194  0.0461
  372loPI   C1B 5949  13.872   2.149   9.595  0.0808 -0.2317  0.0748
  372loPI   C2B 5950  13.559   2.087   9.190  0.1554 -0.0162  0.0441
  372loPI   C3B 5951  13.385   2.212   8.812 -0.2180  0.0423 -0.3163
  372loPI   C4B 5952  13.042   2.077   8.617 -0.0515  0.0313 -0.1051
  373loPI    C1 5953   5.911   1.886  10.339 -0.0607  0.3577  0.0051
  373loPI    C2 5954   6.273   2.052  10.377  0.2338 -0.2814  0.1311
  373loPI    C3 5955   6.150   1.779  10.641 -0.3717 -0.0362  0.1196
  373loPI   PO4 5956   5.887   1.905  10.118 -0.3882 -0.0712 -0.0882
  373loPI   GL1 5957   6.042   1.760   9.673 -0.2497 -0.1708  0.1198
  373loPI   GL2 5958   6.347   1.892   9.882 -0.0466  0.1373  0.4549
  373loPI   C1A 5959   5.933   2.005   9.349  0.2524 -0.3154 -0.2446
  373loPI   C2A 5960   6.029   1.670   9.055  0.0537  0.1467  0.1350
  373loPI   C3A 5961   5.989   1.324   8.937 -0.1371  0.0387 -0.1393
  373loPI   C4A 5962   6.247   1.149   8.609  0.1535  0.1697  0.2095
  373loPI   C5A 5963   6.562   1.415   8.375  0.4217  0.1949 -0.1301
  373loPI   C6A 5964   6.851   1.402   8.085 -0.0214 -0.1693  0.3393
  373loPI   C1B 5965   6.442   1.833   9.379 -0.2212 -0.2087 -0.0064
  373loPI   C2B 5966   6.639   2.054   8.961 -0.1539 -0.0074  0.1248
  373loPI   C3B 5967   6.790   1.996   8.596  0.0221 -0.2926 -0.0015
  373loPI   C4B 5968   7.092   1.861   8.223 -0.1820  0.2019 -0.0816
  374loPI    C1 5969   5.982  11.990   9.969  0.0144 -0.0072  0.0438
  374loPI    C2 5970   6.043  11.606   9.873 -0.1756  0.0292 -0.2336
  374loPI    C3 5971   5.758  11.703  10.137  0.0282 -0.0355  0.0140
  374loPI   PO4 5972   6.139  12.018   9.666 -0.1877 -0.0506 -0.2649
  374loPI   GL1 5973   6.342  11.931   9.378  0.0532  0.1392  0.2318
  374loPI   GL2 5974   6.632  11.940   9.370 -0.3272  0.3969  0.1121
  374loPI   C1A 5975   6.076  11.817   9.032  0.2421 -0.4701  0.0332
  374loPI   C2A 5976   5.811  11.936   8.674  0.0488 -0.1183  0.0747
  374loPI   C3A 5977   5.708  11.985   8.230 -0.3420  0.2601  0.2823
  374loPI   C4A 5978   5.382  12.043   7.991 -0.1922  0.2082 -0.0331
  374loPI   C5A 5979   5.316  12.058   7.578  0.1684  0.0470  0.1078
  374loPI   C6A 5980   5.150  12.044   7.115  0.2053 -0.3378 -0.0210
  374loPI   C1B 5981   6.947  11.793   8.935  0.1899  0.3140  0.0448
  374loPI   C2B 5982   7.149  11.785   8.617 -0.0350  0.0285 -0.1610
  374loPI   C3B 5983   7.307  11.408   8.315 -0.0533 -0.1282  0.0582
  374loPI   C4B 5984   7.529  11.526   7.845 -0.1216 -0.4851  0.1510
  375loPI    C1 5985   4.199   0.783  10.359  0.0385 -0.2142  0.1666
  375loPI    C2 5986   4.502   1.040  10.308 -0.0841 -0.0487  0.2624
  375loPI    C3 5987   4.475   0.828  10.646  0.2223 -0.4676  0.0340
  375loPI   PO4 5988   4.018   0.924  10.169  0.4093  0.3593 -0.0100
  375loPI   GL1 5989   3.885   1.097   9.741 -0.0530  0.1783 -0.0132
  375loPI   GL2 5990   3.617   1.181   9.595  0.0834 -0.4043  0.3201
  375loPI   C1A 5991   4.112   1.042   9.322 -0.0408 -0.2100 -0.2633
  375loPI   C2A 5992   4.349   1.086   8.948  0.0498  0.3418 -0.1541
  375loPI   C3A 5993   4.578   1.338   8.665 -0.1821 -0.2160  0.2565
  375loPI   C4A 5994   4.739   1.256   8.252 -0.0686  0.0642 -0.2137
  375loPI   C5A 5995   4.514   1.049   8.072 -0.2086 -0.1124 -0.0196
  375loPI   C6A 5996   4.343   0.790   7.609 -0.1357  0.0323 -0.0695
  375loPI   C1B 5997   3.686   1.218   9.105  0.1059 -0.0303 -0.0054
  375loPI   C2B 5998   3.820   1.159   8.843 -0.0509 -0.0915  0.1522
  375loPI   C3B 5999   4.059   0.919   8.520  0.1551 -0.1191  0.0895
  375loPI   C4B 6000   4.088   0.781   8.049  0.2288  0.5425  0.0721
  376loPI    C1 6001  18.381  11.872  10.045  0.1176  0.0465 -0.0351
  376loPI    C2 6002  18.738  12.044  10.100  0.0920  0.1084 -0.0616
  376loPI    C3 6003  18.569  11.836  10.397  0.0373  0.2890  0.0348
  376loPI   PO4 6004  18.217  12.082   9.779  0.1418 -0.0129 -0.3560
  376loPI   GL1 6005  18.183  12.280   9.449  0.0948 -0.1607 -0.0288
  376loPI   GL2 6006  18.475  12.300   9.316  0.0164 -0.0440  0.3787
  376loPI   C1A 6007  18.033  12.414   9.069  0.3645  0.1218  0.2157
  376loPI   C2A 6008  18.060  12.374   8.662  0.0757  0.2165  0.4434
  376loPI   C3A 6009  17.994  12.313   8.238  0.1203  0.0186 -0.3593
  376loPI   C4A 6010  17.967  12.426   7.767  0.1085  0.4877  0.0551
  376loPI   C5A 6011  17.749  12.294   7.441  0.1507  0.1142  0.3150
  376loPI   C6A 6012  17.596  12.398   7.132 -0.0334 -0.2178  0.1360
  376loPI   C1B 6013  18.607  12.316   8.896 -0.2054  0.2365 -0.0492
  376loPI   C2B 6014  18.492  12.383   8.435 -0.0536 -0.0358  0.0586
  376loPI   C3B 6015  18.467  12.635   8.054  0.1089 -0.0526  0.0332
  376loPI   C4B 6016  18.715  12.715   7.595 -0.0772 -0.3883 -0.0884
  377loPI    C1 6017   0.202   6.469   9.797 -0.2066 -0.1968 -0.2355
  377loPI    C2 6018   0.540   6.534   9.594 -0.1320 -0.0898 -0.0794
  377loPI    C3 6019   0.533   6.582   9.991 -0.2744 -0.3051 -0.0543
  377loPI   PO4 6020   0.106   6.322   9.667 -0.0212  0.0123 -0.0031
  377loPI   GL1 6021   0.210   6.315   9.260 -0.0286 -0.1087  0.1023
  377loPI   GL2 6022  -0.075   6.115   9.123 -0.0039  0.0930 -0.0390
  377loPI   C1A 6023   0.245   6.333   8.742 -0.0758 -0.1375 -0.3296
  377loPI   C2A 6024   0.138   6.239   8.304 -0.3513  0.3199 -0.0602
  377loPI   C3A 6025  -0.050   6.125   7.985  0.0925  0.0345  0.0553
  377loPI   C4A 6026  -0.250   6.011   7.598  0.0452 -0.2099  0.1358
  377loPI   C5A 6027  -0.551   6.057   7.314 -0.1962  0.2023 -0.1169
  377loPI   C6A 6028  -0.614   6.454   7.151  0.4299 -0.5040  0.0903
  377loPI   C1B 6029  -0.153   6.027   8.706 -0.2250 -0.1832 -0.0778
  377loPI   C2B 6030  -0.432   6.045   8.282 -0.0150 -0.2496  0.4920
  377loPI   C3B 6031  -0.683   5.898   7.872  0.0924 -0.0480 -0.3136
  377loPI   C4B 6032  -0.998   5.921   7.592  0.2140  0.0867 -0.0232
  378loPI    C1 6033  16.756   7.715   9.896 -0.0037 -0.0373 -0.0547
  378loPI    C2 6034  16.988   8.040   9.912 -0.2487  0.1487 -0.2188
  378loPI    C3 6035  17.154   7.677   9.901  0.0280  0.2679 -0.0707
  378loPI   PO4 6036  16.510   7.843   9.813 -0.1543 -0.0691 -0.0018
  378loPI   GL1 6037  16.434   7.899   9.443 -0.2375  0.0849  0.0517
  378loPI   GL2 6038  16.135   7.768   9.362  0.1805 -0.3409 -0.1687
  378loPI   C1A 6039  16.579   7.870   9.035 -0.2285 -0.3072 -0.0176
  378loPI   C2A 6040  16.657   7.796   8.644 -0.2137  0.0468 -0.2563
  378loPI   C3A 6041  16.385   7.873   8.276 -0.0831 -0.2042 -0.1730
  378loPI   C4A 6042  16.244   7.845   7.942  0.4491  0.2709 -0.1392
  378loPI   C5A 6043  15.851   7.920   7.707  0.0587  0.2090  0.4099
  378loPI   C6A 6044  15.486   8.183   7.815 -0.0501  0.3537 -0.2131
  378loPI   C1B 6045  16.130   7.898   8.878 -0.2414  0.0952  0.1110
  378loPI   C2B 6046  16.091   8.223   8.570 -0.0255 -0.1643  0.2373
  378loPI   C3B 6047  15.953   8.278   8.077  0.0303 -0.0421 -0.0342
  378loPI   C4B 6048  16.163   8.329   7.763  0.1693  0.0654 -0.0170
  379loPI    C1 6049   1.577   1.870  10.200  0.1250  0.1100 -0.2326
  379loPI    C2 6050   1.728   1.973   9.844  0.1130 -0.0941 -0.2981
  379loPI    C3 6051   1.945   2.025  10.176  0.2035 -0.0915 -0.3572
  379loPI   PO4 6052   1.412   1.643  10.110 -0.3563 -0.1875  0.1538
  379loPI   GL1 6053   1.421   1.584   9.730 -0.1528 -0.1068 -0.0327
  379loPI   GL2 6054   1.611   1.559   9.595 -0.0601 -0.1975 -0.1325
  379loPI   C1A 6055   1.193   1.324   9.367 -0.2552 -0.0083  0.1717
  379loPI   C2A 6056   1.177   1.284   8.963  0.0442  0.0742  0.1932
  379loPI   C3A 6057   1.158   1.315   8.503 -0.0430 -0.0416 -0.4076
  379loPI   C4A 6058   1.159   1.319   8.085  0.1126  0.0707  0.0275
  379loPI   C5A 6059   1.148   1.645   7.840 -0.1082 -0.1156 -0.1151
  379loPI   C6A 6060   1.315   1.974   7.721  0.0494 -0.0717  0.4114
  379loPI   C1B 6061   1.705   1.701   9.174  0.0506  0.1868  0.1050
  379loPI   C2B 6062   1.735   1.613   8.654 -0.1801 -0.3083 -0.3756
  379loPI   C3B 6063   1.640   1.413   8.329  0.0108 -0.0765 -0.1193
  379loPI   C4B 6064   1.686   1.415   7.884 -0.1382  0.1121  0.1063
  380loPI    C1 6065   2.114  14.366  10.439  0.0452 -0.0267 -0.0004
  380loPI    C2 6066   2.105  14.251  10.823  0.0780  0.2094  0.0724
  380loPI    C3 6067   1.788  14.186  10.587  0.0325  0.1227  0.1566
  380loPI   PO4 6068   2.252  14.240  10.245 -0.3840 -0.4329  0.1156
  380loPI   GL1 6069   2.006  14.301   9.909 -0.0474  0.0688 -0.0135
  380loPI   GL2 6070   2.205  14.304   9.666 -0.0424 -0.0474  0.0281
  380loPI   C1A 6071   1.847  14.524   9.463  0.0117 -0.1767  0.0747
  380loPI   C2A 6072   1.707  14.555   9.022 -0.1129  0.0089 -0.1986
  380loPI   C3A 6073   1.404  14.819   8.752  0.2048  0.0062 -0.1918
  380loPI   C4A 6074   1.174  14.921   8.258 -0.1270  0.2269 -0.1857
  380loPI   C5A 6075   1.285  14.633   7.846  0.2555  0.2096 -0.4053
  380loPI   C6A 6076   1.152  14.559   7.469  0.1933  0.1013 -0.0260
  380loPI   C1B 6077   2.345  14.121   9.265  0.1079 -0.1476 -0.2350
  380loPI   C2B 6078   2.502  14.066   8.894  0.0982 -0.0058  0.1888
  380loPI   C3B 6079   2.379  14.153   8.510 -0.0614 -0.0397 -0.1388
  380loPI   C4B 6080   2.389  14.044   8.140 -0.1701  0.1331 -0.2578
  381loPI    C1 6081   9.319   4.364  10.526  0.0757 -0.1373  0.1669
  381loPI    C2 6082   9.183   4.692  10.710  0.1318  0.0148 -0.0589
  381loPI    C3 6083   9.573   4.606  10.718  0.0964 -0.1360  0.1377
  381loPI   PO4 6084   9.146   4.438  10.278  0.0290  0.1065 -0.0109
  381loPI   GL1 6085   9.124   4.419   9.753  0.3475 -0.1180  0.0135
  381loPI   GL2 6086   9.069   4.132   9.867 -0.1689  0.3096  0.3488
  381loPI   C1A 6087   9.247   4.387   9.277 -0.1235  0.0230 -0.1689
  381loPI   C2A 6088   9.406   4.324   8.916 -0.2958  0.0920  0.2801
  381loPI   C3A 6089   9.596   4.465   8.662  0.0509 -0.3661 -0.1528
  381loPI   C4A 6090   9.700   4.812   8.441 -0.2256 -0.0386  0.0804
  381loPI   C5A 6091   9.674   4.855   8.002  0.1195  0.0134 -0.1397
  381loPI   C6A 6092   9.642   5.246   7.870  0.0924 -0.2024  0.1586
  381loPI   C1B 6093   9.157   3.894   9.494 -0.2844  0.0324  0.1653
  381loPI   C2B 6094   9.101   3.944   9.093 -0.3955 -0.4303 -0.1668
  381loPI   C3B 6095   9.255   3.855   8.652  0.0151 -0.2053  0.1071
  381loPI   C4B 6096   9.487   4.092   8.385 -0.1137  0.0013 -0.1904
  382loPI    C1 6097  16.013   3.927  10.215 -0.1103  0.1142  0.0496
  382loPI    C2 6098  15.691   3.836   9.994 -0.0657  0.2159 -0.0585
  382loPI    C3 6099  15.693   3.760  10.387 -0.0703 -0.1497 -0.1257
  382loPI   PO4 6100  16.256   3.863   9.994 -0.0031 -0.6090 -0.1942
  382loPI   GL1 6101  16.021   3.804   9.593 -0.1972 -0.0543 -0.4810
  382loPI   GL2 6102  15.788   3.524   9.598  0.1746 -0.1462  0.0361
  382loPI   C1A 6103  15.863   3.957   9.212 -0.0075 -0.0399  0.1902
  382loPI   C2A 6104  15.651   3.899   8.863  0.1665  0.2850 -0.0681
  382loPI   C3A 6105  15.607   3.971   8.373  0.0712  0.3013  0.0610
  382loPI   C4A 6106  15.490   3.850   7.997 -0.1190  0.0282  0.0197
  382loPI   C5A 6107  15.376   3.429   7.926 -0.3472 -0.0345 -0.1884
  382loPI   C6A 6108  15.570   3.038   7.933 -0.2276 -0.1620  0.1927
  382loPI   C1B 6109  15.910   3.446   9.180  0.0676  0.2295 -0.0486
  382loPI   C2B 6110  15.999   3.583   8.745 -0.1598 -0.0608  0.2157
  382loPI   C3B 6111  15.993   3.688   8.265 -0.4313  0.0409  0.3187
  382loPI   C4B 6112  15.856   3.468   7.997 -0.0686  0.1715 -0.0707
  383loPI    C1 6113   6.551  14.805  10.221  0.2102 -0.1318  0.0803
  383loPI    C2 6114   6.728  14.450  10.275  0.2142 -0.1163  0.1699
  383loPI    C3 6115   6.610  14.665  10.591  0.2358 -0.0258  0.1167
  383loPI   PO4 6116   6.436  14.742   9.927  0.2025  0.0435 -0.0613
  383loPI   GL1 6117   6.254  14.305   9.669  0.1958 -0.4970 -0.0361
  383loPI   GL2 6118   5.900  14.344   9.595 -0.0309  0.0689 -0.2285
  383loPI   C1A 6119   6.735  14.454   9.385 -0.1426 -0.0613  0.0517
  383loPI   C2A 6120   7.130  14.320   9.327  0.0618  0.0099 -0.0548
  383loPI   C3A 6121   7.212  14.565   8.987  0.1772 -0.0343  0.2124
  383loPI   C4A 6122   7.268  14.529   8.621 -0.1066  0.3583  0.2162
  383loPI   C5A 6123   7.093  14.728   8.334  0.2582 -0.3699 -0.0018
  383loPI   C6A 6124   7.009  14.793   7.975  0.1035 -0.0868 -0.0378
  383loPI   C1B 6125   5.518  14.128   9.349 -0.1126 -0.1157 -0.0021
  383loPI   C2B 6126   5.465  13.905   9.027 -0.3152  0.4317  0.3894
  383loPI   C3B 6127   5.260  13.813   8.656 -0.0606  0.1607 -0.1909
  383loPI   C4B 6128   5.075  13.582   8.326 -0.1827 -0.3164  0.0428
  384loPI    C1 6129   7.595  11.172   9.689 -0.2598  0.0301  0.2427
  384loPI    C2 6130   7.211  11.263   9.624 -0.1357  0.2468 -0.2348
  384loPI    C3 6131   7.456  11.535   9.784 -0.1240  0.1943 -0.1626
  384loPI   PO4 6132   7.601  10.870   9.698  0.0668  0.2800 -0.1969
  384loPI   GL1 6133   7.837  10.518   9.491  0.4394 -0.1393 -0.1027
  384loPI   GL2 6134   7.597  10.613   9.254  0.0879 -0.1357  0.1350
  384loPI   C1A 6135   8.178  10.501   9.154  0.2323  0.2558 -0.0458
  384loPI   C2A 6136   8.402  10.691   8.735  0.2544 -0.1214 -0.0791
  384loPI   C3A 6137   8.242  10.551   8.352 -0.0815  0.0023  0.1786
  384loPI   C4A 6138   8.167  10.628   7.828  0.0099  0.3519 -0.0250
  384loPI   C5A 6139   8.124  10.843   7.379 -0.2014  0.0909 -0.3522
  384loPI   C6A 6140   7.942  10.902   7.001 -0.1875  0.2888 -0.1057
  384loPI   C1B 6141   7.810  10.679   8.831 -0.2903  0.0052  0.2207
  384loPI   C2B 6142   7.896  10.868   8.527  0.1857 -0.2696 -0.2426
  384loPI   C3B 6143   7.656  10.846   8.101  0.6493  0.1205  0.0020
  384loPI   C4B 6144   7.486  10.491   7.763 -0.0916 -0.1665 -0.1862
  385loPI    C1 6145  13.743  13.927  10.424  0.1504  0.0564 -0.1115
  385loPI    C2 6146  13.700  14.316  10.505 -0.2221 -0.0116  0.0371
  385loPI    C3 6147  13.612  14.043  10.784 -0.1332 -0.2080 -0.1251
  385loPI   PO4 6148  13.925  13.896  10.277 -0.2183 -0.4218  0.0947
  385loPI   GL1 6149  14.185  13.925   9.986 -0.0838  0.0278  0.0655
  385loPI   GL2 6150  14.014  13.650   9.794  0.2683 -0.0135 -0.0964
  385loPI   C1A 6151  14.217  14.010   9.603 -0.1466  0.1812  0.0631
  385loPI   C2A 6152  14.137  14.206   9.258 -0.0982  0.3186 -0.2352
  385loPI   C3A 6153  13.904  14.580   8.982 -0.2915 -0.3907  0.2483
  385loPI   C4A 6154  14.150  14.782   8.682  0.2114  0.1331 -0.3965
  385loPI   C5A 6155  14.471  14.671   8.408  0.2390  0.0853  0.4224
  385loPI   C6A 6156  14.844  14.429   8.119  0.0569 -0.1934 -0.3575
  385loPI   C1B 6157  13.960  13.679   9.342  0.6179  0.2709  0.1924
  385loPI   C2B 6158  13.853  13.790   8.962  0.4612  0.0808  0.1218
  385loPI   C3B 6159  14.063  13.790   8.715  0.0564  0.0682  0.0672
  385loPI   C4B 6160  14.244  13.745   8.288 -0.0914  0.1343  0.0521
  386loPI    C1 6161  17.618   1.414  10.352 -0.1752 -0.2915  0.0692
  386loPI    C2 6162  18.003   1.498  10.421 -0.1595 -0.1796 -0.1445
  386loPI    C3 6163  17.776   1.342  10.712 -0.1432  0.4395  0.2181
  386loPI   PO4 6164  17.653   1.404  10.040  0.2443  0.0939  0.2426
  386loPI   GL1 6165  17.482   1.314   9.731  0.0024  0.1772  0.1593
  386loPI   GL2 6166  17.155   1.280   9.811  0.1469 -0.0959  0.1629
  386loPI   C1A 6167  17.530   1.429   9.282  0.0289 -0.3789  0.1751
  386loPI   C2A 6168  17.373   1.329   8.777  0.0070  0.1529 -0.2295
  386loPI   C3A 6169  17.090   1.011   8.586 -0.2832  0.0321  0.3917
  386loPI   C4A 6170  16.783   0.951   8.215 -0.1362  0.0582  0.0862
  386loPI   C5A 6171  16.543   0.533   8.094 -0.2414  0.2308 -0.1344
  386loPI   C6A 6172  16.113   0.477   7.915  0.3042 -0.2375  0.3639
  386loPI   C1B 6173  17.046   1.181   9.361 -0.0720  0.4625  0.0563
  386loPI   C2B 6174  16.892   1.080   9.020  0.0855 -0.1192 -0.2601
  386loPI   C3B 6175  16.564   1.061   8.749 -0.2262  0.0738 -0.0259
  386loPI   C4B 6176  16.440   1.288   8.421 -0.0191  0.3521 -0.1628
  387loPI    C1 6177  14.551  13.027  10.326 -0.0441 -0.0171  0.0401
  387loPI    C2 6178  14.617  12.836  10.671 -0.0207  0.0419  0.0683
  387loPI    C3 6179  14.554  13.231  10.669 -0.0454  0.0378  0.0076
  387loPI   PO4 6180  14.712  12.895  10.173 -0.3004  0.0318 -0.2405
  387loPI   GL1 6181  14.467  12.708   9.918 -0.1383 -0.1340  0.0328
  387loPI   GL2 6182  14.478  13.010   9.705 -0.2469  0.0118 -0.1198
  387loPI   C1A 6183  14.396  12.467   9.641  0.2973 -0.0021 -0.0967
  387loPI   C2A 6184  14.593  12.559   9.179 -0.4005  0.1569  0.2375
  387loPI   C3A 6185  14.505  12.489   8.853  0.0003  0.1356 -0.0872
  387loPI   C4A 6186  14.504  12.402   8.331 -0.0213  0.1191  0.0376
  387loPI   C5A 6187  14.677  12.222   7.967 -0.0135  0.1109  0.0265
  387loPI   C6A 6188  14.926  12.085   7.560 -0.1144  0.1146  0.0505
  387loPI   C1B 6189  14.335  13.265   9.344 -0.2442  0.3718 -0.0335
  387loPI   C2B 6190  14.257  13.373   8.913  0.0980 -0.1624  0.0727
  387loPI   C3B 6191  14.357  13.252   8.530 -0.2468  0.1853 -0.1940
  387loPI   C4B 6192  14.189  13.280   8.110  0.0296 -0.0020  0.0261
  388loPI    C1 6193  16.372  13.146  10.105 -0.2937 -0.0716  0.0400
  388loPI    C2 6194  16.623  13.422  10.248 -0.0824 -0.0963 -0.2739
  388loPI    C3 6195  16.629  13.051  10.397 -0.1306 -0.0226 -0.0860
  388loPI   PO4 6196  16.298  13.166   9.899  0.2090 -0.3163 -0.2358
  388loPI   GL1 6197  16.539  13.265   9.513 -0.1974  0.1924 -0.0495
  388loPI   GL2 6198  16.695  13.477   9.449 -0.2364  0.1105 -0.0005
  388loPI   C1A 6199  16.350  13.250   9.214 -0.0050 -0.1600 -0.0436
  388loPI   C2A 6200  16.380  13.340   8.787 -0.0107  0.1418  0.0186
  388loPI   C3A 6201  16.448  13.526   8.414 -0.0622  0.0923  0.1221
  388loPI   C4A 6202  16.416  13.513   7.865  0.1259  0.0677  0.2199
  388loPI   C5A 6203  16.137  13.830   7.692  0.1246 -0.0254  0.0531
  388loPI   C6A 6204  15.842  13.833   7.434  0.2115 -0.1745 -0.1273
  388loPI   C1B 6205  16.777  13.547   9.075 -0.1449  0.0213  0.1166
  388loPI   C2B 6206  17.060  13.554   8.712 -0.1293 -0.1304  0.0759
  388loPI   C3B 6207  16.989  13.824   8.238 -0.4065  0.1746  0.0592
  388loPI   C4B 6208  17.244  13.771   7.888 -0.1093 -0.1360  0.0656
  389loPI    C1 6209   1.637   0.607   9.979  0.0023 -0.2005  0.1916
  389loPI    C2 6210   1.931   0.444  10.197  0.1858  0.1202  0.1906
  389loPI    C3 6211   1.648   0.664  10.375 -0.1784 -0.3552  0.2201
  389loPI   PO4 6212   1.546   0.436   9.713 -0.3691  0.5258  0.0306
  389loPI   GL1 6213   1.216   0.450   9.570 -0.3399  0.0325  0.2910
  389loPI   GL2 6214   0.812   0.522   9.693  0.2698  0.3527 -0.1889
  389loPI   C1A 6215   1.245   0.278   9.122 -0.0461  0.2563  0.2514
  389loPI   C2A 6216   1.446   0.115   8.683 -0.3309  0.4122  0.0870
  389loPI   C3A 6217   1.570  -0.024   8.217  0.1640 -0.1488  0.0175
  389loPI   C4A 6218   1.938  -0.291   8.087  0.1484 -0.0440  0.0815
  389loPI   C5A 6219   2.310  -0.305   7.880 -0.2541 -0.3204  0.0400
  389loPI   C6A 6220   2.428  -0.735   7.794  0.1573 -0.4033  0.1229
  389loPI   C1B 6221   0.637   0.623   9.227  0.2621 -0.1174  0.0772
  389loPI   C2B 6222   0.912   0.787   8.988 -0.0218  0.2814 -0.1476
  389loPI   C3B 6223   0.862   0.835   8.654 -0.2955  0.1897 -0.0432
  389loPI   C4B 6224   0.934   0.905   8.198  0.0424 -0.0215  0.2286
  390loPI    C1 6225   1.957  18.569  10.275 -0.0750 -0.0504  0.0799
  390loPI    C2 6226   1.593  18.693  10.166 -0.1100 -0.0003  0.2504
  390loPI    C3 6227   1.633  18.363  10.388 -0.0151 -0.3240 -0.2323
  390loPI   PO4 6228   2.257  18.584  10.105  0.1334  0.1767 -0.0321
  390loPI   GL1 6229   2.339  18.542   9.692  0.0582 -0.0384 -0.1994
  390loPI   GL2 6230   2.418  18.241   9.486  0.2117  0.1102 -0.2751
  390loPI   C1A 6231   2.399  18.642   9.207 -0.3310 -0.1456 -0.3897
  390loPI   C2A 6232   2.346  18.584   8.754  0.0188  0.0773 -0.1327
  390loPI   C3A 6233   2.495  18.327   8.350  0.3104 -0.0926 -0.2643
  390loPI   C4A 6234   2.808  18.232   8.036  0.0965 -0.1117 -0.2260
  390loPI   C5A 6235   3.020  18.142   7.739  0.4049  0.1258 -0.4045
  390loPI   C6A 6236   2.977  18.293   7.359 -0.1258 -0.3836  0.2040
  390loPI   C1B 6237   2.536  18.106   9.084  0.1076 -0.2507 -0.0933
  390loPI   C2B 6238   2.735  17.974   8.685 -0.0500 -0.0133  0.0318
  390loPI   C3B 6239   3.127  18.049   8.331 -0.0323  0.2068 -0.0420
  390loPI   C4B 6240   3.308  18.460   8.060  0.0174 -0.1413 -0.2567
  391loPI    C1 6241  11.740   9.013  10.562 -0.2441  0.1411 -0.1558
  391loPI    C2 6242  11.535   8.891  10.241 -0.2493  0.0763 -0.1279
  391loPI    C3 6243  11.341   9.037  10.559 -0.2645 -0.1465 -0.0327
  391loPI   PO4 6244  11.928   9.206  10.477  0.1488 -0.1319  0.3989
  391loPI   GL1 6245  11.966   9.410  10.096 -0.0377 -0.0821 -0.2035
  391loPI   GL2 6246  11.939   9.535   9.752  0.0803  0.0796 -0.0555
  391loPI   C1A 6247  11.687   9.111   9.791  0.0062 -0.1837 -0.5686
  391loPI   C2A 6248  11.431   9.050   9.464  0.1655 -0.3416 -0.0919
  391loPI   C3A 6249  11.241   9.032   9.006 -0.1949  0.1232 -0.1247
  391loPI   C4A 6250  11.080   8.773   8.773 -0.2581  0.1078  0.3206
  391loPI   C5A 6251  11.004   8.690   8.279 -0.0799 -0.0432 -0.1362
  391loPI   C6A 6252  10.941   8.803   7.838 -0.2012 -0.1686 -0.2422
  391loPI   C1B 6253  11.767   9.404   9.391  0.1493  0.0825 -0.0976
  391loPI   C2B 6254  11.564   9.415   9.026 -0.1246  0.0479 -0.0477
  391loPI   C3B 6255  11.578   9.571   8.657  0.1540 -0.2043 -0.0638
  391loPI   C4B 6256  11.390   9.668   8.204  0.2948  0.0515 -0.1155
  392loPI    C1 6257   5.084   0.775  10.166  0.1109  0.1377 -0.0205
  392loPI    C2 6258   5.003   0.758  10.557 -0.1978  0.1495 -0.0808
  392loPI    C3 6259   5.383   0.763  10.431 -0.0933  0.3995  0.2288
  392loPI   PO4 6260   4.939   0.866  10.078  0.3243 -0.3459 -0.0207
  392loPI   GL1 6261   4.568   0.716   9.811  0.0664 -0.2527  0.1600
  392loPI   GL2 6262   4.368   0.875   9.829  0.0968 -0.1614  0.2528
  392loPI   C1A 6263   4.598   0.996   9.410 -0.3248 -0.2391  0.1321
  392loPI   C2A 6264   4.860   1.014   8.906 -0.1034  0.0059  0.2268
  392loPI   C3A 6265   5.005   0.928   8.549 -0.1065 -0.0365  0.3397
  392loPI   C4A 6266   5.303   1.043   8.222  0.1850 -0.0298  0.0810
  392loPI   C5A 6267   5.721   1.114   7.939  0.2457  0.1452  0.3485
  392loPI   C6A 6268   6.194   1.303   8.089 -0.2136 -0.1724 -0.0032
  392loPI   C1B 6269   4.100   0.603   9.611  0.0296 -0.1023 -0.1020
  392loPI   C2B 6270   3.833   0.326   9.357  0.0777  0.3109 -0.1147
  392loPI   C3B 6271   3.384   0.110   9.346 -0.2886  0.0337  0.3667
  392loPI   C4B 6272   3.360  -0.244   9.151  0.1213 -0.1527  0.1354
  393loPI    C1 6273   5.990   0.620  10.446 -0.2973 -0.0821 -0.2181
  393loPI    C2 6274   5.802   0.858  10.706  0.0159 -0.0824  0.0148
  393loPI    C3 6275   5.862   0.473  10.795  0.2401 -0.0518  0.0018
  393loPI   PO4 6276   5.853   0.632  10.232 -0.1394 -0.0136  0.0321
  393loPI   GL1 6277   5.957   0.837   9.822  0.1261 -0.0945 -0.2412
  393loPI   GL2 6278   6.243   0.901   9.727  0.2156 -0.0738 -0.3078
  393loPI   C1A 6279   5.816   0.970   9.399 -0.1662  0.0111 -0.2329
  393loPI   C2A 6280   5.772   0.817   8.969  0.1698  0.0456 -0.0920
  393loPI   C3A 6281   5.939   0.719   8.552 -0.1958 -0.0590 -0.0278
  393loPI   C4A 6282   6.110   0.740   8.264 -0.2455  0.2322 -0.3121
  393loPI   C5A 6283   6.447   0.535   8.015  0.2885 -0.3681  0.2329
  393loPI   C6A 6284   6.737   0.364   7.769 -0.2762 -0.0388 -0.0731
  393loPI   C1B 6285   6.099   0.511   9.406 -0.0530 -0.0001  0.1281
  393loPI   C2B 6286   6.139   0.316   8.998 -0.1485 -0.0875  0.0131
  393loPI   C3B 6287   5.932   0.227   8.653  0.0655  0.0350 -0.0588
  393loPI   C4B 6288   5.990   0.275   8.137 -0.0338  0.2403 -0.1669
  394loPI    C1 6289   4.151  12.006   9.932  0.0055  0.0006  0.0665
  394loPI    C2 6290   4.032  12.107  10.301 -0.1205 -0.0545  0.0414
  394loPI    C3 6291   3.874  11.787  10.120  0.0295 -0.0990 -0.0131
  394loPI   PO4 6292   4.063  12.262   9.705 -0.0220 -0.0311  0.0518
  394loPI   GL1 6293   4.163  12.574   9.459 -0.0925  0.0185  0.1345
  394loPI   GL2 6294   4.243  12.380   9.197  0.2132 -0.3435  0.3159
  394loPI   C1A 6295   4.242  12.909   9.176 -0.0953  0.2714  0.2152
  394loPI   C2A 6296   4.069  12.957   8.731 -0.1032  0.2808 -0.0526
  394loPI   C3A 6297   3.820  12.733   8.476  0.2372 -0.2875 -0.0052
  394loPI   C4A 6298   3.540  12.777   8.105  0.0214 -0.1256 -0.1209
  394loPI   C5A 6299   3.626  12.825   7.668 -0.1541  0.1206  0.0798
  394loPI   C6A 6300   3.811  12.668   7.327 -0.1069 -0.2002 -0.0818
  394loPI   C1B 6301   4.311  12.005   9.060  0.1023 -0.1031 -0.1308
  394loPI   C2B 6302   4.341  11.835   8.660  0.1157 -0.0418 -0.3291
  394loPI   C3B 6303   4.560  11.875   8.217 -0.0252  0.0822  0.1172
  394loPI   C4B 6304   4.576  12.129   7.789  0.0455  0.2377  0.1244
  395loPI    C1 6305  11.559   3.422  10.688  0.1783 -0.1612  0.1537
  395loPI    C2 6306  11.868   3.376  10.937  0.1956 -0.2030  0.1247
  395loPI    C3 6307  11.534   3.555  11.065  0.3144  0.0476  0.0905
  395loPI   PO4 6308  11.655   3.544  10.494  0.0625  0.0767 -0.3347
  395loPI   GL1 6309  11.473   3.547  10.079  0.0957  0.0786  0.0034
  395loPI   GL2 6310  11.187   3.372  10.085  0.3303 -0.0160  0.0446
  395loPI   C1A 6311  11.420   3.854   9.740 -0.3415  0.1456 -0.1562
  395loPI   C2A 6312  11.225   3.949   9.375 -0.0353  0.3665  0.1657
  395loPI   C3A 6313  11.181   3.708   8.970  0.3404 -0.2743  0.1440
  395loPI   C4A 6314  11.262   3.523   8.501  0.0580 -0.0136 -0.1052
  395loPI   C5A 6315  11.615   3.599   8.257  0.0634 -0.2003  0.0082
  395loPI   C6A 6316  11.905   3.275   8.203  0.0702  0.1299  0.1332
  395loPI   C1B 6317  11.231   3.365   9.673  0.3889 -0.1935 -0.0292
  395loPI   C2B 6318  11.252   3.242   9.267  0.1592  0.0597 -0.1192
  395loPI   C3B 6319  11.219   3.131   8.843  0.0337  0.2577 -0.1490
  395loPI   C4B 6320  10.971   2.987   8.476 -0.1587  0.1185  0.0025
  396loPI    C1 6321  18.162   8.040   9.955  0.0675  0.1254  0.0466
  396loPI    C2 6322  18.347   8.366  10.097 -0.1151  0.2344  0.0370
  396loPI    C3 6323  18.333   8.031  10.317  0.2122  0.1804 -0.0198
  396loPI   PO4 6324  18.268   8.014   9.688  0.3374  0.0928  0.1962
  396loPI   GL1 6325  18.267   7.841   9.305 -0.1482 -0.0385 -0.0535
  396loPI   GL2 6326  18.571   7.792   9.290  0.0587 -0.1927 -0.1945
  396loPI   C1A 6327  18.055   7.732   9.044  0.2403  0.1591  0.0022
  396loPI   C2A 6328  18.236   7.582   8.671  0.1375 -0.0578 -0.2125
  396loPI   C3A 6329  18.167   7.528   8.254  0.1453 -0.1194 -0.1799
  396loPI   C4A 6330  18.200   7.675   7.795 -0.0301 -0.0073 -0.0403
  396loPI   C5A 6331  18.056   7.708   7.368  0.0869  0.0836 -0.2307
  396loPI   C6A 6332  17.878   7.589   6.975  0.0284  0.2380  0.2674
  396loPI   C1B 6333  18.712   7.693   8.834  0.2969 -0.0153 -0.1387
  396loPI   C2B 6334  18.746   7.477   8.466  0.0596 -0.0114 -0.0426
  396loPI   C3B 6335  18.583   7.429   8.044 -0.1645  0.2145  0.1425
  396loPI   C4B 6336  18.651   7.320   7.636  0.2357 -0.0852 -0.2393
  397loPI    C1 6337  16.309  11.140  10.379 -0.0005  0.0939  0.0252
  397loPI    C2 6338  16.518  10.833  10.230 -0.0366 -0.0439  0.2534
  397loPI    C3 6339  16.180  10.765  10.432 -0.0780  0.1507  0.2518
  397loPI   PO4 6340  16.290  11.317  10.173 -0.1619  0.2135  0.0841
  397loPI   GL1 6341  16.006  11.550   9.836  0.7074  0.0289 -0.4338
  397loPI   GL2 6342  15.669  11.594   9.692  0.1479 -0.0259  0.2113
  397loPI   C1A 6343  16.190  11.752   9.593  0.0628  0.1634  0.1660
  397loPI   C2A 6344  16.226  11.762   9.192  0.5393  0.0881  0.4511
  397loPI   C3A 6345  16.182  11.754   8.730  0.0246 -0.0987 -0.1151
  397loPI   C4A 6346  16.257  11.765   8.277  0.1445  0.2123  0.2747
  397loPI   C5A 6347  16.228  11.661   7.890  0.1335 -0.0919 -0.3676
  397loPI   C6A 6348  16.658  11.357   7.727  0.1268  0.0591 -0.0344
  397loPI   C1B 6349  15.762  11.612   9.319  0.0219 -0.1050 -0.0401
  397loPI   C2B 6350  15.771  11.536   8.854  0.0039  0.0499 -0.2748
  397loPI   C3B 6351  15.809  11.574   8.415 -0.1994 -0.0255 -0.1497
  397loPI   C4B 6352  15.730  11.540   8.055  0.0214 -0.3840  0.1248
  398loPI    C1 6353   0.877   8.017   9.598  0.3005  0.0372 -0.1071
  398loPI    C2 6354   1.021   7.925   9.959  0.1205 -0.0363 -0.0531
  398loPI    C3 6355   0.972   8.308   9.855 -0.0574 -0.0174  0.0940
  398loPI   PO4 6356   0.728   7.883   9.575  0.2176 -0.0711 -0.2917
  398loPI   GL1 6357   0.792   7.615   9.174  0.0182  0.0659  0.0222
  398loPI   GL2 6358   0.498   7.767   9.199 -0.0878 -0.0071 -0.1612
  398loPI   C1A 6359   1.011   7.477   8.781  0.1300  0.1215  0.2997
  398loPI   C2A 6360   1.121   7.311   8.319 -0.0919 -0.0373  0.0398
  398loPI   C3A 6361   0.986   7.047   7.948  0.2464  0.0196 -0.2257
  398loPI   C4A 6362   0.991   7.110   7.535 -0.2521 -0.0723 -0.0423
  398loPI   C5A 6363   1.165   7.204   7.091 -0.2004  0.1065  0.1177
  398loPI   C6A 6364   1.622   7.279   7.111  0.0888  0.0998  0.0406
  398loPI   C1B 6365   0.602   7.752   8.746 -0.0728  0.3056  0.2015
  398loPI   C2B 6366   0.684   7.640   8.236 -0.1844  0.1050 -0.1296
  398loPI   C3B 6367   1.003   7.545   7.847 -0.2865 -0.0887  0.0125
  398loPI   C4B 6368   1.393   7.276   7.809 -0.2523  0.0231  0.2515
  399loPI    C1 6369   8.945   8.301  10.603 -0.1475  0.1737  0.1063
  399loPI    C2 6370   8.983   8.218  10.993  0.0377 -0.0607  0.0411
  399loPI    C3 6371   8.657   8.408  10.859  0.1114  0.2960  0.3522
  399loPI   PO4 6372   8.998   8.081  10.498  0.5297 -0.0181 -0.0636
  399loPI   GL1 6373   9.019   8.022  10.069 -0.2453 -0.4226  0.3478
  399loPI   GL2 6374   8.783   8.018   9.935  0.1510  0.3657 -0.0517
  399loPI   C1A 6375   9.250   7.743   9.734 -0.0370  0.2509  0.1809
  399loPI   C2A 6376   9.468   7.598   9.493  0.1675 -0.0954 -0.3376
  399loPI   C3A 6377   9.590   7.631   9.106  0.1772  0.0178  0.1505
  399loPI   C4A 6378   9.522   7.751   8.629  0.0945  0.2420  0.1173
  399loPI   C5A 6379   9.584   7.953   8.184  0.0232 -0.0220 -0.1118
  399loPI   C6A 6380   9.866   8.051   7.874  0.4012  0.0761  0.3121
  399loPI   C1B 6381   9.068   8.129   9.520 -0.2573  0.2121 -0.1549
  399loPI   C2B 6382   9.137   8.056   9.185 -0.0822  0.1809 -0.0532
  399loPI   C3B 6383   9.076   7.683   8.882  0.0081  0.0214 -0.3471
  399loPI   C4B 6384   9.114   7.643   8.365 -0.0843 -0.2651 -0.0603
  400loPI    C1 6385  16.965   8.456   9.579 -0.0066  0.1185  0.1411
  400loPI    C2 6386  16.592   8.326   9.645 -0.0999  0.1475 -0.3021
  400loPI    C3 6387  16.754   8.599   9.887 -0.2367 -0.1163  0.0966
  400loPI   PO4 6388  16.944   8.513   9.287  0.1454 -0.0232 -0.1130
  400loPI   GL1 6389  16.784   8.373   8.918  0.0131  0.2283  0.2050
  400loPI   GL2 6390  16.498   8.531   8.914 -0.0709 -0.2560 -0.1990
  400loPI   C1A 6391  16.702   8.307   8.467  0.2526 -0.1545  0.0311
  400loPI   C2A 6392  16.571   8.247   8.034  0.0053  0.1127 -0.1154
  400loPI   C3A 6393  16.723   7.985   7.755 -0.4033 -0.3496 -0.2710
  400loPI   C4A 6394  16.615   7.594   7.680  0.0733  0.1634  0.0724
  400loPI   C5A 6395  16.811   7.151   7.593 -0.1988  0.3108 -0.2939
  400loPI   C6A 6396  16.875   6.941   7.155  0.1029 -0.0907  0.3100
  400loPI   C1B 6397  16.380   8.699   8.513 -0.1069  0.1020  0.2200
  400loPI   C2B 6398  16.353   8.664   8.098 -0.2071  0.2024  0.1624
  400loPI   C3B 6399  16.450   8.716   7.824 -0.0421 -0.2776 -0.2852
  400loPI   C4B 6400  16.475   8.502   7.418  0.0911 -0.2456  0.1682
  401loPI    C1 6401   9.248   9.672  10.228  0.2068  0.1717 -0.1576
  401loPI    C2 6402   8.983   9.970  10.260  0.3728  0.2938  0.1164
  401loPI    C3 6403   9.024   9.707  10.558  0.3916  0.1337 -0.0266
  401loPI   PO4 6404   9.239   9.607  10.040 -0.2531 -0.0042  0.1051
  401loPI   GL1 6405   9.445   9.592   9.596 -0.0336 -0.1896  0.0349
  401loPI   GL2 6406   9.747   9.664   9.545 -0.4087 -0.3228 -0.1543
  401loPI   C1A 6407   9.356   9.998   9.297  0.2817 -0.0793 -0.2039
  401loPI   C2A 6408   9.099  10.126   8.939  0.2253  0.1309 -0.4191
  401loPI   C3A 6409   8.935   9.931   8.520  0.2849  0.2387 -0.1059
  401loPI   C4A 6410   9.054   9.914   8.095  0.0044  0.2032  0.0114
  401loPI   C5A 6411   9.345   9.977   7.771  0.0401 -0.0134 -0.1858
  401loPI   C6A 6412   9.604   9.994   7.367  0.0119 -0.0021 -0.0768
  401loPI   C1B 6413   9.719   9.346   9.148  0.2506  0.0567 -0.0233
  401loPI   C2B 6414   9.817   9.299   8.736 -0.1909 -0.0317 -0.1559
  401loPI   C3B 6415   9.641   9.441   8.286 -0.0884 -0.3510 -0.2535
  401loPI   C4B 6416   9.366   9.512   7.954  0.1796 -0.0088 -0.3491
  402loPI    C1 6417   1.723  11.681   9.586 -0.2562 -0.1913  0.1418
  402loPI    C2 6418   1.619  11.601   9.963  0.2385 -0.3094  0.2606
  402loPI    C3 6419   1.976  11.763   9.885  0.0218 -0.0071 -0.1374
  402loPI   PO4 6420   1.573  11.926   9.519 -0.1975 -0.2075  0.0178
  402loPI   GL1 6421   1.253  12.013   9.227  0.1573  0.3058  0.2410
  402loPI   GL2 6422   1.167  12.286   9.235  0.1219 -0.3288 -0.0496
  402loPI   C1A 6423   1.434  11.776   8.929 -0.2859  0.0409  0.4773
  402loPI   C2A 6424   1.346  11.917   8.468  0.1367  0.1715  0.1169
  402loPI   C3A 6425   1.532  11.939   8.104  0.0720  0.1656  0.0835
  402loPI   C4A 6426   1.808  12.239   7.874  0.1391  0.0720 -0.0103
  402loPI   C5A 6427   1.946  12.266   7.450  0.0189 -0.0813  0.0693
  402loPI   C6A 6428   2.226  12.149   7.210 -0.0761  0.0668 -0.0332
  402loPI   C1B 6429   1.167  12.285   8.772 -0.0039 -0.2994  0.0995
  402loPI   C2B 6430   1.057  12.428   8.306  0.1190  0.2682 -0.2783
  402loPI   C3B 6431   0.826  12.554   7.885  0.1916  0.1753  0.2501
  402loPI   C4B 6432   0.563  12.532   7.594  0.2443  0.1508  0.2698
  403loPI    C1 6433   4.757   3.254  10.627 -0.1782  0.0211 -0.1553
  403loPI    C2 6434   4.367   3.203  10.695 -0.1135 -0.1218  0.1241
  403loPI    C3 6435   4.605   3.336  10.988  0.0858 -0.2526  0.0231
  403loPI   PO4 6436   4.707   3.312  10.322  0.1085 -0.0608  0.2568
  403loPI   GL1 6437   4.862   3.264   9.846 -0.2400 -0.1361  0.1015
  403loPI   GL2 6438   5.227   3.378   9.666 -0.1382 -0.0050 -0.2141
  403loPI   C1A 6439   4.740   3.461   9.440  0.0413  0.1001  0.2054
  403loPI   C2A 6440   4.763   3.577   9.020 -0.1274 -0.0939  0.1710
  403loPI   C3A 6441   4.803   3.492   8.511 -0.1576 -0.3171  0.1869
  403loPI   C4A 6442   5.061   3.255   8.109 -0.0418 -0.4454 -0.2342
  403loPI   C5A 6443   5.279   2.939   8.091  0.1171 -0.3803 -0.1632
  403loPI   C6A 6444   5.495   2.557   8.084  0.0476 -0.1507  0.0509
  403loPI   C1B 6445   5.341   3.399   9.239  0.0386 -0.0780  0.0998
  403loPI   C2B 6446   5.246   3.462   8.718 -0.3968 -0.2590 -0.1659
  403loPI   C3B 6447   5.339   3.569   8.333  0.0622 -0.0296 -0.0777
  403loPI   C4B 6448   5.669   3.604   8.085 -0.4106  0.2525  0.0611
  404loPI    C1 6449   7.718   1.503  10.825  0.0226 -0.0912  0.2414
  404loPI    C2 6450   7.375   1.299  10.848 -0.1513  0.1859  0.1514
  404loPI    C3 6451   7.369   1.694  10.788  0.1873  0.1756  0.0293
  404loPI   PO4 6452   7.854   1.432  10.670 -0.0644  0.0510  0.1077
  404loPI   GL1 6453   8.038   1.706  10.293  0.2781  0.0994 -0.0482
  404loPI   GL2 6454   8.013   2.073  10.166 -0.3052 -0.2230  0.0622
  404loPI   C1A 6455   7.930   1.625   9.942 -0.3160  0.1049  0.2911
  404loPI   C2A 6456   7.867   1.606   9.573 -0.1569  0.2012  0.3605
  404loPI   C3A 6457   7.956   1.558   9.193  0.0523  0.1351 -0.2126
  404loPI   C4A 6458   8.035   1.475   8.906  0.0062 -0.0717  0.4421
  404loPI   C5A 6459   8.357   1.402   8.644  0.1768  0.0751  0.0955
  404loPI   C6A 6460   8.724   1.174   8.401 -0.1123 -0.0331 -0.1024
  404loPI   C1B 6461   8.226   2.051   9.777  0.1038 -0.0400  0.0747
  404loPI   C2B 6462   8.206   2.230   9.390  0.1428 -0.0444  0.2705
  404loPI   C3B 6463   8.157   2.302   8.952  0.0625 -0.2557 -0.1865
  404loPI   C4B 6464   8.033   2.313   8.592 -0.0100  0.0660  0.3472
  405loPI    C1 6465  12.701   3.632  10.811  0.3266 -0.1845  0.3499
  405loPI    C2 6466  12.373   3.485  10.987 -0.0405  0.2621  0.0614
  405loPI    C3 6467  12.560   3.801  11.145 -0.0392  0.3126 -0.0399
  405loPI   PO4 6468  12.571   3.629  10.504 -0.1966  0.1837 -0.1584
  405loPI   GL1 6469  12.353   3.549  10.100  0.2122  0.0317  0.0318
  405loPI   GL2 6470  12.005   3.644  10.207 -0.2893  0.4381 -0.3599
  405loPI   C1A 6471  12.386   3.280   9.726  0.0504  0.3062 -0.1808
  405loPI   C2A 6472  12.206   3.043   9.397  0.0375 -0.1676 -0.2679
  405loPI   C3A 6473  12.157   3.014   8.942 -0.1710 -0.1661 -0.1399
  405loPI   C4A 6474  12.189   3.175   8.562 -0.2608  0.1692 -0.0105
  405loPI   C5A 6475  12.424   3.386   8.279  0.1842  0.1789 -0.0375
  405loPI   C6A 6476  12.263   3.312   7.832  0.0125 -0.1790 -0.1089
  405loPI   C1B 6477  11.921   3.641   9.867  0.2794  0.1113  0.1889
  405loPI   C2B 6478  11.736   3.289   9.575 -0.3579  0.0899 -0.2278
  405loPI   C3B 6479  11.733   3.081   9.123  0.2667 -0.1118  0.0280
  405loPI   C4B 6480  11.655   2.799   8.822 -0.0941  0.0658  0.3117
  406POPI    C1 6481  12.854   2.028  10.856 -0.1611  0.0754 -0.0513
  406POPI    C2 6482  12.553   2.200  11.055 -0.0741  0.0343  0.1178
  406POPI    C3 6483  12.743   1.886  11.213 -0.0204 -0.0150 -0.0429
  406POPI   PO4 6484  12.752   1.897  10.594 -0.0418  0.3412  0.0380
  406POPI   GL1 6485  12.827   1.947  10.146 -0.1721 -0.2896 -0.1832
  406POPI   GL2 6486  12.986   2.008   9.891 -0.3715 -0.2829  0.1531
  406POPI   C1A 6487  12.574   2.321  10.093  0.3449  0.0040 -0.0896
  406POPI   D2A 6488  12.299   2.471   9.815  0.2233  0.0655 -0.3772
  406POPI   C3A 6489  12.367   2.520   9.395 -0.2892 -0.3520  0.2685
  406POPI   C4A 6490  12.599   2.786   9.130  0.0352  0.1671 -0.4522
  406POPI   C1B 6491  12.689   1.739   9.557  0.0713  0.2176 -0.0539
  406POPI   C2B 6492  12.548   2.057   9.338  0.0405  0.0182 -0.0698
  406POPI   C3B 6493  12.623   1.997   8.873  0.0975  0.3428  0.0090
  406POPI   C4B 6494  12.437   1.876   8.440 -0.3684  0.0983  0.1091
  407POPI    C1 6495   7.171   7.891   9.957  0.1492  0.0885  0.1456
  407POPI    C2 6496   7.207   7.544  10.153 -0.0290  0.1083  0.2156
  407POPI    C3 6497   7.335   7.883  10.322  0.3053  0.0556  0.0752
  407POPI   PO4 6498   7.125   7.838   9.768 -0.1189 -0.1671 -0.2337
  407POPI   GL1 6499   7.086   7.590   9.501  0.2964  0.1984 -0.1628
  407POPI   GL2 6500   7.135   7.330   9.744  0.2039  0.0972 -0.2667
  407POPI   C1A 6501   6.862   7.457   9.137  0.1546  0.1242  0.0075
  407POPI   D2A 6502   6.764   7.148   8.817 -0.1125  0.1658 -0.0829
  407POPI   C3A 6503   6.943   7.115   8.471  0.0188 -0.0663  0.0723
  407POPI   C4A 6504   7.240   7.043   8.207 -0.0464  0.1821  0.1058
  407POPI   C1B 6505   7.164   7.113   9.378 -0.1252  0.0791 -0.1670
  407POPI   C2B 6506   7.119   6.678   9.211 -0.1734  0.2845 -0.0459
  407POPI   C3B 6507   7.110   6.713   8.779 -0.0537  0.2557 -0.2078
  407POPI   C4B 6508   6.952   6.624   8.396 -0.1729 -0.1297 -0.0601
  408POPI    C1 6509  11.344  17.568  10.983  0.1218 -0.0523 -0.0055
  408POPI    C2 6510  11.496  17.650  11.344 -0.0186  0.3062 -0.0246
  408POPI    C3 6511  11.106  17.705  11.274 -0.0715 -0.1479 -0.1168
  408POPI   PO4 6512  11.527  17.284  10.910  0.0190 -0.0754 -0.1002
  408POPI   GL1 6513  11.584  17.061  10.520  0.1438 -0.0090 -0.0019
  408POPI   GL2 6514  11.876  17.024  10.284  0.2285  0.0072  0.0695
  408POPI   C1A 6515  11.385  17.244  10.121 -0.0741 -0.0959 -0.2072
  408POPI   D2A 6516  11.163  17.337   9.796  0.0103  0.1809 -0.3290
  408POPI   C3A 6517  11.224  16.988   9.450  0.0110 -0.2937 -0.0162
  408POPI   C4A 6518  10.960  16.906   9.202  0.0688 -0.1304 -0.0650
  408POPI   C1B 6519  12.030  16.890   9.877 -0.1334  0.1059  0.0456
  408POPI   C2B 6520  12.301  16.735   9.502  0.1173  0.0919  0.2314
  408POPI   C3B 6521  12.639  16.796   9.120  0.2930  0.2769  0.0201
  408POPI   C4B 6522  12.738  16.909   8.652  0.1621 -0.1691 -0.0838
  409POPI    C1 6523   5.986  16.210  10.472 -0.0963 -0.1274 -0.0604
  409POPI    C2 6524   5.827  15.872  10.616 -0.1310 -0.0991 -0.0322
  409POPI    C3 6525   5.899  16.180  10.861 -0.3336  0.0053 -0.1017
  409POPI   PO4 6526   5.993  16.136  10.153 -0.0056 -0.1483 -0.0757
  409POPI   GL1 6527   5.857  15.983   9.807 -0.1675 -0.1707  0.0720
  409POPI   GL2 6528   5.972  16.347   9.747  0.0466  0.3639 -0.0625
  409POPI   C1A 6529   5.803  15.774   9.372  0.2690  0.2442 -0.4384
  409POPI   D2A 6530   5.423  15.905   9.137  0.3283 -0.4817  0.2448
  409POPI   C3A 6531   5.401  16.090   8.765 -0.3879  0.2123 -0.0577
  409POPI   C4A 6532   5.160  16.092   8.409 -0.1596  0.1180 -0.0885
  409POPI   C1B 6533   6.194  16.092   9.367  0.0167  0.0332  0.1005
  409POPI   C2B 6534   6.439  16.020   9.022 -0.1350  0.1890 -0.1942
  409POPI   C3B 6535   6.515  15.944   8.692  0.0102  0.2057 -0.0317
  409POPI   C4B 6536   6.466  16.092   8.297 -0.0363  0.3354  0.3594
  410POPI    C1 6537   5.143  11.740   9.630 -0.0908 -0.0543 -0.0121
  410POPI    C2 6538   4.984  11.672   9.991  0.1460 -0.1502  0.0764
  410POPI    C3 6539   5.337  11.511   9.895 -0.0568 -0.3778 -0.3098
  410POPI   PO4 6540   4.903  11.805   9.519  0.1295 -0.1663  0.0482
  410POPI   GL1 6541   4.916  11.798   9.066 -0.1946  0.2253 -0.1028
  410POPI   GL2 6542   5.082  11.475   9.241  0.2005  0.1990 -0.1978
  410POPI   C1A 6543   4.852  11.747   8.657 -0.2249 -0.1478 -0.0060
  410POPI   D2A 6544   5.099  11.714   8.214  0.3645  0.2536  0.0919
  410POPI   C3A 6545   4.943  11.799   7.934 -0.2315  0.0748  0.0146
  410POPI   C4A 6546   4.919  11.727   7.467  0.1435  0.0725  0.4061
  410POPI   C1B 6547   5.141  11.295   8.955 -0.4927 -0.0961  0.1755
  410POPI   C2B 6548   4.993  11.012   8.766  0.0511 -0.0491  0.2621
  410POPI   C3B 6549   5.045  10.835   8.321 -0.0354 -0.1823  0.0944
  410POPI   C4B 6550   5.083  10.879   7.896 -0.2223  0.2893  0.0615
  411POPI    C1 6551   0.510   9.385   9.349  0.2505  0.0939  0.1318
  411POPI    C2 6552   0.244   9.584   9.572 -0.1002 -0.2125 -0.0041
  411POPI    C3 6553   0.485   9.314   9.742 -0.0848 -0.1523  0.0703
  411POPI   PO4 6554   0.395   9.298   9.164 -0.0575  0.0805  0.2717
  411POPI   GL1 6555   0.218   9.406   8.806 -0.1159 -0.1751 -0.0500
  411POPI   GL2 6556   0.025   9.201   8.864  0.1685 -0.1304  0.0072
  411POPI   C1A 6557   0.166   9.436   8.353  0.3817  0.0833 -0.0929
  411POPI   D2A 6558   0.388   9.360   7.909  0.0727  0.2079 -0.1916
  411POPI   C3A 6559   0.079   9.248   7.557  0.0334  0.2152 -0.2417
  411POPI   C4A 6560   0.020   9.105   7.234  0.2924  0.3411 -0.1649
  411POPI   C1B 6561  -0.041   9.002   8.517  0.1831  0.0180 -0.1185
  411POPI   C2B 6562  -0.035   9.052   8.075  0.4078  0.3933  0.1162
  411POPI   C3B 6563  -0.184   8.846   7.723 -0.0790 -0.0529 -0.4702
  411POPI   C4B 6564  -0.094   8.624   7.329  0.1823  0.3793 -0.1287
  412POPI    C1 6565   1.901   1.428  10.301 -0.2068  0.2762 -0.3465
  412POPI    C2 6566   1.651   1.538  10.593  0.3380 -0.1199  0.2983
  412POPI    C3 6567   1.723   1.150  10.527  0.2165 -0.0385 -0.3885
  412POPI   PO4 6568   1.915   1.513  10.083 -0.1972 -0.1727 -0.0301
  412POPI   GL1 6569   2.153   1.700   9.760 -0.0198  0.0407 -0.1579
  412POPI   GL2 6570   2.114   1.499   9.508 -0.0646  0.1627 -0.0878
  412POPI   C1A 6571   2.480   1.969   9.366 -0.1510  0.2354  0.2746
  412POPI   D2A 6572   2.607   2.032   8.940  0.1318  0.0693  0.0852
  412POPI   C3A 6573   2.787   2.010   8.491  0.1707  0.3301  0.0250
  412POPI   C4A 6574   2.870   2.040   8.096 -0.2108 -0.0624  0.2359
  412POPI   C1B 6575   2.169   1.431   9.054  0.1765 -0.2481  0.2720
  412POPI   C2B 6576   2.135   1.345   8.666  0.2220 -0.2826  0.1138
  412POPI   C3B 6577   2.214   1.390   8.281 -0.1439 -0.3285 -0.0482
  412POPI   C4B 6578   2.210   1.226   7.865 -0.3074 -0.2870 -0.1927
  413POPI    C1 6579   1.845   6.559   9.810  0.0809  0.0594  0.1926
  413POPI    C2 6580   1.741   6.944   9.788 -0.0727 -0.0046 -0.3561
  413POPI    C3 6581   1.524   6.691  10.008  0.0733  0.2297  0.0693
  413POPI   PO4 6582   1.978   6.560   9.606  0.3755  0.0851 -0.1376
  413POPI   GL1 6583   2.243   6.694   9.318  0.0248  0.1017 -0.2105
  413POPI   GL2 6584   2.191   6.978   9.012 -0.1754  0.1283  0.0234
  413POPI   C1A 6585   2.375   6.457   8.956 -0.1066 -0.0999 -0.0109
  413POPI   D2A 6586   2.554   6.150   8.619  0.1188 -0.1872  0.0020
  413POPI   C3A 6587   2.711   6.185   8.167 -0.0003  0.1594 -0.0651
  413POPI   C4A 6588   2.750   6.347   7.656  0.3589 -0.0596  0.0572
  413POPI   C1B 6589   2.365   6.988   8.692  0.3739 -0.0647  0.0687
  413POPI   C2B 6590   2.547   6.694   8.426  0.1581  0.0346 -0.1758
  413POPI   C3B 6591   2.484   6.714   8.020  0.1017  0.0448  0.0944
  413POPI   C4B 6592   2.108   6.924   7.675 -0.4039 -0.0588  0.1716
  414POPI    C1 6593   1.526  16.887  10.298  0.0159  0.0898  0.1206
  414POPI    C2 6594   1.746  17.187  10.152  0.0956 -0.0395 -0.0286
  414POPI    C3 6595   1.822  17.043  10.518 -0.1380  0.3201  0.1682
  414POPI   PO4 6596   1.538  16.737  10.087  0.0761 -0.0920  0.0756
  414POPI   GL1 6597   1.783  16.528   9.728 -0.1557  0.2164 -0.1216
  414POPI   GL2 6598   2.135  16.628   9.537 -0.0222  0.0831 -0.2204
  414POPI   C1A 6599   1.606  16.338   9.462  0.2327  0.1428  0.1336
  414POPI   D2A 6600   1.154  16.218   9.465 -0.3618  0.3675 -0.0358
  414POPI   C3A 6601   1.123  16.055   9.143 -0.3222  0.1622  0.0282
  414POPI   C4A 6602   1.234  15.774   8.920  0.0373  0.0676 -0.0811
  414POPI   C1B 6603   2.357  16.700   9.162 -0.0399 -0.1866 -0.0571
  414POPI   C2B 6604   2.373  17.000   8.705  0.1624 -0.3265 -0.0050
  414POPI   C3B 6605   2.474  16.927   8.259 -0.1352 -0.0749 -0.2796
  414POPI   C4B 6606   2.266  16.954   7.847 -0.2001 -0.0370  0.0447
  415POPI    C1 6607  12.364   1.693  10.942  0.1695 -0.0604  0.1723
  415POPI    C2 6608  12.094   1.432  11.079 -0.2334  0.1683 -0.1625
  415POPI    C3 6609  12.274   1.684  11.332 -0.1087 -0.1830  0.1075
  415POPI   PO4 6610  12.297   1.771  10.750 -0.1650  0.0191  0.1920
  415POPI   GL1 6611  12.245   1.986  10.243  0.0154  0.0258  0.3298
  415POPI   GL2 6612  12.016   2.188  10.132 -0.2024 -0.3450 -0.0014
  415POPI   C1A 6613  12.144   1.752   9.868 -0.1929  0.4510 -0.0457
  415POPI   D2A 6614  12.151   1.622   9.384  0.2415  0.1911  0.0390
  415POPI   C3A 6615  11.987   1.295   8.996  0.2104  0.0253  0.1511
  415POPI   C4A 6616  11.612   1.253   8.706 -0.2425 -0.2031 -0.0460
  415POPI   C1B 6617  11.947   2.124   9.664 -0.0030  0.1666  0.0196
  415POPI   C2B 6618  12.011   2.094   9.185  0.2480 -0.3081 -0.4010
  415POPI   C3B 6619  12.126   1.859   8.926 -0.1260 -0.1986  0.1386
  415POPI   C4B 6620  12.514   1.516   8.938  0.0821 -0.2195  0.0964
  416POPI    C1 6621  12.841   9.265  10.324  0.1703  0.1097 -0.1200
  416POPI    C2 6622  13.212   9.366  10.435  0.0322  0.2729  0.2064
  416POPI    C3 6623  12.951   9.233  10.708 -0.0963 -0.0151 -0.0518
  416POPI   PO4 6624  12.792   9.199  10.094 -0.4104  0.0989  0.0941
  416POPI   GL1 6625  12.703   8.874   9.783 -0.0360  0.1426  0.1240
  416POPI   GL2 6626  12.723   9.106   9.600  0.2131  0.1718  0.1514
  416POPI   C1A 6627  12.352   8.581   9.647 -0.1666 -0.3306 -0.2555
  416POPI   D2A 6628  12.191   8.500   9.360  0.1433  0.1650  0.1166
  416POPI   C3A 6629  11.818   8.474   9.211  0.1898  0.2385 -0.0847
  416POPI   C4A 6630  11.317   8.603   9.258 -0.2600 -0.1451 -0.1332
  416POPI   C1B 6631  12.494   8.904   9.263  0.0060  0.0671  0.0585
  416POPI   C2B 6632  12.206   8.778   8.887  0.3763  0.1464  0.5500
  416POPI   C3B 6633  12.069   8.725   8.559  0.1277 -0.0038  0.1667
  416POPI   C4B 6634  11.830   8.715   8.272  0.2526  0.1069 -0.0261
  417POPI    C1 6635  11.284   1.070  10.814  0.0773  0.1824 -0.0668
  417POPI    C2 6636  10.948   1.208  10.646 -0.0007 -0.0186 -0.0786
  417POPI    C3 6637  10.932   1.010  10.993  0.0734 -0.2608 -0.2110
  417POPI   PO4 6638  11.348   0.861  10.633  0.0328  0.0797 -0.2199
  417POPI   GL1 6639  11.278   0.748  10.222 -0.2608  0.2780 -0.0115
  417POPI   GL2 6640  11.169   1.070  10.235 -0.2312  0.1522 -0.0501
  417POPI   C1A 6641  11.322   0.726   9.810 -0.0558  0.1978 -0.3164
  417POPI   D2A 6642  11.230   1.017   9.507  0.2039 -0.1436  0.0269
  417POPI   C3A 6643  11.549   1.155   9.347  0.1440  0.2516  0.2148
  417POPI   C4A 6644  11.923   1.214   9.504  0.0576  0.0325 -0.0617
  417POPI   C1B 6645  10.907   0.956   9.893 -0.2492 -0.1659 -0.0493
  417POPI   C2B 6646  10.757   1.005   9.598 -0.0114  0.0231 -0.1662
  417POPI   C3B 6647  10.738   0.968   9.233 -0.2006 -0.0260  0.0916
  417POPI   C4B 6648  10.837   0.906   8.816 -0.1867 -0.1720 -0.1111
  418POPI    C1 6649   1.198   9.852   9.664 -0.2223 -0.0819  0.0715
  418POPI    C2 6650   1.421  10.176   9.737 -0.1293 -0.1000 -0.1267
  418POPI    C3 6651   1.288   9.952  10.041  0.1157 -0.0847 -0.0061
  418POPI   PO4 6652   1.207   9.822   9.450  0.2646 -0.0636  0.1610
  418POPI   GL1 6653   1.284   9.802   9.004  0.0999  0.2860  0.2126
  418POPI   GL2 6654   0.989  10.048   9.021  0.0228  0.0372  0.0129
  418POPI   C1A 6655   1.306   9.883   8.536 -0.0156  0.0765  0.0390
  418POPI   D2A 6656   1.203   9.841   8.183 -0.1156 -0.1997 -0.1272
  418POPI   C3A 6657   1.140  10.046   7.841 -0.2311 -0.1119  0.0927
  418POPI   C4A 6658   0.883  10.227   7.556  0.2237  0.1914 -0.0257
  418POPI   C1B 6659   0.819   9.957   8.678 -0.2332 -0.1066  0.0816
  418POPI   C2B 6660   0.764  10.093   8.359  0.3783  0.1550 -0.0422
  418POPI   C3B 6661   0.652  10.285   8.054  0.1582  0.1335 -0.1199
  418POPI   C4B 6662   0.263  10.450   7.883 -0.0050 -0.2420 -0.3119
  419POPI    C1 6663  14.040   0.729  10.509  0.0752 -0.1066  0.2266
  419POPI    C2 6664  13.906   0.353  10.475 -0.1151 -0.0222  0.0233
  419POPI    C3 6665  13.672   0.635  10.636 -0.1341  0.0973 -0.2094
  419POPI   PO4 6666  14.150   0.827  10.256  0.0125  0.2455  0.3515
  419POPI   GL1 6667  13.955   0.821   9.889 -0.0730  0.1453 -0.2186
  419POPI   GL2 6668  13.909   1.228   9.943 -0.3455  0.0554  0.1319
  419POPI   C1A 6669  13.768   0.851   9.569  0.3282 -0.2091 -0.0533
  419POPI   D2A 6670  13.785   0.722   9.162 -0.2165  0.1320 -0.1973
  419POPI   C3A 6671  13.619   1.018   8.813 -0.1166  0.1577  0.2496
  419POPI   C4A 6672  13.345   1.155   8.589 -0.0011 -0.1122 -0.1468
  419POPI   C1B 6673  13.712   1.471   9.553  0.1187 -0.1952 -0.2548
  419POPI   C2B 6674  13.514   1.332   9.220 -0.0891 -0.1098  0.2893
  419POPI   C3B 6675  13.023   1.194   9.106  0.2188 -0.0064  0.1232
  419POPI   C4B 6676  12.915   0.871   8.714 -0.0624 -0.0869 -0.0625
  420POPI    C1 6677   5.321  12.073  10.077  0.0061  0.1046  0.0063
  420POPI    C2 6678   5.431  12.030  10.459  0.1675 -0.1066 -0.0620
  420POPI    C3 6679   5.044  12.016  10.360  0.1169  0.0580  0.1063
  420POPI   PO4 6680   5.457  12.039   9.935 -0.3368 -0.0412 -0.2448
  420POPI   GL1 6681   5.420  12.141   9.495  0.2460  0.1156  0.2022
  420POPI   GL2 6682   5.195  12.213   9.280  0.2548  0.1837 -0.2690
  420POPI   C1A 6683   5.484  11.852   9.100  0.1813  0.3253 -0.3013
  420POPI   D2A 6684   5.414  11.615   8.707  0.1322 -0.0003  0.1588
  420POPI   C3A 6685   5.203  11.293   8.387 -0.2026  0.2712  0.0967
  420POPI   C4A 6686   4.846  11.298   8.061 -0.1591  0.1238 -0.0720
  420POPI   C1B 6687   5.209  12.185   8.842  0.1057  0.3940 -0.1735
  420POPI   C2B 6688   5.341  12.245   8.530  0.0013 -0.0729 -0.2113
  420POPI   C3B 6689   5.350  12.591   8.202  0.1786  0.2836  0.3509
  420POPI   C4B 6690   5.247  12.870   7.863  0.0571  0.4916 -0.1319
  421POPI    C1 6691   9.448   1.976  10.842  0.0522  0.0400 -0.2119
  421POPI    C2 6692   9.791   2.180  10.865  0.1210 -0.0866 -0.1019
  421POPI    C3 6693   9.565   2.134  11.191  0.0324 -0.0607 -0.1595
  421POPI   PO4 6694   9.321   2.172  10.703  0.3430 -0.3996  0.4093
  421POPI   GL1 6695   9.191   2.375  10.319  0.0147 -0.0957  0.1088
  421POPI   GL2 6696   9.400   2.602  10.410  0.2180 -0.0322 -0.0981
  421POPI   C1A 6697   9.229   2.405   9.911  0.1730  0.1060 -0.0787
  421POPI   D2A 6698   9.418   2.408   9.511  0.0427  0.1109  0.0061
  421POPI   C3A 6699   9.288   2.509   8.991 -0.4065 -0.0718  0.0200
  421POPI   C4A 6700   9.265   2.116   8.683  0.1880 -0.1423 -0.3909
  421POPI   C1B 6701   9.723   2.499  10.100 -0.0727  0.0612 -0.0665
  421POPI   C2B 6702  10.044   2.456   9.855 -0.1045  0.2441  0.1626
  421POPI   C3B 6703   9.974   2.175   9.458 -0.0412  0.1369  0.0140
  421POPI   C4B 6704   9.919   1.945   9.024  0.0636  0.1542 -0.0753
  422POPI    C1 6705   7.427   5.046  10.327 -0.0535 -0.0556  0.0895
  422POPI    C2 6706   7.312   5.425  10.267 -0.0587 -0.0749 -0.0236
  422POPI    C3 6707   7.084   5.123  10.135  0.2135 -0.1125 -0.4270
  422POPI   PO4 6708   7.660   5.041  10.229  0.3246  0.0910 -0.0273
  422POPI   GL1 6709   7.797   5.416   9.965 -0.1715  0.5462  0.0830
  422POPI   GL2 6710   7.566   5.681   9.872 -0.0112  0.0667 -0.0008
  422POPI   C1A 6711   8.089   5.292   9.688 -0.0682 -0.0710 -0.1620
  422POPI   D2A 6712   8.212   5.167   9.325  0.0732 -0.0003 -0.1202
  422POPI   C3A 6713   8.554   5.060   9.218 -0.3905 -0.0232  0.0537
  422POPI   C4A 6714   8.860   5.135   8.887  0.3280  0.1033 -0.1906
  422POPI   C1B 6715   7.856   5.700   9.570 -0.2895 -0.1555  0.1053
  422POPI   C2B 6716   8.073   5.569   9.123 -0.1657  0.1578  0.2661
  422POPI   C3B 6717   8.173   5.413   8.747 -0.1203 -0.1142  0.1042
  422POPI   C4B 6718   8.049   5.170   8.405  0.3560 -0.1239 -0.1761
  423POPI    C1 6719   5.722  13.433  10.182  0.0147  0.2510 -0.0375
  423POPI    C2 6720   5.806  13.712  10.455  0.0351  0.0339  0.1809
  423POPI    C3 6721   5.965  13.346  10.487 -0.0449 -0.0242 -0.0655
  423POPI   PO4 6722   5.802  13.552   9.928  0.4201 -0.1517 -0.2033
  423POPI   GL1 6723   5.707  13.652   9.559 -0.3077 -0.4023  0.0657
  423POPI   GL2 6724   6.009  13.851   9.564 -0.2522  0.1629 -0.3504
  423POPI   C1A 6725   5.596  13.407   9.125 -0.2068 -0.0941  0.2005
  423POPI   D2A 6726   5.570  13.405   8.647 -0.3448 -0.1817  0.2105
  423POPI   C3A 6727   5.855  13.113   8.425  0.0123 -0.0791 -0.0319
  423POPI   C4A 6728   6.310  13.141   8.167  0.1950 -0.0370  0.1847
  423POPI   C1B 6729   6.007  13.699   9.204  0.2509  0.0102  0.2272
  423POPI   C2B 6730   5.975  13.652   8.744 -0.1431  0.3764 -0.0184
  423POPI   C3B 6731   6.057  13.551   8.347 -0.4000 -0.1571 -0.2213
  423POPI   C4B 6732   6.049  13.555   7.918  0.1386  0.1509 -0.0542
  424POPI    C1 6733   3.589   2.417  10.098  0.0892  0.1965 -0.1788
  424POPI    C2 6734   3.788   2.764  10.104  0.1985  0.1330 -0.0911
  424POPI    C3 6735   3.989   2.418  10.100  0.0913  0.0712 -0.3465
  424POPI   PO4 6736   3.374   2.505   9.903  0.1755  0.0107 -0.0979
  424POPI   GL1 6737   3.311   2.596   9.499 -0.0289 -0.0844  0.1242
  424POPI   GL2 6738   3.443   2.807   9.268  0.0279 -0.1383 -0.1168
  424POPI   C1A 6739   3.651   2.349   9.247  0.1186 -0.1246 -0.1422
  424POPI   D2A 6740   3.887   2.103   9.001  0.2018 -0.1922  0.2724
  424POPI   C3A 6741   4.189   2.248   8.583  0.0018 -0.0322 -0.0650
  424POPI   C4A 6742   4.680   2.319   8.648 -0.1290  0.0614 -0.1380
  424POPI   C1B 6743   3.532   2.657   8.820  0.2572  0.0120  0.1667
  424POPI   C2B 6744   3.710   2.379   8.509 -0.1831  0.0735 -0.2594
  424POPI   C3B 6745   4.022   2.343   8.116  0.0707 -0.0903  0.0208
  424POPI   C4B 6746   4.480   2.216   8.164  0.0662  0.0955 -0.0002
  425POPI    C1 6747  17.662   4.585   9.475  0.0089 -0.1646 -0.0422
  425POPI    C2 6748  17.994   4.721   9.652  0.0312 -0.0583 -0.1640
  425POPI    C3 6749  17.734   4.978   9.490 -0.1597 -0.1350  0.0151
  425POPI   PO4 6750  17.724   4.346   9.312 -0.0597 -0.0572  0.0581
  425POPI   GL1 6751  17.704   4.260   8.925  0.1572 -0.2086  0.3514
  425POPI   GL2 6752  17.937   3.988   9.084 -0.0176 -0.0218 -0.1090
  425POPI   C1A 6753  17.754   4.148   8.547 -0.0220  0.0845 -0.0227
  425POPI   D2A 6754  17.614   4.118   8.257  0.2310  0.0473 -0.4642
  425POPI   C3A 6755  17.767   4.307   7.929 -0.0509  0.2150 -0.0326
  425POPI   C4A 6756  17.832   4.536   7.474 -0.1101  0.0784 -0.2525
  425POPI   C1B 6757  18.040   3.810   8.754  0.0968  0.0187 -0.0228
  425POPI   C2B 6758  17.993   3.743   8.261 -0.0664  0.0038  0.0143
  425POPI   C3B 6759  17.791   3.770   7.913  0.1162 -0.1592  0.3269
  425POPI   C4B 6760  17.658   3.810   7.547 -0.0182 -0.1577 -0.1811
  426POPI    C1 6761   0.182   3.444   9.666 -0.2465 -0.0126  0.1256
  426POPI    C2 6762  -0.048   3.739   9.807 -0.1160  0.2037 -0.1052
  426POPI    C3 6763   0.331   3.813   9.703  0.0265 -0.1238  0.1606
  426POPI   PO4 6764  -0.028   3.195   9.816  0.0269  0.3865 -0.2056
  426POPI   GL1 6765  -0.473   3.102   9.558  0.2600  0.2112  0.1815
  426POPI   GL2 6766  -0.695   3.384   9.420  0.0270  0.0936 -0.0568
  426POPI   C1A 6767  -0.380   2.816   9.258 -0.0424 -0.1671  0.0611
  426POPI   D2A 6768  -0.048   2.528   9.172  0.1040 -0.0133  0.1029
  426POPI   C3A 6769   0.257   2.353   8.777 -0.0514  0.1452  0.0717
  426POPI   C4A 6770   0.250   1.882   8.860 -0.4121 -0.1045 -0.1383
  426POPI   C1B 6771  -0.910   3.545   9.081 -0.5286  0.0979 -0.3625
  426POPI   C2B 6772  -1.086   3.688   8.550  0.3376 -0.8254 -0.1693
  426POPI   C3B 6773  -1.288   3.677   8.170 -0.1096 -0.0267 -0.2371
  426POPI   C4B 6774  -1.298   3.422   7.820 -0.3563 -0.2261 -0.2577
  427POPI    C1 6775  12.261   7.248  10.292 -0.0662 -0.0245  0.1201
  427POPI    C2 6776  12.577   7.456  10.161 -0.1201  0.0942  0.1770
  427POPI    C3 6777  12.398   7.559  10.504  0.0332 -0.2267  0.3576
  427POPI   PO4 6778  12.197   7.058  10.087 -0.1108 -0.1378 -0.0153
  427POPI   GL1 6779  11.725   7.000   9.964  0.2183  0.1758  0.0778
  427POPI   GL2 6780  11.485   7.041   9.712 -0.0816 -0.2067 -0.1108
  427POPI   C1A 6781  11.880   6.832   9.525  0.1188  0.0088 -0.0433
  427POPI   D2A 6782  12.382   6.670   9.433  0.0462 -0.0172 -0.1881
  427POPI   C3A 6783  12.586   7.023   9.214  0.0974 -0.1188 -0.0403
  427POPI   C4A 6784  12.851   7.257   9.037 -0.0908  0.5285  0.3684
  427POPI   C1B 6785  11.457   7.062   9.314  0.2582  0.0527  0.0609
  427POPI   C2B 6786  11.659   6.904   8.938 -0.1404 -0.4197  0.1273
  427POPI   C3B 6787  11.873   7.244   8.667 -0.2527 -0.0093  0.3304
  427POPI   C4B 6788  12.178   7.336   8.464 -0.0959 -0.0350  0.0359
  428POPI    C1 6789  12.120   8.649  10.547 -0.1293 -0.0834  0.0890
  428POPI    C2 6790  12.360   8.878  10.769  0.1647 -0.1905 -0.1116
  428POPI    C3 6791  12.018   8.739  10.923  0.0709  0.2267  0.0723
  428POPI   PO4 6792  12.140   8.708  10.342 -0.2598 -0.1606  0.2122
  428POPI   GL1 6793  12.112   8.878   9.992 -0.0110  0.2062 -0.1474
  428POPI   GL2 6794  12.251   9.073   9.804  0.0665  0.1257 -0.1940
  428POPI   C1A 6795  11.807   8.613   9.720 -0.0830 -0.0459 -0.0302
  428POPI   D2A 6796  11.473   8.293   9.568 -0.1899  0.0561 -0.0585
  428POPI   C3A 6797  11.166   7.977   9.429 -0.1567 -0.0851 -0.0701
  428POPI   C4A 6798  10.921   7.815   9.190  0.3301  0.0861  0.2731
  428POPI   C1B 6799  12.021   8.971   9.459 -0.0256  0.1569  0.1063
  428POPI   C2B 6800  11.781   8.984   9.048  0.4095  0.1568  0.2724
  428POPI   C3B 6801  11.624   8.984   8.647 -0.1647 -0.1024 -0.0029
  428POPI   C4B 6802  11.406   9.214   8.352 -0.1916  0.1022  0.0031
  429POPI    C1 6803   1.985   4.004   9.882 -0.0037  0.0840  0.1164
  429POPI    C2 6804   1.882   4.386   9.822  0.0130  0.0552 -0.1037
  429POPI    C3 6805   1.885   4.235  10.193 -0.0604  0.2488 -0.0232
  429POPI   PO4 6806   1.902   3.899   9.630  0.2747 -0.3663 -0.1101
  429POPI   GL1 6807   2.127   3.774   9.223  0.0790  0.0784 -0.1269
  429POPI   GL2 6808   2.399   3.571   9.193 -0.1350  0.2856 -0.3495
  429POPI   C1A 6809   2.355   3.985   9.057 -0.0851  0.0765  0.1574
  429POPI   D2A 6810   2.448   4.172   8.638 -0.2227  0.0606 -0.1210
  429POPI   C3A 6811   2.473   4.006   8.263  0.1441  0.2537 -0.2822
  429POPI   C4A 6812   2.369   4.017   7.832 -0.0122  0.2565 -0.1417
  429POPI   C1B 6813   2.609   3.606   8.846 -0.1255  0.2435 -0.0207
  429POPI   C2B 6814   2.662   3.581   8.483  0.0615  0.0278  0.0188
  429POPI   C3B 6815   2.634   3.619   8.011  0.0092 -0.0303 -0.2205
  429POPI   C4B 6816   2.825   3.801   7.738 -0.2639  0.0261  0.3649
  430POPI    C1 6817  14.583  16.116  10.943 -0.1088 -0.1265 -0.1769
  430POPI    C2 6818  14.972  16.030  10.978  0.0115  0.4744  0.0835
  430POPI    C3 6819  14.708  15.866  11.229  0.0920  0.0744 -0.0859
  430POPI   PO4 6820  14.556  16.118  10.519 -0.2741 -0.2060  0.0146
  430POPI   GL1 6821  14.308  16.276  10.185 -0.1368 -0.1062  0.1593
  430POPI   GL2 6822  13.997  16.455  10.261  0.0221 -0.1761 -0.1453
  430POPI   C1A 6823  14.371  16.162   9.786 -0.2083 -0.0957 -0.0919
  430POPI   D2A 6824  14.438  16.144   9.464  0.1604 -0.0201 -0.1191
  430POPI   C3A 6825  14.350  15.940   9.012 -0.1523 -0.0516  0.1955
  430POPI   C4A 6826  14.371  15.836   8.603 -0.2218  0.3355  0.1511
  430POPI   C1B 6827  14.164  16.628   9.894 -0.1989 -0.0329  0.0741
  430POPI   C2B 6828  14.451  16.651   9.540  0.1678 -0.4882  0.2004
  430POPI   C3B 6829  14.379  16.521   9.023 -0.6038  0.1204  0.0880
  430POPI   C4B 6830  14.428  16.321   8.577  0.3713 -0.0064 -0.1644
  431POPI    C1 6831   2.624  14.958  10.068 -0.1378 -0.0152  0.1233
  431POPI    C2 6832   2.601  14.620  10.281 -0.3038 -0.0409  0.0664
  431POPI    C3 6833   2.523  14.972  10.455 -0.2005 -0.0382  0.1080
  431POPI   PO4 6834   2.455  14.780   9.827 -0.2931  0.0021  0.1362
  431POPI   GL1 6835   2.447  14.650   9.421  0.0507  0.0300 -0.0587
  431POPI   GL2 6836   2.726  14.540   9.468 -0.1580 -0.0970  0.0861
  431POPI   C1A 6837   2.170  14.600   9.028  0.2878  0.0264  0.0471
  431POPI   D2A 6838   2.242  14.757   8.619  0.1534  0.3107 -0.0491
  431POPI   C3A 6839   2.158  14.671   8.196 -0.0671 -0.0811 -0.2579
  431POPI   C4A 6840   2.206  14.381   7.860  0.3080  0.0372 -0.3152
  431POPI   C1B 6841   2.656  14.527   8.955  0.0244 -0.0749  0.1341
  431POPI   C2B 6842   2.679  14.545   8.501 -0.1419  0.2840 -0.1240
  431POPI   C3B 6843   2.705  14.620   8.094 -0.3692  0.0625  0.1070
  431POPI   C4B 6844   2.744  14.455   7.672  0.1471 -0.0150 -0.2629
  432POPI    C1 6845   5.417  18.538  10.536  0.0951 -0.0807 -0.2092
  432POPI    C2 6846   5.607  18.588  10.188 -0.0164  0.0636 -0.2498
  432POPI    C3 6847   5.585  18.890  10.449 -0.0323 -0.0091 -0.1668
  432POPI   PO4 6848   5.209  18.395  10.490 -0.3218  0.2298  0.0127
  432POPI   GL1 6849   5.026  18.366  10.090  0.1970  0.1040  0.1973
  432POPI   GL2 6850   5.184  18.076   9.912 -0.0199  0.1610  0.4499
  432POPI   C1A 6851   5.135  18.566   9.729  0.1446  0.0701  0.0193
  432POPI   D2A 6852   5.521  18.629   9.556  0.1798  0.1337 -0.4049
  432POPI   C3A 6853   5.703  18.284   9.626  0.0071 -0.0003 -0.1757
  432POPI   C4A 6854   5.663  17.816   9.701  0.3175 -0.2704  0.2118
  432POPI   C1B 6855   5.183  18.120   9.470 -0.0228 -0.1633 -0.0731
  432POPI   C2B 6856   5.280  18.058   9.086  0.0671  0.2275 -0.4312
  432POPI   C3B 6857   5.343  18.074   8.656 -0.0645  0.1716 -0.3691
  432POPI   C4B 6858   5.054  17.792   8.468 -0.0099 -0.2623 -0.2411
  433POPI    C1 6859  16.199  17.405   9.985  0.1164 -0.1210 -0.0739
  433POPI    C2 6860  16.312  17.359   9.604  0.2034 -0.1596 -0.0436
  433POPI    C3 6861  16.587  17.414   9.889  0.1304  0.0171 -0.0062
  433POPI   PO4 6862  15.981  17.171  10.090  0.0117 -0.2659 -0.1481
  433POPI   GL1 6863  15.921  16.821   9.842  0.0117  0.2298 -0.1678
  433POPI   GL2 6864  15.777  16.514   9.730 -0.1693  0.0802  0.0667
  433POPI   C1A 6865  16.165  16.955   9.443 -0.0229 -0.3048 -0.0358
  433POPI   D2A 6866  16.228  17.240   9.042  0.1468 -0.2078 -0.2019
  433POPI   C3A 6867  16.515  17.117   8.784  0.0703  0.2281 -0.0724
  433POPI   C4A 6868  16.787  17.236   8.491 -0.3253 -0.2885  0.1922
  433POPI   C1B 6869  15.702  16.693   9.396  0.0086 -0.0464 -0.1160
  433POPI   C2B 6870  15.589  16.655   9.017  0.2049  0.1183  0.1140
  433POPI   C3B 6871  15.541  16.728   8.598  0.1215  0.1330 -0.2539
  433POPI   C4B 6872  15.312  16.922   8.354  0.2175  0.1023  0.0075
  434POPI    C1 6873  15.666  16.165  10.105 -0.2158  0.0849 -0.0162
  434POPI    C2 6874  15.482  15.887  10.326  0.1103  0.0287  0.1913
  434POPI    C3 6875  15.771  16.112  10.487  0.1975  0.1423 -0.1168
  434POPI   PO4 6876  15.384  16.275   9.981  0.1653  0.1192 -0.1797
  434POPI   GL1 6877  15.254  16.681   9.784 -0.1375  0.1256  0.5257
  434POPI   GL2 6878  14.986  16.656   9.969 -0.2947  0.1483 -0.0636
  434POPI   C1A 6879  15.375  17.046   9.477 -0.0740 -0.0534  0.1891
  434POPI   D2A 6880  15.153  17.151   9.116  0.0634 -0.0050  0.2002
  434POPI   C3A 6881  15.116  17.147   8.785 -0.0119  0.1558  0.3197
  434POPI   C4A 6882  14.859  17.219   8.374  0.1585  0.2415 -0.2884
  434POPI   C1B 6883  14.881  16.875   9.507  0.0367  0.3032 -0.0372
  434POPI   C2B 6884  14.652  17.085   9.205  0.1139  0.1785 -0.0425
  434POPI   C3B 6885  14.491  17.030   8.862 -0.3243 -0.0362 -0.0809
  434POPI   C4B 6886  14.258  16.827   8.525 -0.1548 -0.2032  0.1437
  435POPI    C1 6887  18.168  10.263   9.891 -0.2709  0.1013  0.0512
  435POPI    C2 6888  18.461  10.448  10.092 -0.0569  0.0135 -0.1739
  435POPI    C3 6889  18.086  10.457  10.231  0.0636  0.0625  0.1585
  435POPI   PO4 6890  18.181  10.336   9.592 -0.0709 -0.2276 -0.1013
  435POPI   GL1 6891  18.355  10.536   9.237  0.3792  0.0860 -0.0164
  435POPI   GL2 6892  18.423  10.274   8.990 -0.0609 -0.0561  0.2151
  435POPI   C1A 6893  18.117  10.710   8.963 -0.3007  0.1754 -0.4370
  435POPI   D2A 6894  17.945  10.487   8.660 -0.1661  0.0655  0.1133
  435POPI   C3A 6895  18.163  10.542   8.346 -0.3586  0.3856  0.2466
  435POPI   C4A 6896  18.348  10.596   7.948  0.2096 -0.0149  0.1327
  435POPI   C1B 6897  18.711  10.357   8.658 -0.0603 -0.1699  0.1035
  435POPI   C2B 6898  18.670  10.222   8.286 -0.2890 -0.0561  0.1844
  435POPI   C3B 6899  18.542  10.158   7.773 -0.0906  0.3517  0.0269
  435POPI   C4B 6900  18.579   9.816   7.575  0.1949  0.0089  0.3776
  436POPI    C1 6901  16.001   7.151  10.420 -0.3091  0.3745 -0.0295
  436POPI    C2 6902  16.341   7.243  10.609 -0.0530 -0.1230 -0.2311
  436POPI    C3 6903  16.174   6.883  10.662 -0.4253  0.0329 -0.3163
  436POPI   PO4 6904  16.078   7.159  10.193 -0.2494 -0.0200  0.1815
  436POPI   GL1 6905  16.016   7.051   9.721 -0.2002 -0.1365 -0.0810
  436POPI   GL2 6906  15.750   7.191   9.528 -0.1756  0.1578  0.3654
  436POPI   C1A 6907  16.245   6.999   9.325  0.1159 -0.0045  0.1632
  436POPI   D2A 6908  16.485   6.856   8.942  0.2236  0.2954  0.0119
  436POPI   C3A 6909  16.828   7.005   8.811 -0.3897 -0.3848  0.3940
  436POPI   C4A 6910  16.981   7.274   8.518 -0.1760 -0.0682  0.0365
  436POPI   C1B 6911  15.886   7.338   9.155  0.0026 -0.0920 -0.0945
  436POPI   C2B 6912  15.821   7.521   8.797 -0.1476 -0.1562 -0.1075
  436POPI   C3B 6913  15.911   7.702   8.415 -0.0955  0.1453 -0.1123
  436POPI   C4B 6914  15.943   7.445   8.051 -0.3524 -0.2229  0.0711
  437POPI    C1 6915   3.557   6.046  10.399 -0.1901 -0.0285 -0.1387
  437POPI    C2 6916   3.670   5.696  10.558 -0.1654  0.0544  0.0279
  437POPI    C3 6917   3.556   5.997  10.796 -0.2448  0.1403 -0.1175
  437POPI   PO4 6918   3.578   5.905  10.131 -0.0306  0.1300 -0.2015
  437POPI   GL1 6919   3.723   5.890   9.722  0.2445  0.0271  0.1112
  437POPI   GL2 6920   3.994   5.785   9.478 -0.1044 -0.0709  0.2078
  437POPI   C1A 6921   3.508   5.748   9.387 -0.0009  0.1411 -0.1229
  437POPI   D2A 6922   3.462   5.456   9.132  0.1295  0.0391 -0.0850
  437POPI   C3A 6923   3.507   5.021   9.180 -0.0571  0.0747 -0.2179
  437POPI   C4A 6924   3.360   4.799   8.901 -0.1226  0.2057 -0.2440
  437POPI   C1B 6925   3.779   6.204   9.272 -0.0132 -0.3280 -0.1768
  437POPI   C2B 6926   3.576   6.399   8.980  0.0259  0.0969 -0.0505
  437POPI   C3B 6927   3.471   6.417   8.555  0.2803 -0.4035  0.0769
  437POPI   C4B 6928   3.554   6.494   8.130 -0.2849  0.0455  0.1926
  438POPI    C1 6929   4.319  13.694   9.970 -0.1222 -0.0361 -0.2576
  438POPI    C2 6930   4.275  13.298   9.935 -0.3233 -0.0365 -0.0251
  438POPI    C3 6931   4.485  13.450  10.240 -0.1553  0.0333 -0.1741
  438POPI   PO4 6932   4.060  13.864   9.918 -0.1455 -0.1423 -0.1917
  438POPI   GL1 6933   3.918  14.134   9.669  0.0123  0.0576  0.0688
  438POPI   GL2 6934   4.127  14.284   9.557  0.1232  0.2011  0.2884
  438POPI   C1A 6935   3.617  13.971   9.299 -0.1915 -0.2979 -0.1052
  438POPI   D2A 6936   3.497  13.994   8.948 -0.0739 -0.1523  0.1403
  438POPI   C3A 6937   3.602  14.056   8.616 -0.3804 -0.2480 -0.0230
  438POPI   C4A 6938   3.435  14.158   8.335 -0.1907 -0.2209 -0.3714
  438POPI   C1B 6939   3.857  14.417   9.219 -0.3421  0.0051  0.3537
  438POPI   C2B 6940   3.931  14.359   8.836 -0.3772  0.0620 -0.0941
  438POPI   C3B 6941   3.978  14.282   8.384  0.2751  0.1849 -0.0881
  438POPI   C4B 6942   4.089  14.184   8.003 -0.2492 -0.1006 -0.2486
  439POPI    C1 6943  12.137  18.429  10.899  0.2065  0.1002 -0.1080
  439POPI    C2 6944  11.877  18.254  11.148 -0.1096 -0.1530 -0.6008
  439POPI    C3 6945  12.215  18.066  11.046  0.1548  0.0678 -0.1603
  439POPI   PO4 6946  12.038  18.493  10.671  0.1467 -0.3778  0.2580
  439POPI   GL1 6947  12.227  18.621  10.175  0.1787  0.0039  0.0567
  439POPI   GL2 6948  12.244  18.865  10.434  0.3236  0.2348  0.1757
  439POPI   C1A 6949  11.957  18.784   9.843  0.2100  0.1900  0.2544
  439POPI   D2A 6950  11.883  18.789   9.400  0.0693  0.0302 -0.1458
  439POPI   C3A 6951  12.015  18.833   9.022 -0.1014 -0.1480  0.2309
  439POPI   C4A 6952  12.184  19.049   8.732 -0.0004  0.1691 -0.3986
  439POPI   C1B 6953  12.044  19.090  10.266 -0.2754 -0.1780 -0.2131
  439POPI   C2B 6954  11.842  19.224   9.886  0.1484  0.0847  0.0011
  439POPI   C3B 6955  11.751  19.307   9.524  0.1573  0.1312 -0.1144
  439POPI   C4B 6956  11.417  19.136   9.194  0.3537 -0.0898 -0.0993
  440POPI    C1 6957   4.100   0.365  10.651  0.1320 -0.2657  0.0951
  440POPI    C2 6958   4.255   0.496  10.996 -0.0039  0.1596  0.0005
  440POPI    C3 6959   3.999   0.726  10.792 -0.1635 -0.2159 -0.2322
  440POPI   PO4 6960   4.294   0.241  10.551 -0.1581 -0.0173 -0.1474
  440POPI   GL1 6961   4.262  -0.043  10.145 -0.2755  0.0692  0.0364
  440POPI   GL2 6962   4.022  -0.289  10.115 -0.2678 -0.1544  0.0939
  440POPI   C1A 6963   4.191   0.092   9.676  0.3665 -0.0198  0.0488
  440POPI   D2A 6964   4.214   0.063   9.182  0.4949  0.0608  0.1492
  440POPI   C3A 6965   4.701   0.185   8.956 -0.1007 -0.2434 -0.0568
  440POPI   C4A 6966   5.061   0.531   9.013  0.3376 -0.1078 -0.0754
  440POPI   C1B 6967   4.215  -0.423   9.679  0.0259 -0.2074 -0.1377
  440POPI   C2B 6968   4.192  -0.439   9.265 -0.0421 -0.3710 -0.0479
  440POPI   C3B 6969   4.388  -0.425   8.951 -0.1173  0.2209  0.1395
  440POPI   C4B 6970   4.437  -0.114   8.731 -0.1006  0.1219  0.0793
  441POPI    C1 6971  15.800  18.510  10.275  0.1133  0.1372  0.0564
  441POPI    C2 6972  16.080  18.795  10.278  0.0319  0.2170  0.2566
  441POPI    C3 6973  15.947  18.642  10.622 -0.1773  0.1859  0.1638
  441POPI   PO4 6974  15.617  18.523  10.115 -0.0300  0.2124 -0.0300
  441POPI   GL1 6975  15.533  18.675   9.669  0.0902  0.4456  0.0545
  441POPI   GL2 6976  15.483  18.938   9.539  0.1811 -0.2039  0.0363
  441POPI   C1A 6977  15.660  18.841   9.128  0.3789 -0.0229  0.0423
  441POPI   D2A 6978  15.577  19.134   8.724 -0.2628  0.1718  0.2740
  441POPI   C3A 6979  15.239  19.107   8.382 -0.0451 -0.2129 -0.1804
  441POPI   C4A 6980  15.239  18.850   8.047 -0.0062  0.3287 -0.4275
  441POPI   C1B 6981  15.331  19.235   9.234 -0.1363 -0.2034  0.0029
  441POPI   C2B 6982  15.106  19.301   8.793  0.0898  0.3751 -0.0266
  441POPI   C3B 6983  15.013  19.583   8.506 -0.2991 -0.1542  0.1141
  441POPI   C4B 6984  15.276  19.679   8.140  0.0010  0.1697 -0.4501
  442POPI    C1 6985   2.873  15.646  10.774 -0.0724  0.0239  0.0730
  442POPI    C2 6986   3.061  15.993  10.842  0.0458 -0.0327  0.0385
  442POPI    C3 6987   3.070  15.704  11.118 -0.0111 -0.0268  0.0467
  442POPI   PO4 6988   2.904  15.615  10.436  0.0019 -0.0529  0.0669
  442POPI   GL1 6989   3.153  15.770  10.020 -0.0742 -0.0858  0.1284
  442POPI   GL2 6990   2.932  15.917   9.840  0.0682 -0.0881  0.0668
  442POPI   C1A 6991   3.414  15.923   9.628 -0.0772  0.2365 -0.2536
  442POPI   D2A 6992   3.625  16.262   9.356 -0.0864 -0.2944  0.2166
  442POPI   C3A 6993   3.568  16.212   8.913 -0.3111 -0.0869  0.0866
  442POPI   C4A 6994   3.853  16.352   8.642  0.1779 -0.2313  0.2994
  442POPI   C1B 6995   2.826  15.982   9.434  0.2240 -0.2893 -0.5662
  442POPI   C2B 6996   3.098  16.020   9.125  0.1469  0.0448 -0.1045
  442POPI   C3B 6997   3.047  16.089   8.690 -0.3064 -0.0274 -0.0707
  442POPI   C4B 6998   3.147  16.353   8.425  0.2439 -0.0331  0.2004
  443POPI    C1 6999  10.376   9.307  10.290  0.1663 -0.0633 -0.0549
  443POPI    C2 7000  10.488   9.385  10.666 -0.0764  0.0482 -0.0038
  443POPI    C3 7001  10.357   9.020  10.569 -0.1847  0.0687  0.0631
  443POPI   PO4 7002  10.584   9.446  10.107  0.0246 -0.0108  0.4043
  443POPI   GL1 7003  10.648   9.212   9.719 -0.1023 -0.3199  0.0471
  443POPI   GL2 7004  10.609   9.655   9.621  0.0983  0.0251 -0.0598
  443POPI   C1A 7005  10.403   9.137   9.360 -0.1160  0.0272 -0.0545
  443POPI   D2A 7006  10.205   9.158   9.032  0.2270 -0.3282 -0.0539
  443POPI   C3A 7007  10.142   8.848   8.786 -0.1494 -0.0329 -0.0141
  443POPI   C4A 7008  10.236   8.763   8.354 -0.0219 -0.0930  0.1465
  443POPI   C1B 7009  10.667   9.592   9.157 -0.0662 -0.0884  0.1081
  443POPI   C2B 7010  10.499   9.548   8.799 -0.0689  0.3590  0.0262
  443POPI   C3B 7011  10.337   9.288   8.552 -0.1412  0.1267  0.1630
  443POPI   C4B 7012  10.152   9.245   8.229 -0.0091 -0.1649 -0.2792
  444POPI    C1 7013  18.603   8.307   9.442  0.0956 -0.1447  0.0330
  444POPI    C2 7014  18.736   8.343   9.818 -0.0360 -0.0537  0.0713
  444POPI    C3 7015  18.846   8.028   9.597 -0.0829 -0.1889  0.2380
  444POPI   PO4 7016  18.662   8.516   9.296 -0.1757 -0.2602  0.0894
  444POPI   GL1 7017  18.842   8.458   8.888  0.0525  0.3778  0.1747
  444POPI   GL2 7018  18.862   8.122   8.930  0.0127 -0.2357 -0.3750
  444POPI   C1A 7019  18.917   8.551   8.398 -0.0045 -0.0053 -0.0575
  444POPI   D2A 7020  18.757   8.462   8.061 -0.0627 -0.1420 -0.1824
  444POPI   C3A 7021  18.442   8.341   7.788  0.1566 -0.3819 -0.0270
  444POPI   C4A 7022  18.372   8.120   7.376 -0.2529 -0.1237 -0.1540
  444POPI   C1B 7023  19.020   8.039   8.372  0.0394  0.1962 -0.2396
  444POPI   C2B 7024  19.168   8.108   7.974  0.0612 -0.0262 -0.1868
  444POPI   C3B 7025  19.267   7.900   7.621 -0.2224 -0.1923  0.0203
  444POPI   C4B 7026  19.448   8.052   7.261  0.1839 -0.0791 -0.4895
  445POPI    C1 7027   3.396  13.432   9.896 -0.0753  0.0567  0.1770
  445POPI    C2 7028   3.573  13.694   9.651 -0.0885  0.0912  0.2043
  445POPI    C3 7029   3.795  13.449   9.876 -0.0767 -0.0823  0.0068
  445POPI   PO4 7030   3.159  13.355   9.789 -0.0267 -0.3325 -0.0762
  445POPI   GL1 7031   2.946  13.315   9.477  0.3347 -0.2414  0.2054
  445POPI   GL2 7032   2.757  13.127   9.493  0.2522  0.2043  0.0002
  445POPI   C1A 7033   2.847  13.401   9.074  0.2265  0.4764 -0.1010
  445POPI   D2A 7034   2.686  13.579   8.689 -0.1683 -0.1231  0.2573
  445POPI   C3A 7035   2.747  13.630   8.261 -0.2358  0.2211  0.1818
  445POPI   C4A 7036   2.746  13.876   7.793  0.1034 -0.1620  0.2040
  445POPI   C1B 7037   2.804  12.896   9.116  0.0422 -0.1181 -0.0707
  445POPI   C2B 7038   2.856  13.040   8.716  0.2450 -0.3005  0.0406
  445POPI   C3B 7039   2.745  13.165   8.355  0.0760  0.0488 -0.3718
  445POPI   C4B 7040   2.575  13.216   8.056 -0.2068 -0.0900  0.0529
  446POPI    C1 7041  15.158  15.326  10.629  0.1690  0.1327 -0.2402
  446POPI    C2 7042  15.405  15.561  10.840  0.1653 -0.0316 -0.0498
  446POPI    C3 7043  15.028  15.506  10.962  0.0781  0.0951 -0.2554
  446POPI   PO4 7044  15.172  15.468  10.364 -0.0209  0.0527 -0.0729
  446POPI   GL1 7045  15.048  15.678   9.948 -0.2380  0.1486 -0.1367
  446POPI   GL2 7046  14.814  15.732   9.824  0.1571 -0.0606 -0.3763
  446POPI   C1A 7047  15.277  15.749   9.550  0.3108 -0.3463  0.0611
  446POPI   D2A 7048  15.246  15.616   9.163  0.2284 -0.0591 -0.0182
  446POPI   C3A 7049  15.392  15.753   8.778  0.1099  0.2058 -0.0159
  446POPI   C4A 7050  15.426  15.716   8.370  0.0040 -0.0287  0.1951
  446POPI   C1B 7051  14.761  15.740   9.431  0.0610 -0.1942 -0.2010
  446POPI   C2B 7052  14.895  15.998   9.129  0.1389 -0.0884  0.2908
  446POPI   C3B 7053  14.903  15.960   8.709  0.0602 -0.0763 -0.0818
  446POPI   C4B 7054  14.854  15.611   8.438  0.1148 -0.3283  0.0172
  447POPI    C1 7055   8.777  15.218  10.202  0.1438 -0.0321  0.3477
  447POPI    C2 7056   8.645  14.953  10.471 -0.3470  0.1042  0.2511
  447POPI    C3 7057   8.579  15.343  10.526 -0.1490  0.1605  0.1000
  447POPI   PO4 7058   8.749  15.089   9.986  0.1078  0.1777  0.1927
  447POPI   GL1 7059   8.859  15.160   9.605  0.0849 -0.3319  0.1457
  447POPI   GL2 7060   9.007  14.784   9.559  0.4350  0.0516  0.0186
  447POPI   C1A 7061   8.713  15.290   9.167 -0.1053  0.0197  0.1953
  447POPI   D2A 7062   8.804  15.131   8.722 -0.0105 -0.2664 -0.1634
  447POPI   C3A 7063   8.867  15.359   8.370  0.0105 -0.0898 -0.2286
  447POPI   C4A 7064   8.819  15.772   8.256  0.0339  0.2703 -0.0188
  447POPI   C1B 7065   9.070  14.764   9.132 -0.0652  0.1299 -0.0365
  447POPI   C2B 7066   9.125  14.657   8.761  0.0579  0.1288 -0.1367
  447POPI   C3B 7067   9.465  14.718   8.542  0.0587  0.0657  0.3028
  447POPI   C4B 7068   9.847  14.985   8.544  0.2729 -0.1522  0.0379
  448POPI    C1 7069   7.853   4.639  10.380 -0.1610 -0.2037 -0.0684
  448POPI    C2 7070   7.909   4.539  10.764  0.2115 -0.0708 -0.0842
  448POPI    C3 7071   7.736   4.888  10.671  0.3935  0.0333 -0.0364
  448POPI   PO4 7072   8.124   4.584  10.278  0.1235 -0.0093  0.0582
  448POPI   GL1 7073   8.233   4.329   9.908 -0.1956 -0.5607  0.0151
  448POPI   GL2 7074   8.504   4.279   9.772 -0.1506 -0.2309  0.1496
  448POPI   C1A 7075   8.159   4.625   9.509  0.0188  0.2773 -0.2438
  448POPI   D2A 7076   8.265   4.479   9.087  0.0193  0.0243 -0.1855
  448POPI   C3A 7077   8.080   4.781   8.909  0.3140 -0.1349 -0.0782
  448POPI   C4A 7078   7.714   4.800   8.622  0.0181 -0.0352 -0.0359
  448POPI   C1B 7079   8.792   4.188   9.374  0.0812  0.2113 -0.1149
  448POPI   C2B 7080   8.721   4.132   8.904 -0.2941  0.1944 -0.0040
  448POPI   C3B 7081   8.721   4.310   8.457 -0.0420  0.2030  0.0070
  448POPI   C4B 7082   8.546   4.271   8.171  0.4397 -0.3621  0.2389
  449POPI    C1 7083  15.916   6.417   9.607 -0.0164  0.0116  0.0966
  449POPI    C2 7084  16.069   6.258   9.274 -0.1887 -0.0979  0.0686
  449POPI    C3 7085  16.145   6.090   9.629  0.1794  0.1478  0.1117
  449POPI   PO4 7086  15.795   6.644   9.552  0.0605  0.3883  0.0634
  449POPI   GL1 7087  15.681   6.806   9.178 -0.3367 -0.2292  0.0191
  449POPI   GL2 7088  15.740   6.554   8.972  0.1332  0.1459 -0.0277
  449POPI   C1A 7089  16.008   6.938   8.827  0.2512 -0.1830 -0.0700
  449POPI   D2A 7090  15.970   7.111   8.433 -0.0511  0.0744 -0.0803
  449POPI   C3A 7091  15.857   6.867   8.078 -0.0007  0.1339 -0.1841
  449POPI   C4A 7092  15.943   7.025   7.682  0.0128 -0.3853 -0.4319
  449POPI   C1B 7093  15.822   6.532   8.466 -0.0386 -0.0391  0.0307
  449POPI   C2B 7094  15.562   6.462   8.092 -0.0863 -0.0808  0.0731
  449POPI   C3B 7095  15.489   6.719   7.710  0.4110 -0.0298  0.1887
  449POPI   C4B 7096  15.507   6.886   7.330 -0.3747 -0.1038  0.0513
  450POPI    C1 7097   7.843  15.126  10.334 -0.0125 -0.2580  0.2550
  450POPI    C2 7098   7.855  15.355  10.662 -0.2427 -0.2225  0.2406
  450POPI    C3 7099   7.548  15.387  10.407 -0.0309 -0.1995 -0.0163
  450POPI   PO4 7100   8.167  15.113  10.300 -0.2370 -0.0822 -0.1412
  450POPI   GL1 7101   8.214  15.137   9.858  0.0705 -0.1558  0.0153
  450POPI   GL2 7102   7.920  14.927   9.858  0.0700 -0.0476 -0.2977
  450POPI   C1A 7103   8.281  15.225   9.482 -0.3783 -0.1039  0.0175
  450POPI   D2A 7104   8.265  15.482   9.084  0.0073  0.1392 -0.0828
  450POPI   C3A 7105   8.305  15.222   8.834 -0.0226  0.2730  0.3265
  450POPI   C4A 7106   8.418  15.052   8.440 -0.2170 -0.2204  0.1738
  450POPI   C1B 7107   7.815  15.116   9.418  0.1836 -0.2865  0.5302
  450POPI   C2B 7108   7.777  15.391   9.096 -0.1484 -0.3292 -0.1424
  450POPI   C3B 7109   7.582  15.453   8.780  0.2326  0.1103  0.2508
  450POPI   C4B 7110   7.258  15.604   8.510 -0.0248  0.2509 -0.1903
  451POPI    C1 7111   7.931  12.505  10.053 -0.0250 -0.1547  0.0777
  451POPI    C2 7112   7.587  12.408  10.233 -0.0535 -0.1782  0.0109
  451POPI    C3 7113   7.723  12.185   9.930 -0.0299 -0.1116 -0.0276
  451POPI   PO4 7114   7.962  12.748   9.944 -0.1238  0.0058 -0.0012
  451POPI   GL1 7115   7.918  12.800   9.514 -0.4058 -0.0058  0.2520
  451POPI   GL2 7116   7.732  12.515   9.555  0.3483  0.2144 -0.2156
  451POPI   C1A 7117   7.759  12.825   9.032 -0.0472 -0.1872  0.0078
  451POPI   D2A 7118   7.789  12.808   8.724  0.0347 -0.0677 -0.1336
  451POPI   C3A 7119   7.900  12.898   8.231 -0.1749  0.2287 -0.1900
  451POPI   C4A 7120   8.079  12.719   7.830  0.1633  0.2137 -0.2234
  451POPI   C1B 7121   7.720  12.337   9.208  0.1064  0.1364 -0.2127
  451POPI   C2B 7122   7.831  12.279   8.784  0.0833 -0.2245  0.0460
  451POPI   C3B 7123   7.721  12.475   8.419  0.3042  0.0492 -0.2062
  451POPI   C4B 7124   7.670  12.434   8.052 -0.2280 -0.2638  0.3121
  452POPI    C1 7125   8.620  11.623  10.139  0.0750  0.4043 -0.0223
  452POPI    C2 7126   8.811  11.651  10.490  0.1418  0.1834 -0.0393
  452POPI    C3 7127   9.014  11.690  10.148  0.1097  0.2094 -0.0555
  452POPI   PO4 7128   8.350  11.483  10.173 -0.0736 -0.2432 -0.0836
  452POPI   GL1 7129   8.086  11.399   9.790  0.2386  0.1085  0.3236
  452POPI   GL2 7130   8.358  11.174   9.717  0.2239 -0.1181 -0.0934
  452POPI   C1A 7131   7.837  11.531   9.358  0.0381  0.0677 -0.0152
  452POPI   D2A 7132   7.753  11.831   9.021  0.3572  0.0691 -0.0902
  452POPI   C3A 7133   7.882  11.817   8.610  0.1619  0.4037  0.1595
  452POPI   C4A 7134   7.631  11.848   8.276 -0.2004 -0.1952 -0.4052
  452POPI   C1B 7135   8.335  11.413   9.339 -0.0051 -0.3285 -0.1202
  452POPI   C2B 7136   8.579  11.538   9.072 -0.1381  0.2066  0.3169
  452POPI   C3B 7137   8.739  11.641   8.753 -0.2936 -0.0111 -0.1086
  452POPI   C4B 7138   8.609  11.887   8.354 -0.1397 -0.3003  0.1844
  453POPI    C1 7139  15.077  11.824  10.273  0.2233  0.1404  0.1266
  453POPI    C2 7140  15.127  11.599   9.946 -0.0231  0.0378  0.1573
  453POPI    C3 7141  15.140  11.431  10.309 -0.1116  0.0893  0.1845
  453POPI   PO4 7142  14.903  12.004  10.232  0.0211 -0.2385  0.1605
  453POPI   GL1 7143  14.768  12.159   9.950 -0.3336  0.0319  0.1557
  453POPI   GL2 7144  14.923  12.430  10.012 -0.2227  0.0883 -0.0698
  453POPI   C1A 7145  14.830  11.958   9.588  0.4511 -0.2703  0.2084
  453POPI   D2A 7146  14.916  12.119   9.253  0.0233  0.0238 -0.1200
  453POPI   C3A 7147  14.908  12.177   8.824  0.0248  0.2760  0.3359
  453POPI   C4A 7148  14.933  12.134   8.451  0.1463  0.1572 -0.0183
  453POPI   C1B 7149  15.069  12.436   9.594 -0.0915  0.0794 -0.0420
  453POPI   C2B 7150  15.107  12.540   9.208 -0.1173 -0.0392  0.0448
  453POPI   C3B 7151  14.973  12.732   8.896  0.1369 -0.2316 -0.4360
  453POPI   C4B 7152  15.045  12.661   8.437 -0.2467  0.0576 -0.0928
  454POPI    C1 7153   9.087   6.094  10.639  0.0033  0.0847 -0.2161
  454POPI    C2 7154   8.991   6.203  11.012  0.2698 -0.1858 -0.0643
  454POPI    C3 7155   9.042   5.816  10.923  0.3193 -0.1147 -0.3559
  454POPI   PO4 7156   9.018   6.345  10.489 -0.1272  0.0473 -0.5786
  454POPI   GL1 7157   8.704   6.494  10.201 -0.0257  0.0467  0.1197
  454POPI   GL2 7158   8.975   6.752   9.937  0.0800  0.1212  0.2339
  454POPI   C1A 7159   8.584   6.540   9.796  0.1495 -0.2800  0.1106
  454POPI   D2A 7160   8.760   6.371   9.354 -0.1396 -0.0282 -0.2968
  454POPI   C3A 7161   8.608   6.313   9.028 -0.0517 -0.0281 -0.0448
  454POPI   C4A 7162   8.511   5.917   8.710  0.0882 -0.1586  0.1333
  454POPI   C1B 7163   9.089   6.686   9.505 -0.0017  0.0853 -0.1319
  454POPI   C2B 7164   9.071   6.685   9.059 -0.2037 -0.3444 -0.3852
  454POPI   C3B 7165   9.125   6.647   8.553  0.1576  0.0569  0.0226
  454POPI   C4B 7166   8.950   6.612   8.200 -0.2054 -0.2243  0.1598
  455POPI    C1 7167   0.801  14.276  10.774 -0.0157 -0.1408  0.0000
  455POPI    C2 7168   0.871  14.623  10.962 -0.2437 -0.0837 -0.0171
  455POPI    C3 7169   1.064  14.291  11.075 -0.1046  0.0263  0.0711
  455POPI   PO4 7170   0.794  14.372  10.460  0.1919 -0.0760 -0.0495
  455POPI   GL1 7171   1.048  14.589  10.073 -0.1519  0.2479  0.2379
  455POPI   GL2 7172   0.999  14.233   9.924  0.4949 -0.2734  0.0314
  455POPI   C1A 7173   1.335  14.410   9.649  0.0576  0.0390 -0.0084
  455POPI   D2A 7174   1.237  14.518   9.250  0.1691 -0.2481 -0.1017
  455POPI   C3A 7175   1.235  14.902   9.236  0.0181  0.0774 -0.0634
  455POPI   C4A 7176   1.417  15.204   9.067 -0.0890 -0.0500  0.1706
  455POPI   C1B 7177   0.830  14.392   9.555  0.1317  0.1225  0.0575
  455POPI   C2B 7178   0.805  14.854   9.540  0.2393  0.0805 -0.2083
  455POPI   C3B 7179   0.684  15.200   9.270  0.2092 -0.0669 -0.2638
  455POPI   C4B 7180   0.282  15.356   9.197  0.0060 -0.0584  0.0084
  456POPI    C1 7181   0.363  10.135   9.488  0.1065  0.1112  0.0147
  456POPI    C2 7182   0.095  10.414   9.588  0.0248  0.0465 -0.0225
  456POPI    C3 7183   0.286  10.209   9.873 -0.1094 -0.0442  0.0035
  456POPI   PO4 7184   0.485  10.279   9.271 -0.0720  0.0869 -0.0068
  456POPI   GL1 7185   0.711  10.647   9.146  0.0265  0.1834  0.0846
  456POPI   GL2 7186   0.674  10.489   8.827 -0.1676 -0.0374  0.2347
  456POPI   C1A 7187   0.564  11.035   8.877  0.1730 -0.0375  0.0293
  456POPI   D2A 7188   0.581  11.198   8.455  0.1308 -0.0286  0.1787
  456POPI   C3A 7189   0.174  11.390   8.310 -0.3008  0.1917 -0.1691
  456POPI   C4A 7190  -0.013  11.568   8.001 -0.1040  0.3235  0.0448
  456POPI   C1B 7191   0.541  10.523   8.522 -0.1586 -0.0618 -0.1302
  456POPI   C2B 7192   0.391  10.786   8.230 -0.0023  0.1813  0.3014
  456POPI   C3B 7193   0.449  11.157   7.985 -0.1196 -0.2200  0.3022
  456POPI   C4B 7194   0.645  11.187   7.501 -0.0747 -0.2288 -0.1236
  457POPI    C1 7195   8.546   3.339  10.589 -0.0122 -0.0194 -0.1378
  457POPI    C2 7196   8.209   3.554  10.576 -0.1174 -0.1604  0.1738
  457POPI    C3 7197   8.193   3.156  10.547  0.0421 -0.1547 -0.0108
  457POPI   PO4 7198   8.791   3.451  10.418  0.0129  0.0325 -0.0021
  457POPI   GL1 7199   9.122   3.513  10.039 -0.3946  0.0140 -0.1470
  457POPI   GL2 7200   8.823   3.267   9.968  0.0832 -0.0699 -0.1829
  457POPI   C1A 7201   9.209   3.361   9.571  0.2166 -0.0011 -0.0735
  457POPI   D2A 7202   9.129   3.447   9.218  0.1449  0.0280  0.2715
  457POPI   C3A 7203   9.347   3.469   8.866 -0.2172  0.2220 -0.2692
  457POPI   C4A 7204   9.709   3.501   8.548  0.1131  0.1291  0.0029
  457POPI   C1B 7205   8.662   3.199   9.581 -0.1765  0.1039 -0.0136
  457POPI   C2B 7206   8.629   3.131   9.202  0.1195  0.1151  0.0334
  457POPI   C3B 7207   8.512   3.044   8.838  0.4631  0.0191 -0.2637
  457POPI   C4B 7208   8.469   2.737   8.514 -0.0556  0.2966  0.0338
  458POPI    C1 7209   1.004  17.748  10.064  0.0385  0.0107 -0.5400
  458POPI    C2 7210   0.857  18.053   9.852 -0.3728 -0.1208 -0.4538
  458POPI    C3 7211   0.707  17.970  10.213  0.2669  0.0533 -0.1317
  458POPI   PO4 7212   0.878  17.488   9.890 -0.0646 -0.0800 -0.0181
  458POPI   GL1 7213   0.798  17.246   9.546 -0.2194  0.1589  0.0789
  458POPI   GL2 7214   0.822  16.828   9.549 -0.0999  0.0919  0.0650
  458POPI   C1A 7215   0.491  17.258   9.152  0.1685 -0.2648 -0.0325
  458POPI   D2A 7216   0.364  17.591   8.913  0.0674  0.0551 -0.0738
  458POPI   C3A 7217   0.437  17.815   8.575 -0.1020  0.2112  0.3735
  458POPI   C4A 7218   0.605  18.138   8.373  0.0049  0.1144  0.0621
  458POPI   C1B 7219   0.887  16.910   9.065  0.3840 -0.1757  0.0356
  458POPI   C2B 7220   0.718  17.280   8.735 -0.1044 -0.0998 -0.0512
  458POPI   C3B 7221   0.782  17.523   8.538  0.0847 -0.1400  0.0324
  458POPI   C4B 7222   0.663  17.545   8.141 -0.1219  0.1767 -0.0598
  459POPI    C1 7223   7.396   7.173  10.636 -0.1332 -0.3654 -0.1203
  459POPI    C2 7224   7.331   6.869  10.888 -0.0483 -0.0647  0.2747
  459POPI    C3 7225   7.255   7.244  11.003  0.5357  0.1313  0.0610
  459POPI   PO4 7226   7.325   7.083  10.440  0.2029 -0.2377  0.2990
  459POPI   GL1 7227   7.249   6.963  10.095  0.0828 -0.3515 -0.0083
  459POPI   GL2 7228   7.569   7.210  10.002 -0.2312  0.2196 -0.1509
  459POPI   C1A 7229   7.448   6.822   9.694  0.4106  0.3035 -0.2082
  459POPI   D2A 7230   7.681   6.795   9.377 -0.1028  0.0020 -0.3936
  459POPI   C3A 7231   7.551   6.883   9.064  0.1475  0.3178 -0.1407
  459POPI   C4A 7232   7.684   6.757   8.785  0.0632  0.3986 -0.1704
  459POPI   C1B 7233   7.564   7.287   9.558 -0.1189 -0.0374 -0.2011
  459POPI   C2B 7234   7.526   7.466   9.221 -0.0779 -0.1060  0.1972
  459POPI   C3B 7235   7.357   7.306   8.911  0.0079 -0.1844  0.1288
  459POPI   C4B 7236   7.421   7.122   8.669  0.2469  0.0122 -0.1115
  460POPI    C1 7237   6.830   4.437  10.452  0.0319 -0.0692  0.0743
  460POPI    C2 7238   6.445   4.385  10.355  0.0231  0.0472  0.0455
  460POPI    C3 7239   6.628   4.122  10.594 -0.0481 -0.0593 -0.0164
  460POPI   PO4 7240   6.943   4.584  10.220  0.1095  0.1285  0.3629
  460POPI   GL1 7241   7.035   4.707   9.814 -0.0908 -0.2477  0.1625
  460POPI   GL2 7242   7.045   4.848   9.583 -0.0013 -0.1276  0.1823
  460POPI   C1A 7243   7.238   4.408   9.548  0.0976  0.0921 -0.2085
  460POPI   D2A 7244   7.180   4.342   9.167 -0.0541 -0.4036  0.1166
  460POPI   C3A 7245   7.291   4.429   8.728  0.0577 -0.3721 -0.0665
  460POPI   C4A 7246   7.649   4.310   8.416 -0.0512 -0.0320 -0.1738
  460POPI   C1B 7247   7.155   4.844   9.232  0.0170  0.2414  0.1266
  460POPI   C2B 7248   7.249   4.950   8.798 -0.2783  0.3817 -0.0066
  460POPI   C3B 7249   7.163   4.907   8.365 -0.2213 -0.0612 -0.1523
  460POPI   C4B 7250   7.122   4.812   7.869  0.3713 -0.0507 -0.3148
  461POPI    C1 7251  14.896   6.366   9.841  0.0708  0.1596 -0.0377
  461POPI    C2 7252  15.064   6.168  10.146  0.0620  0.0361 -0.1120
  461POPI    C3 7253  15.022   6.566  10.163  0.2375  0.0521 -0.0347
  461POPI   PO4 7254  15.011   6.184   9.602 -0.0193 -0.0241 -0.3178
  461POPI   GL1 7255  14.994   6.213   9.164 -0.0164  0.3649  0.1140
  461POPI   GL2 7256  14.708   6.226   9.000 -0.0093 -0.1077  0.3077
  461POPI   C1A 7257  15.194   6.522   8.892 -0.0876 -0.0686 -0.3297
  461POPI   D2A 7258  15.360   6.706   8.579 -0.0082  0.0123  0.1620
  461POPI   C3A 7259  15.010   6.770   8.308  0.1331 -0.0050 -0.3573
  461POPI   C4A 7260  14.960   6.845   7.900  0.1548 -0.0624 -0.3143
  461POPI   C1B 7261  14.758   6.267   8.553  0.2608  0.0158  0.0499
  461POPI   C2B 7262  14.698   6.460   8.139 -0.3636 -0.0946 -0.3894
  461POPI   C3B 7263  14.777   6.400   7.749  0.3352 -0.3232  0.1101
  461POPI   C4B 7264  14.872   6.514   7.200 -0.0110  0.0483 -0.1170
  462POPI    C1 7265  14.980   5.601   9.675  0.5506 -0.2149 -0.0568
  462POPI    C2 7266  15.172   5.387   9.952  0.3346 -0.0709  0.2090
  462POPI    C3 7267  14.858   5.612  10.056 -0.0910 -0.4351 -0.2438
  462POPI   PO4 7268  15.067   5.449   9.414 -0.1116  0.1092  0.0275
  462POPI   GL1 7269  14.954   5.408   9.027  0.2159  0.1928  0.1817
  462POPI   GL2 7270  14.774   5.709   9.144 -0.1095  0.1374  0.0595
  462POPI   C1A 7271  14.911   5.146   8.705 -0.3796 -0.0030  0.4269
  462POPI   D2A 7272  15.120   5.283   8.310  0.2099 -0.0270 -0.2025
  462POPI   C3A 7273  15.110   5.540   8.053  0.0556 -0.0850 -0.0649
  462POPI   C4A 7274  15.030   5.643   7.623  0.1238  0.0730 -0.0810
  462POPI   C1B 7275  14.933   5.794   8.699  0.1192  0.0532  0.3453
  462POPI   C2B 7276  14.817   5.883   8.278 -0.1546  0.1780 -0.0165
  462POPI   C3B 7277  14.637   5.909   7.848  0.1583 -0.1086 -0.1613
  462POPI   C4B 7278  14.192   5.741   7.808 -0.2780  0.3540 -0.2829
  463POPI    C1 7279  15.095   9.907  10.116  0.2570 -0.1511 -0.1766
  463POPI    C2 7280  15.258   9.580  10.278  0.0378 -0.1099  0.1361
  463POPI    C3 7281  15.291   9.932  10.464 -0.0865 -0.0322  0.0127
  463POPI   PO4 7282  14.863   9.893  10.050  0.0108  0.2432 -0.1430
  463POPI   GL1 7283  14.683  10.052   9.748 -0.1886  0.0122 -0.0244
  463POPI   GL2 7284  14.658  10.311   9.578 -0.0148  0.0375 -0.0099
  463POPI   C1A 7285  14.861   9.808   9.372  0.2016  0.0460 -0.3496
  463POPI   D2A 7286  14.862   9.470   9.010 -0.0496 -0.1387 -0.4219
  463POPI   C3A 7287  14.649   9.519   8.622 -0.0792 -0.0441  0.1182
  463POPI   C4A 7288  14.690   9.760   8.300 -0.1349  0.2580 -0.0518
  463POPI   C1B 7289  14.730  10.275   9.150  0.0148  0.0558 -0.0598
  463POPI   C2B 7290  15.002  10.024   8.928  0.2587 -0.1513 -0.0847
  463POPI   C3B 7291  15.132   9.978   8.631 -0.3246 -0.2116 -0.0687
  463POPI   C4B 7292  15.066  10.185   8.223  0.0548 -0.1970  0.0429
  464POPI    C1 7293  12.364  17.226  11.014  0.1045 -0.1426 -0.1580
  464POPI    C2 7294  12.065  17.108  10.777 -0.0135 -0.1310 -0.0159
  464POPI    C3 7295  12.220  16.855  11.044 -0.2067  0.0032  0.2271
  464POPI   PO4 7296  12.473  17.512  10.828 -0.1589  0.1361  0.0254
  464POPI   GL1 7297  12.507  17.662  10.416  0.0508  0.1649 -0.1870
  464POPI   GL2 7298  12.481  17.314  10.352  0.0654  0.1388  0.2761
  464POPI   C1A 7299  12.314  17.765   9.939  0.1970 -0.2310  0.3949
  464POPI   D2A 7300  11.967  17.898   9.671  0.1313 -0.0762 -0.0612
  464POPI   C3A 7301  11.633  17.837   9.384 -0.2092  0.1519  0.1848
  464POPI   C4A 7302  11.458  17.722   9.013 -0.0109  0.0787  0.0767
  464POPI   C1B 7303  12.279  17.276   9.984  0.0097  0.2015  0.0547
  464POPI   C2B 7304  12.194  17.298   9.556  0.0793 -0.0877 -0.0185
  464POPI   C3B 7305  12.086  17.500   9.239 -0.0625  0.2145 -0.3298
  464POPI   C4B 7306  12.030  17.473   8.812  0.1088 -0.2327  0.1088
  465POPI    C1 7307   8.002   0.945  10.516 -0.0375  0.0810  0.1140
  465POPI    C2 7308   7.619   0.947  10.631 -0.0621  0.2969  0.0331
  465POPI    C3 7309   7.909   1.001  10.901 -0.0765 -0.0716  0.1273
  465POPI   PO4 7310   7.951   1.060  10.241  0.1231  0.4049  0.0703
  465POPI   GL1 7311   7.789   1.134   9.846 -0.1440 -0.1865 -0.3091
  465POPI   GL2 7312   7.431   1.233   9.841  0.0040  0.0599 -0.1437
  465POPI   C1A 7313   8.091   1.192   9.552  0.0333 -0.2283  0.0256
  465POPI   D2A 7314   8.262   1.128   9.194 -0.0450 -0.0455  0.2887
  465POPI   C3A 7315   8.502   0.977   8.835 -0.1531 -0.1289 -0.2085
  465POPI   C4A 7316   8.652   0.687   8.441 -0.2018 -0.2443  0.0242
  465POPI   C1B 7317   7.424   1.521   9.606 -0.1862  0.0928  0.0914
  465POPI   C2B 7318   7.399   1.670   9.195  0.0255  0.1185 -0.1004
  465POPI   C3B 7319   7.549   1.524   8.800 -0.0023  0.0838 -0.0810
  465POPI   C4B 7320   7.847   1.376   8.480  0.0044  0.1373  0.1658
  466POPI    C1 7321  12.075  15.123  10.172 -0.2523 -0.2758  0.2807
  466POPI    C2 7322  12.203  14.746  10.200  0.2078 -0.1430  0.0581
  466POPI    C3 7323  12.376  15.033  10.419  0.1207  0.0007 -0.0594
  466POPI   PO4 7324  11.987  15.095   9.926  0.1881  0.0109  0.0443
  466POPI   GL1 7325  11.801  15.139   9.585 -0.1134  0.1798  0.3443
  466POPI   GL2 7326  11.596  14.934   9.446 -0.3849 -0.0678  0.0893
  466POPI   C1A 7327  12.002  15.131   9.158 -0.1022  0.0041  0.2431
  466POPI   D2A 7328  12.065  15.528   8.876  0.0948  0.1060 -0.1704
  466POPI   C3A 7329  11.931  15.615   8.494  0.2505 -0.0165  0.1282
  466POPI   C4A 7330  12.051  15.715   8.097 -0.0553 -0.2442 -0.2634
  466POPI   C1B 7331  11.839  14.643   9.098  0.2685  0.0957  0.0487
  466POPI   C2B 7332  11.732  14.499   8.760 -0.4363 -0.1543 -0.2254
  466POPI   C3B 7333  11.611  14.577   8.475 -0.0436 -0.2520 -0.2538
  466POPI   C4B 7334  11.487  14.819   7.972 -0.1031 -0.0552  0.1593
  467POPI    C1 7335   8.359   6.923  10.647  0.2322  0.2566 -0.1964
  467POPI    C2 7336   8.200   7.106  10.965  0.1703  0.1878 -0.1876
  467POPI    C3 7337   8.588   7.006  10.965  0.0388 -0.3683  0.1225
  467POPI   PO4 7338   8.211   6.734  10.525 -0.6015 -0.0934  0.0823
  467POPI   GL1 7339   8.186   6.540  10.083  0.0389 -0.0397  0.1905
  467POPI   GL2 7340   8.278   6.219  10.239 -0.1197 -0.1168 -0.1284
  467POPI   C1A 7341   7.967   6.916   9.768 -0.0066 -0.1290 -0.1258
  467POPI   D2A 7342   8.074   7.211   9.526 -0.1155 -0.0055  0.0758
  467POPI   C3A 7343   8.043   7.029   9.199  0.0305  0.2851  0.1656
  467POPI   C4A 7344   7.870   7.247   8.887  0.0578 -0.0872 -0.1911
  467POPI   C1B 7345   8.343   6.149   9.726 -0.0012  0.1042  0.0370
  467POPI   C2B 7346   8.151   6.015   9.346  0.2497 -0.0595 -0.2326
  467POPI   C3B 7347   8.099   6.083   8.994  0.0895 -0.0506 -0.1626
  467POPI   C4B 7348   8.046   6.196   8.546 -0.2390 -0.1726 -0.3027
  468POPI    C1 7349   0.781   2.283  10.112  0.1940 -0.1184  0.0729
  468POPI    C2 7350   0.430   2.115  10.205  0.0460  0.0708 -0.1314
  468POPI    C3 7351   0.656   2.279  10.492 -0.0763  0.0311 -0.0113
  468POPI   PO4 7352   0.621   2.495   9.964 -0.0799  0.1694 -0.1089
  468POPI   GL1 7353   0.416   2.591   9.604 -0.2360 -0.1922  0.3809
  468POPI   GL2 7354   0.212   2.874   9.438  0.1695  0.4383 -0.0833
  468POPI   C1A 7355   0.495   2.556   9.180 -0.0009  0.0739  0.1174
  468POPI   D2A 7356   0.674   2.609   8.832 -0.0035  0.1714  0.1705
  468POPI   C3A 7357   0.475   2.680   8.456 -0.0677  0.0395  0.1478
  468POPI   C4A 7358   0.579   2.523   7.967 -0.2811 -0.1810 -0.0824
  468POPI   C1B 7359   0.048   2.952   9.021  0.0187 -0.1716 -0.1190
  468POPI   C2B 7360  -0.155   2.788   8.728 -0.0668 -0.2123 -0.3092
  468POPI   C3B 7361   0.006   2.536   8.342  0.1571  0.3439  0.1549
  468POPI   C4B 7362   0.364   2.150   8.219 -0.0925 -0.1648  0.0360
  469POPI    C1 7363  11.893  10.964  10.461 -0.0396 -0.2406  0.0904
  469POPI    C2 7364  11.946  11.068  10.844  0.1008  0.3709 -0.0848
  469POPI    C3 7365  12.262  10.980  10.614  0.0261  0.1216 -0.0947
  469POPI   PO4 7366  11.661  10.998  10.346 -0.2030 -0.2737  0.0172
  469POPI   GL1 7367  11.582  10.926  10.001  0.0733 -0.1063 -0.1230
  469POPI   GL2 7368  11.513  10.649   9.882  0.1991  0.0059 -0.2411
  469POPI   C1A 7369  11.890  10.934   9.678  0.1304 -0.1035 -0.2993
  469POPI   D2A 7370  12.095  11.263   9.536  0.1268  0.1087 -0.1379
  469POPI   C3A 7371  12.008  11.367   9.123  0.0242 -0.2522 -0.2218
  469POPI   C4A 7372  12.043  11.597   8.808 -0.5342 -0.0547  0.2608
  469POPI   C1B 7373  11.539  10.664   9.434  0.0224  0.0363  0.1927
  469POPI   C2B 7374  11.436  10.573   8.993  0.0680 -0.1338  0.0152
  469POPI   C3B 7375  11.576  10.627   8.582 -0.1885 -0.2924 -0.1595
  469POPI   C4B 7376  11.677  10.816   8.169  0.1371  0.0484  0.1092
  470POPI    C1 7377   6.709   8.790   9.927  0.0919  0.0055 -0.0501
  470POPI    C2 7378   6.422   8.917  10.175  0.0013  0.1077 -0.2064
  470POPI    C3 7379   6.343   8.632   9.906  0.1607 -0.1684  0.0340
  470POPI   PO4 7380   6.801   8.998   9.822  0.0992  0.0750 -0.4330
  470POPI   GL1 7381   6.713   9.338   9.538  0.2384 -0.1897  0.0937
  470POPI   GL2 7382   6.751   9.598   9.439  0.2623 -0.2177 -0.1694
  470POPI   C1A 7383   6.674   9.075   9.156  0.1710  0.0632  0.2669
  470POPI   D2A 7384   6.870   8.714   8.942 -0.0656 -0.0399  0.4053
  470POPI   C3A 7385   6.811   8.369   8.760 -0.1002 -0.0244 -0.2393
  470POPI   C4A 7386   6.898   8.116   8.448  0.1579  0.0423 -0.1682
  470POPI   C1B 7387   6.815   9.548   8.944 -0.2050 -0.0927 -0.5257
  470POPI   C2B 7388   6.828   9.332   8.736 -0.1231 -0.4776 -0.0225
  470POPI   C3B 7389   6.880   9.347   8.339 -0.0801 -0.1717 -0.3109
  470POPI   C4B 7390   6.624   9.460   7.999 -0.0469  0.2104 -0.1335
  471POPI    C1 7391  10.192   2.489  10.685  0.0124  0.0519  0.3189
  471POPI    C2 7392   9.853   2.672  10.579  0.0786  0.0404  0.0809
  471POPI    C3 7393   9.984   2.698  10.956 -0.1177  0.1532  0.1435
  471POPI   PO4 7394  10.219   2.341  10.475 -0.0966 -0.0913  0.1583
  471POPI   GL1 7395  10.294   1.898  10.319 -0.3860  0.2472 -0.0790
  471POPI   GL2 7396  10.023   1.618  10.289  0.1557 -0.2802  0.1113
  471POPI   C1A 7397  10.124   1.908   9.863  0.2852  0.1985 -0.0751
  471POPI   D2A 7398  10.209   1.639   9.437  0.0523 -0.3040  0.1883
  471POPI   C3A 7399   9.859   1.462   9.100 -0.0820 -0.0312  0.0116
  471POPI   C4A 7400   9.547   1.593   8.791  0.4885  0.0789 -0.3888
  471POPI   C1B 7401   9.775   1.533   9.915  0.0693  0.0190 -0.0243
  471POPI   C2B 7402   9.546   1.416   9.524  0.2658 -0.1031  0.1702
  471POPI   C3B 7403   9.334   1.195   9.256 -0.0593  0.1607  0.1353
  471POPI   C4B 7404   9.575   1.103   8.835 -0.5485 -0.0201  0.0668
  472POPI    C1 7405  13.566   7.575  10.077  0.1560  0.0833  0.1530
  472POPI    C2 7406  13.559   7.279  10.346 -0.2479 -0.1298 -0.0826
  472POPI    C3 7407  13.409   7.638  10.440  0.0686 -0.0515  0.1393
  472POPI   PO4 7408  13.774   7.613   9.994  0.1041 -0.1179  0.1861
  472POPI   GL1 7409  13.778   7.699   9.631  0.1474  0.2768  0.2146
  472POPI   GL2 7410  13.588   7.966   9.665  0.0716  0.1731 -0.0116
  472POPI   C1A 7411  13.829   7.792   9.214 -0.2489  0.2333 -0.1282
  472POPI   D2A 7412  13.634   7.829   8.811 -0.1879  0.0733 -0.0315
  472POPI   C3A 7413  13.647   7.723   8.454 -0.1369  0.2155  0.2369
  472POPI   C4A 7414  13.604   7.459   8.132  0.0698 -0.0940  0.0387
  472POPI   C1B 7415  13.193   8.049   9.481 -0.0307 -0.1288  0.0461
  472POPI   C2B 7416  13.109   8.093   9.044 -0.1320  0.1306  0.2712
  472POPI   C3B 7417  13.348   8.095   8.512 -0.0164 -0.1783 -0.2299
  472POPI   C4B 7418  13.668   8.266   8.284  0.2823 -0.0395  0.0590
  473DPPI    C1 7419  11.864  14.077   9.893  0.0960  0.1959  0.0319
  473DPPI    C2 7420  11.507  14.235   9.983  0.0172  0.0171  0.0376
  473DPPI    C3 7421  11.540  13.973   9.683  0.1054 -0.1276  0.1725
  473DPPI   PO4 7422  12.053  14.349   9.884 -0.0901 -0.1304 -0.0660
  473DPPI   GL1 7423  12.448  14.526   9.696  0.1834  0.3508  0.2905
  473DPPI   GL2 7424  12.145  14.763   9.568 -0.4297 -0.2522  0.0833
  473DPPI   C1A 7425  12.774  14.718   9.451  0.2480  0.1224 -0.1174
  473DPPI   C2A 7426  12.958  14.517   9.109  0.2620  0.3503 -0.0296
  473DPPI   C3A 7427  13.208  14.114   8.999 -0.0710 -0.2274  0.2452
  473DPPI   C4A 7428  13.416  13.647   8.881  0.3193 -0.1058 -0.1166
  473DPPI   C1B 7429  12.379  14.753   9.143  0.1092  0.0077 -0.1867
  473DPPI   C2B 7430  12.606  14.665   8.745  0.1996  0.1304 -0.0182
  473DPPI   C3B 7431  12.499  14.940   8.420 -0.1975  0.1595 -0.2932
  473DPPI   C4B 7432  12.613  14.988   8.057  0.0399 -0.4624 -0.4830
  474DPPI    C1 7433   8.827  12.575  10.046 -0.0518  0.1471 -0.1582
  474DPPI    C2 7434   8.800  12.919  10.250  0.2701  0.0204  0.1078
  474DPPI    C3 7435   8.727  12.571  10.433  0.2512 -0.0750 -0.0782
  474DPPI   PO4 7436   8.983  12.628   9.840  0.3369 -0.1363 -0.0726
  474DPPI   GL1 7437   8.929  12.523   9.402 -0.0613  0.0051  0.0887
  474DPPI   GL2 7438   8.748  12.738   9.371 -0.3016 -0.1853 -0.0343
  474DPPI   C1A 7439   9.330  12.571   9.162  0.0057 -0.3493 -0.0067
  474DPPI   C2A 7440   9.347  12.597   8.764  0.1244 -0.2559 -0.2316
  474DPPI   C3A 7441   9.415  12.708   8.293 -0.1431  0.1923 -0.0116
  474DPPI   C4A 7442   9.649  12.675   7.764 -0.1320  0.2066 -0.1888
  474DPPI   C1B 7443   8.842  12.649   8.930 -0.1288  0.2481  0.0499
  474DPPI   C2B 7444   8.810  12.633   8.598  0.1519 -0.1017  0.0169
  474DPPI   C3B 7445   8.603  12.402   8.388  0.0014  0.0460 -0.0574
  474DPPI   C4B 7446   8.523  12.225   7.960 -0.0145 -0.0017 -0.1278
  475DPPI    C1 7447   7.702  13.177   9.835  0.0311 -0.0579 -0.1203
  475DPPI    C2 7448   8.059  13.244   9.666  0.0618 -0.2042 -0.1143
  475DPPI    C3 7449   8.015  13.280  10.062 -0.0062  0.1228 -0.1491
  475DPPI   PO4 7450   7.577  13.313   9.651 -0.1976  0.1263  0.2364
  475DPPI   GL1 7451   7.674  13.366   9.254 -0.1830  0.0405  0.0428
  475DPPI   GL2 7452   7.604  13.696   9.358  0.1998 -0.2054  0.2046
  475DPPI   C1A 7453   7.612  13.363   8.833 -0.0864 -0.0378 -0.0133
  475DPPI   C2A 7454   7.364  13.359   8.530 -0.0782 -0.0339  0.3214
  475DPPI   C3A 7455   7.177  13.447   8.145  0.1964 -0.1108 -0.0172
  475DPPI   C4A 7456   7.058  13.468   7.678 -0.1333 -0.2278 -0.2481
  475DPPI   C1B 7457   7.362  13.956   9.094 -0.0614 -0.0956 -0.0822
  475DPPI   C2B 7458   6.983  14.159   8.847  0.1650 -0.0406 -0.0284
  475DPPI   C3B 7459   6.888  14.267   8.317 -0.2263  0.0666 -0.0451
  475DPPI   C4B 7460   6.695  14.413   7.959 -0.0336  0.0972  0.1324
  476DPPI    C1 7461   9.145  17.611  10.547 -0.1669  0.0948  0.1368
  476DPPI    C2 7462   9.095  17.366  10.859  0.1531 -0.0540  0.0754
  476DPPI    C3 7463   9.380  17.646  10.869  0.2706 -0.1628 -0.1448
  476DPPI   PO4 7464   9.121  17.411  10.273  0.3129 -0.3263  0.2051
  476DPPI   GL1 7465   9.294  17.386   9.876  0.1203  0.1210  0.1280
  476DPPI   GL2 7466   8.898  17.521   9.783 -0.1141  0.2438 -0.0508
  476DPPI   C1A 7467   9.419  17.351   9.429 -0.0899  0.0153 -0.1325
  476DPPI   C2A 7468   9.452  17.328   9.180  0.0122  0.0957  0.1004
  476DPPI   C3A 7469   9.481  17.215   8.767 -0.0258 -0.2925  0.1359
  476DPPI   C4A 7470   9.614  17.283   8.383  0.2697 -0.1673 -0.0267
  476DPPI   C1B 7471   9.040  17.692   9.442  0.2284 -0.1365 -0.0502
  476DPPI   C2B 7472   9.095  17.633   9.016 -0.0273 -0.0748  0.2642
  476DPPI   C3B 7473   9.207  17.633   8.606  0.0307  0.4683 -0.2240
  476DPPI   C4B 7474   9.537  17.771   8.301  0.0546  0.0189  0.1543
  477DPPI    C1 7475   4.897   9.622  10.043  0.0491  0.3249 -0.0987
  477DPPI    C2 7476   4.593   9.535   9.798  0.1753 -0.2115 -0.0767
  477DPPI    C3 7477   4.520   9.667  10.168 -0.0254 -0.1113 -0.1509
  477DPPI   PO4 7478   5.144   9.475   9.842  0.1330 -0.2359  0.0906
  477DPPI   GL1 7479   5.510   9.729   9.510 -0.0945  0.0013 -0.1803
  477DPPI   GL2 7480   5.751   9.723   9.498 -0.4051  0.0610  0.0982
  477DPPI   C1A 7481   5.301   9.904   9.109 -0.0054 -0.1351  0.1764
  477DPPI   C2A 7482   5.472  10.030   8.801  0.0178 -0.0487 -0.0624
  477DPPI   C3A 7483   5.736  10.053   8.339 -0.1575  0.1193  0.1850
  477DPPI   C4A 7484   5.840   9.914   7.869  0.1443  0.0977 -0.3975
  477DPPI   C1B 7485   5.693   9.597   9.067  0.0062  0.0297  0.0132
  477DPPI   C2B 7486   5.865   9.647   8.728 -0.0519 -0.0808  0.1209
  477DPPI   C3B 7487   6.130   9.784   8.385 -0.0230  0.1387  0.1398
  477DPPI   C4B 7488   6.212  10.174   8.038  0.0034  0.2209 -0.4712
  478DPPI    C1 7489  14.761   4.607   9.958  0.0119  0.2270 -0.0678
  478DPPI    C2 7490  14.391   4.747  10.016  0.0475  0.3215 -0.0665
  478DPPI    C3 7491  14.584   4.564  10.315  0.1519  0.6234  0.0542
  478DPPI   PO4 7492  14.860   4.437   9.746  0.2491 -0.0349  0.3695
  478DPPI   GL1 7493  14.952   4.542   9.313 -0.0762 -0.0182  0.2030
  478DPPI   GL2 7494  14.723   4.355   9.191 -0.2759 -0.0267  0.4136
  478DPPI   C1A 7495  15.092   4.556   8.879  0.0758  0.1973  0.1043
  478DPPI   C2A 7496  14.932   4.723   8.412  0.2305  0.1788  0.0555
  478DPPI   C3A 7497  14.959   4.988   7.981 -0.0137  0.1066  0.1094
  478DPPI   C4A 7498  14.575   4.912   7.705 -0.1999  0.0242  0.1555
  478DPPI   C1B 7499  14.649   4.341   8.718 -0.0531 -0.1029 -0.1255
  478DPPI   C2B 7500  14.453   4.383   8.292 -0.0498 -0.2826 -0.0646
  478DPPI   C3B 7501  14.193   4.532   7.883  0.2155 -0.1532 -0.1274
  478DPPI   C4B 7502  14.141   4.717   7.548  0.2764  0.1069 -0.0711
  479DPPI    C1 7503  15.681  10.593  10.286 -0.1928 -0.1312 -0.2562
  479DPPI    C2 7504  15.366  10.805  10.413  0.0980  0.1362  0.0370
  479DPPI    C3 7505  15.427  10.435  10.551 -0.2163 -0.0110 -0.2061
  479DPPI   PO4 7506  15.737  10.650  10.072  0.0951  0.1812 -0.2797
  479DPPI   GL1 7507  15.829  10.436   9.670  0.1505  0.0962 -0.1206
  479DPPI   GL2 7508  15.718  10.149   9.582  0.0794  0.1171  0.0282
  479DPPI   C1A 7509  15.789  10.692   9.362  0.0216  0.3110 -0.2679
  479DPPI   C2A 7510  15.700  10.864   8.947 -0.1753 -0.1425 -0.1683
  479DPPI   C3A 7511  15.694  11.100   8.509  0.1144 -0.1921  0.0448
  479DPPI   C4A 7512  15.663  11.010   8.124 -0.0778  0.0454 -0.0249
  479DPPI   C1B 7513  15.873  10.211   9.198  0.1101 -0.1118  0.1229
  479DPPI   C2B 7514  15.846  10.414   8.822  0.0305  0.0490  0.2638
  479DPPI   C3B 7515  15.526  10.599   8.482 -0.0464 -0.2686  0.1739
  479DPPI   C4B 7516  15.252  10.697   8.225  0.0034  0.0503  0.0127
  480DPPI    C1 7517  11.209   2.852  10.833  0.0230  0.0847  0.1150
  480DPPI    C2 7518  11.552   2.975  10.997 -0.0071  0.0209  0.2267
  480DPPI    C3 7519  11.211   3.166  11.081  0.0274  0.2014 -0.0314
  480DPPI   PO4 7520  11.142   2.852  10.584 -0.0512  0.4129  0.2792
  480DPPI   GL1 7521  11.031   2.642  10.183  0.2845 -0.1386 -0.0128
  480DPPI   GL2 7522  10.671   2.474  10.202 -0.1891 -0.0633  0.0671
  480DPPI   C1A 7523  10.926   2.984   9.835  0.2953  0.1576  0.1926
  480DPPI   C2A 7524  10.878   2.919   9.487  0.0175  0.1897  0.0835
  480DPPI   C3A 7525  10.785   3.215   9.175  0.3010  0.1387 -0.1248
  480DPPI   C4A 7526  10.588   3.198   8.824 -0.1513  0.3556 -0.1516
  480DPPI   C1B 7527  10.753   2.473   9.762 -0.0040  0.0116  0.1488
  480DPPI   C2B 7528  10.939   2.461   9.438 -0.0788  0.4612  0.0340
  480DPPI   C3B 7529  10.794   2.499   8.975 -0.0214  0.0135  0.0717
  480DPPI   C4B 7530  10.659   2.150   8.743 -0.2211 -0.0377  0.0851
  481DPPI    C1 7531  11.190   5.637  10.453 -0.0678 -0.0027  0.1118
  481DPPI    C2 7532  10.924   5.363  10.335 -0.0430 -0.0336  0.1271
  481DPPI    C3 7533  11.026   5.390  10.721 -0.1856  0.1216  0.1555
  481DPPI   PO4 7534  11.373   5.596  10.238  0.0274 -0.0301  0.1226
  481DPPI   GL1 7535  11.272   5.368   9.925 -0.0282  0.1369  0.2458
  481DPPI   GL2 7536  11.324   5.613   9.712  0.2672  0.0355 -0.3887
  481DPPI   C1A 7537  11.079   5.141   9.551  0.2324  0.3304 -0.1894
  481DPPI   C2A 7538  11.154   5.027   9.078 -0.0750 -0.0706 -0.1606
  481DPPI   C3A 7539  11.222   4.988   8.613 -0.3100 -0.0528  0.0184
  481DPPI   C4A 7540  10.981   4.858   8.225  0.0358 -0.2261 -0.1246
  481DPPI   C1B 7541  11.381   5.461   9.324  0.0195  0.0160 -0.0213
  481DPPI   C2B 7542  11.516   5.334   8.989 -0.1324 -0.1314  0.1296
  481DPPI   C3B 7543  11.509   5.460   8.546  0.1523 -0.0787  0.0556
  481DPPI   C4B 7544  11.458   5.153   8.212 -0.1308 -0.4520 -0.0790
  482DPPI    C1 7545   4.537   6.805  10.050 -0.1540 -0.0677  0.2791
  482DPPI    C2 7546   4.161   6.683   9.985 -0.1201 -0.0428  0.0253
  482DPPI    C3 7547   4.236   7.068  10.064 -0.1220  0.0008 -0.1814
  482DPPI   PO4 7548   4.702   6.717   9.766  0.0146 -0.0620 -0.1199
  482DPPI   GL1 7549   4.852   6.344   9.636  0.3108  0.2522 -0.0092
  482DPPI   GL2 7550   5.183   6.408   9.599  0.0609  0.1558  0.1372
  482DPPI   C1A 7551   4.832   6.310   9.266 -0.0237  0.0741  0.2471
  482DPPI   C2A 7552   4.605   6.187   8.839  0.2607 -0.0646  0.1103
  482DPPI   C3A 7553   4.359   6.102   8.453 -0.1462 -0.0993 -0.0678
  482DPPI   C4A 7554   4.236   6.020   8.061  0.0557  0.0480  0.0386
  482DPPI   C1B 7555   5.342   6.291   9.273  0.3964 -0.2835  0.1951
  482DPPI   C2B 7556   5.191   6.362   8.827  0.0495 -0.0757 -0.2131
  482DPPI   C3B 7557   4.898   6.276   8.471  0.1242 -0.1793  0.1313
  482DPPI   C4B 7558   4.731   6.029   8.033  0.1200  0.1240 -0.0219
  483DPPI    C1 7559  12.797  15.310   9.909 -0.0322  0.1417 -0.3121
  483DPPI    C2 7560  12.413  15.402   9.969 -0.0904 -0.2692 -0.0120
  483DPPI    C3 7561  12.518  15.024   9.888  0.2334 -0.1252 -0.2889
  483DPPI   PO4 7562  12.961  15.505  10.037 -0.4619  0.1452 -0.0437
  483DPPI   GL1 7563  12.880  15.782   9.715 -0.0080 -0.2561 -0.0827
  483DPPI   GL2 7564  12.552  15.852  10.075 -0.4018 -0.2471  0.3078
  483DPPI   C1A 7565  12.940  15.533   9.432  0.2079  0.2120  0.0790
  483DPPI   C2A 7566  13.079  15.467   9.069  0.2881 -0.2745  0.4815
  483DPPI   C3A 7567  12.868  15.432   8.593  0.0622 -0.1039 -0.0852
  483DPPI   C4A 7568  12.464  15.573   8.471  0.1056  0.1016  0.1586
  483DPPI   C1B 7569  12.319  15.967   9.767 -0.0497  0.1184  0.0680
  483DPPI   C2B 7570  12.210  16.134   9.460 -0.0285 -0.0120 -0.1369
  483DPPI   C3B 7571  12.380  16.364   9.052  0.2197  0.1233  0.0620
  483DPPI   C4B 7572  12.516  16.459   8.599 -0.2454  0.0390  0.1507
  484DPPI    C1 7573   7.833   0.620  10.052 -0.2035  0.0423  0.0190
  484DPPI    C2 7574   7.668   0.476  10.386 -0.0268 -0.1644  0.0190
  484DPPI    C3 7575   7.486   0.769  10.184 -0.1769 -0.0958  0.2494
  484DPPI   PO4 7576   7.960   0.293   9.978 -0.3432  0.1505 -0.1198
  484DPPI   GL1 7577   7.900   0.100   9.613  0.0763 -0.0138 -0.1958
  484DPPI   GL2 7578   7.961  -0.168   9.859 -0.1129  0.0870 -0.0180
  484DPPI   C1A 7579   8.067   0.013   9.251  0.1014  0.1131 -0.0368
  484DPPI   C2A 7580   8.006  -0.136   8.850  0.4816 -0.1748  0.0792
  484DPPI   C3A 7581   8.158  -0.014   8.495  0.4699 -0.0419  0.1740
  484DPPI   C4A 7582   8.208  -0.004   7.984  0.1452 -0.0029 -0.0905
  484DPPI   C1B 7583   8.296  -0.274   9.666  0.0243 -0.3915 -0.2030
  484DPPI   C2B 7584   8.689  -0.171   9.516  0.0262 -0.2841 -0.1322
  484DPPI   C3B 7585   8.682  -0.218   9.113 -0.0328 -0.2776  0.0912
  484DPPI   C4B 7586   8.842  -0.171   8.676  0.1102 -0.0787  0.2770
  485DPPI    C1 7587  17.181  17.724  10.000  0.1066 -0.0816 -0.0626
  485DPPI    C2 7588  17.080  17.953  10.312 -0.2471 -0.1551 -0.1200
  485DPPI    C3 7589  16.813  17.879  10.023 -0.0432 -0.3995 -0.2495
  485DPPI   PO4 7590  17.335  17.781   9.846 -0.1107 -0.2382 -0.0440
  485DPPI   GL1 7591  17.674  17.774   9.554  0.0409 -0.2241  0.2199
  485DPPI   GL2 7592  17.516  17.972   9.294 -0.3682  0.3672 -0.2822
  485DPPI   C1A 7593  17.989  17.592   9.312 -0.1177  0.2194 -0.0147
  485DPPI   C2A 7594  18.167  17.335   9.083 -0.3259  0.0549  0.2395
  485DPPI   C3A 7595  18.278  17.249   8.604  0.4493  0.0034  0.0308
  485DPPI   C4A 7596  18.343  17.204   8.211 -0.0303 -0.0320 -0.2107
  485DPPI   C1B 7597  17.954  18.056   9.237  0.1518  0.1616 -0.0260
  485DPPI   C2B 7598  18.112  18.080   8.924 -0.4973 -0.1231  0.1700
  485DPPI   C3B 7599  18.218  18.088   8.522  0.0622 -0.1620  0.0475
  485DPPI   C4B 7600  18.024  17.911   8.153 -0.2943  0.1621 -0.0566
  486DPPI    C1 7601   3.132   2.099  10.029  0.0580  0.1823  0.1245
  486DPPI    C2 7602   2.821   2.006  10.262 -0.2082  0.0971 -0.2561
  486DPPI    C3 7603   2.867   2.381  10.130 -0.1702  0.1011 -0.2316
  486DPPI   PO4 7604   3.127   2.013   9.821 -0.0573  0.0846 -0.0218
  486DPPI   GL1 7605   2.882   2.102   9.517 -0.1647 -0.2626  0.2625
  486DPPI   GL2 7606   2.824   2.416   9.594 -0.0559  0.0713  0.0112
  486DPPI   C1A 7607   3.183   2.155   9.157 -0.3195  0.0045  0.2352
  486DPPI   C2A 7608   3.413   2.088   8.804  0.1625  0.1254 -0.0850
  486DPPI   C3A 7609   3.768   1.873   8.593  0.3722  0.2835  0.2445
  486DPPI   C4A 7610   3.952   1.864   8.221  0.0700 -0.1024 -0.0366
  486DPPI   C1B 7611   2.774   2.489   9.183  0.0206 -0.0441 -0.0022
  486DPPI   C2B 7612   2.909   2.420   8.730  0.1184 -0.1290 -0.1574
  486DPPI   C3B 7613   3.196   2.344   8.289 -0.0930  0.0228  0.0309
  486DPPI   C4B 7614   3.485   2.443   8.001 -0.1679  0.0397  0.1640
  487DPPI    C1 7615  10.291  13.340  10.402  0.0758  0.0592  0.1395
  487DPPI    C2 7616   9.977  13.158  10.571  0.0659  0.0046  0.0629
  487DPPI    C3 7617  10.158  13.461  10.759 -0.1165  0.1254  0.0467
  487DPPI   PO4 7618  10.340  13.394  10.041  0.0973 -0.2377 -0.3371
  487DPPI   GL1 7619  10.337  13.085   9.779  0.2721 -0.2133 -0.1602
  487DPPI   GL2 7620  10.133  13.379   9.656 -0.1755 -0.0682 -0.0745
  487DPPI   C1A 7621  10.432  13.060   9.385  0.2511  0.1117 -0.0178
  487DPPI   C2A 7622  10.325  12.966   8.955  0.0336  0.1081 -0.0637
  487DPPI   C3A 7623  10.361  12.991   8.536 -0.3089  0.2890 -0.1799
  487DPPI   C4A 7624  10.393  12.843   8.250  0.0637 -0.0770  0.3740
  487DPPI   C1B 7625  10.171  13.468   9.182 -0.1568  0.1089 -0.1723
  487DPPI   C2B 7626  10.095  13.489   8.748  0.2163 -0.0499  0.0027
  487DPPI   C3B 7627  10.166  13.398   8.311  0.0199 -0.0081 -0.0544
  487DPPI   C4B 7628  10.040  13.546   7.843 -0.1003 -0.3242 -0.2623
  488DPPI    C1 7629   9.790   5.525  10.491  0.1663  0.2820  0.0107
  488DPPI    C2 7630   9.782   5.535  10.891 -0.2617 -0.3601  0.0331
  488DPPI    C3 7631   9.443   5.576  10.683 -0.0274  0.0787 -0.2781
  488DPPI   PO4 7632   9.928   5.694  10.313 -0.2116  0.2470  0.0925
  488DPPI   GL1 7633  10.038   5.881   9.948 -0.0154  0.1211  0.0278
  488DPPI   GL2 7634  10.149   5.484   9.833  0.2162  0.2457 -0.1002
  488DPPI   C1A 7635  10.410   6.003   9.677  0.1373  0.2800  0.0635
  488DPPI   C2A 7636  10.580   5.960   9.226  0.3913 -0.1857 -0.0402
  488DPPI   C3A 7637  10.609   6.089   8.778 -0.2108  0.0907 -0.0251
  488DPPI   C4A 7638  10.478   6.149   8.292  0.1497 -0.0103 -0.1329
  488DPPI   C1B 7639  10.302   5.596   9.454  0.2007  0.1361 -0.3728
  488DPPI   C2B 7640  10.312   5.608   9.022 -0.1658 -0.0461 -0.2116
  488DPPI   C3B 7641  10.475   5.647   8.600  0.1960 -0.0307  0.0512
  488DPPI   C4B 7642  10.610   5.708   8.167  0.1750  0.3954 -0.0031
  489DPPI    C1 7643   0.809   4.799   9.819  0.0170  0.0380 -0.1416
  489DPPI    C2 7644   0.978   4.463   9.956 -0.1484  0.0930  0.2091
  489DPPI    C3 7645   1.000   4.800  10.170 -0.1210  0.2691 -0.0654
  489DPPI   PO4 7646   0.897   4.820   9.534 -0.2130  0.1199 -0.1365
  489DPPI   GL1 7647   0.791   4.738   9.121 -0.2266 -0.2459  0.1253
  489DPPI   GL2 7648   0.582   4.496   9.052  0.1653  0.2058 -0.0727
  489DPPI   C1A 7649   0.819   4.666   8.680  0.0898 -0.1598 -0.0728
  489DPPI   C2A 7650   1.056   4.444   8.419  0.1581 -0.0704 -0.1837
  489DPPI   C3A 7651   1.308   4.504   7.920 -0.0022  0.4389  0.0694
  489DPPI   C4A 7652   1.233   4.658   7.570  0.0090 -0.3141 -0.1702
  489DPPI   C1B 7653   0.351   4.594   8.790  0.4317 -0.3219  0.0187
  489DPPI   C2B 7654   0.258   4.661   8.357 -0.0828  0.0417 -0.0252
  489DPPI   C3B 7655   0.364   4.546   8.023  0.1537  0.0256  0.0207
  489DPPI   C4B 7656   0.369   4.324   7.624  0.0858  0.2785 -0.1714
  490DPPI    C1 7657  10.407  13.871  10.049 -0.0837  0.0106  0.1437
  490DPPI    C2 7658  10.691  13.667  10.243 -0.1366 -0.0619  0.1453
  490DPPI    C3 7659  10.398  13.848  10.448  0.1244  0.3443  0.1719
  490DPPI   PO4 7660  10.680  14.022   9.861  0.0432  0.0217  0.0476
  490DPPI   GL1 7661  10.771  14.089   9.389  0.2037 -0.0155 -0.0775
  490DPPI   GL2 7662  11.069  14.124   9.547 -0.4897  0.0820 -0.0783
  490DPPI   C1A 7663  10.900  14.033   8.950 -0.1467 -0.0313 -0.1895
  490DPPI   C2A 7664  10.669  13.939   8.650 -0.1918 -0.0810 -0.0789
  490DPPI   C3A 7665  10.599  13.610   8.459 -0.0488 -0.2394 -0.0779
  490DPPI   C4A 7666  10.598  13.365   8.139 -0.2655  0.0750  0.0057
  490DPPI   C1B 7667  11.341  13.866   9.227 -0.1934 -0.0316 -0.1663
  490DPPI   C2B 7668  11.432  14.051   8.845 -0.1308  0.2090 -0.0356
  490DPPI   C3B 7669  11.486  14.073   8.407  0.1064  0.1217 -0.1265
  490DPPI   C4B 7670  11.336  14.377   8.124  0.0651  0.1109 -0.0484
  491DPPI    C1 7671   0.681  11.691  10.100 -0.1260  0.1817 -0.0093
  491DPPI    C2 7672   1.066  11.591  10.058 -0.1228  0.2849 -0.2360
  491DPPI    C3 7673   0.795  11.310  10.148 -0.0467  0.1484 -0.4242
  491DPPI   PO4 7674   0.661  11.835   9.855  0.2297 -0.2820  0.2462
  491DPPI   GL1 7675   0.523  11.794   9.432  0.1935 -0.0400  0.3056
  491DPPI   GL2 7676   0.642  11.921   9.253 -0.0140  0.1524 -0.2784
  491DPPI   C1A 7677   0.185  11.822   9.056  0.1454 -0.2799 -0.1706
  491DPPI   C2A 7678  -0.140  11.649   8.751  0.0820  0.2150 -0.0112
  491DPPI   C3A 7679  -0.261  11.459   8.435  0.1432 -0.0948 -0.2126
  491DPPI   C4A 7680  -0.571  11.426   8.149 -0.1979 -0.2027  0.0489
  491DPPI   C1B 7681   0.815  11.921   8.980 -0.4854 -0.4837  0.1462
  491DPPI   C2B 7682   0.867  12.011   8.587  0.2836 -0.0904  0.0316
  491DPPI   C3B 7683   0.618  12.176   8.235 -0.0919 -0.1725  0.0256
  491DPPI   C4B 7684   0.302  12.434   7.981  0.2617 -0.1539 -0.1762
  492DPPI    C1 7685   6.229   3.933  10.359  0.1803  0.0037  0.2223
  492DPPI    C2 7686   6.051   4.030  10.014  0.2024 -0.1122  0.1774
  492DPPI    C3 7687   5.890   4.145  10.362  0.0962 -0.1278  0.1337
  492DPPI   PO4 7688   6.420   3.795  10.205 -0.2400 -0.2285 -0.0120
  492DPPI   GL1 7689   6.431   3.839   9.725  0.4781  0.0486 -0.0753
  492DPPI   GL2 7690   6.772   3.666   9.743  0.1918 -0.0403  0.2228
  492DPPI   C1A 7691   6.357   3.993   9.310  0.0667 -0.0949  0.1420
  492DPPI   C2A 7692   6.402   4.067   8.864 -0.0616 -0.0341 -0.0264
  492DPPI   C3A 7693   6.495   4.407   8.491 -0.0558 -0.0533  0.3668
  492DPPI   C4A 7694   6.551   4.398   7.996  0.0210  0.2559  0.0707
  492DPPI   C1B 7695   6.744   3.551   9.309  0.0778  0.3516  0.0947
  492DPPI   C2B 7696   6.697   3.323   8.867 -0.0314  0.2959  0.0261
  492DPPI   C3B 7697   6.605   3.403   8.457  0.4195  0.0652 -0.0832
  492DPPI   C4B 7698   6.808   3.707   8.197  0.0197  0.1696 -0.1693
  493DPPI    C1 7699   8.679   0.474  10.802  0.0040 -0.0444 -0.0329
  493DPPI    C2 7700   8.645   0.692  11.135  0.3219 -0.0218 -0.0121
  493DPPI    C3 7701   8.749   0.307  11.158 -0.2046 -0.1738 -0.0511
  493DPPI   PO4 7702   8.615   0.646  10.608 -0.0560 -0.0425  0.1540
  493DPPI   GL1 7703   8.915   0.782  10.209 -0.1228 -0.3030  0.2189
  493DPPI   GL2 7704   9.008   0.545   9.992  0.4327 -0.2101  0.1643
  493DPPI   C1A 7705   9.351   0.905  10.035 -0.1194  0.1591  0.0772
  493DPPI   C2A 7706   9.760   1.004   9.708  0.0063 -0.1463  0.1239
  493DPPI   C3A 7707  10.066   1.132   9.476 -0.0469  0.1362  0.0830
  493DPPI   C4A 7708  10.335   1.248   9.045 -0.0399  0.0832  0.1552
  493DPPI   C1B 7709   8.803   0.547   9.609 -0.4381 -0.1437 -0.1252
  493DPPI   C2B 7710   8.789   0.665   9.217 -0.1111  0.1486  0.0281
  493DPPI   C3B 7711   9.150   0.707   8.988 -0.1037  0.1926 -0.2733
  493DPPI   C4B 7712   9.451   0.477   8.743 -0.1935 -0.0786 -0.2183
  494DPPI    C1 7713  15.995  10.230  10.106 -0.1581  0.2411  0.1096
  494DPPI    C2 7714  16.165  10.248  10.468  0.0146  0.3519  0.0244
  494DPPI    C3 7715  15.802  10.084  10.425  0.1921 -0.0959  0.1739
  494DPPI   PO4 7716  16.227  10.406   9.986  0.2461 -0.0625  0.0630
  494DPPI   GL1 7717  16.332  10.750   9.758 -0.1724  0.3229 -0.1500
  494DPPI   GL2 7718  16.072  10.940   9.926 -0.0014 -0.0347 -0.1641
  494DPPI   C1A 7719  16.277  10.884   9.351  0.1641  0.2515 -0.3617
  494DPPI   C2A 7720  16.232  10.627   8.934  0.2506  0.1035  0.0244
  494DPPI   C3A 7721  16.073  10.742   8.501  0.0219  0.3458 -0.0284
  494DPPI   C4A 7722  16.032  10.699   8.023 -0.3423 -0.0708 -0.2310
  494DPPI   C1B 7723  15.880  11.116   9.543  0.0473 -0.0149 -0.2477
  494DPPI   C2B 7724  16.035  11.262   9.161 -0.0489  0.1777  0.1354
  494DPPI   C3B 7725  16.120  11.210   8.660  0.4284 -0.1630 -0.3402
  494DPPI   C4B 7726  16.172  11.241   8.278  0.2343  0.1386  0.2116
  495DPPI    C1 7727  12.726  10.121  10.335  0.0364  0.1115  0.0270
  495DPPI    C2 7728  12.938  10.436  10.462 -0.0443  0.1424  0.0856
  495DPPI    C3 7729  13.104  10.072  10.455  0.0080  0.1652  0.1391
  495DPPI   PO4 7730  12.603  10.218  10.071  0.0313 -0.1673 -0.0779
  495DPPI   GL1 7731  12.503  10.476   9.751  0.0928  0.3832 -0.1286
  495DPPI   GL2 7732  12.607  10.787   9.771 -0.0815 -0.2396  0.0737
  495DPPI   C1A 7733  12.238  10.559   9.494  0.0844  0.2552  0.1246
  495DPPI   C2A 7734  12.058  10.837   9.188 -0.0493 -0.1119  0.0991
  495DPPI   C3A 7735  11.859  10.940   8.886  0.0556  0.0921 -0.1355
  495DPPI   C4A 7736  11.758  11.212   8.552  0.2984 -0.1440  0.2610
  495DPPI   C1B 7737  12.630  10.695   9.320  0.0939  0.1480  0.3035
  495DPPI   C2B 7738  12.663  10.688   8.887  0.3757  0.1492 -0.0856
  495DPPI   C3B 7739  12.925  10.579   8.610 -0.0116 -0.2490 -0.0505
  495DPPI   C4B 7740  13.023  10.510   8.165 -0.0777 -0.0141  0.4703
  496DPPI    C1 7741   6.654   0.196  10.343 -0.4305  0.0166  0.3433
  496DPPI    C2 7742   6.713  -0.152  10.531 -0.1651  0.0903  0.4010
  496DPPI    C3 7743   6.866   0.186  10.683  0.2523  0.1194 -0.0600
  496DPPI   PO4 7744   6.738   0.225  10.061  0.2831 -0.1588 -0.4012
  496DPPI   GL1 7745   6.850  -0.033   9.731 -0.2064  0.1410 -0.0086
  496DPPI   GL2 7746   7.047   0.197   9.596 -0.2867  0.0249 -0.2985
  496DPPI   C1A 7747   6.552  -0.010   9.323  0.2937 -0.0478  0.0626
  496DPPI   C2A 7748   6.561  -0.012   8.902 -0.1822  0.0654  0.0170
  496DPPI   C3A 7749   6.840  -0.002   8.576 -0.3976 -0.2876  0.1432
  496DPPI   C4A 7750   6.849   0.115   8.166  0.2155 -0.1817  0.1005
  496DPPI   C1B 7751   7.113   0.135   9.131 -0.0161  0.2213 -0.2461
  496DPPI   C2B 7752   7.305   0.185   8.727  0.5482 -0.1212  0.2113
  496DPPI   C3B 7753   7.355   0.054   8.282  0.0993 -0.0208  0.1765
  496DPPI   C4B 7754   7.631   0.103   7.904 -0.3908 -0.0961  0.1461
  497DPPI    C1 7755   3.926  14.314  10.153 -0.2211  0.1418 -0.1451
  497DPPI    C2 7756   3.574  14.413  10.315 -0.1732 -0.1480  0.1447
  497DPPI    C3 7757   3.890  14.346  10.550 -0.0024 -0.1931 -0.0947
  497DPPI   PO4 7758   3.979  14.551  10.033  0.0325  0.1584  0.0945
  497DPPI   GL1 7759   3.857  14.769   9.713 -0.1418 -0.1757 -0.2328
  497DPPI   GL2 7760   4.017  15.132   9.774 -0.0927 -0.0053  0.1999
  497DPPI   C1A 7761   3.781  14.855   9.312  0.0062 -0.0844 -0.1541
  497DPPI   C2A 7762   3.690  14.813   8.877 -0.1323 -0.0124  0.3131
  497DPPI   C3A 7763   3.716  14.643   8.484 -0.0484  0.1464  0.0915
  497DPPI   C4A 7764   3.760  14.656   8.100 -0.0809 -0.2432  0.1084
  497DPPI   C1B 7765   4.202  15.306   9.468  0.0016  0.1540 -0.0534
  497DPPI   C2B 7766   4.252  15.338   9.018  0.2395  0.2166  0.1749
  497DPPI   C3B 7767   4.367  15.596   8.589 -0.0586 -0.0181 -0.1384
  497DPPI   C4B 7768   4.373  15.540   8.081  0.3494 -0.1905  0.0770
  498DPPI    C1 7769   0.622  15.776  10.101 -0.1051  0.1597  0.0114
  498DPPI    C2 7770   0.411  15.654  10.418 -0.2759  0.0689 -0.1356
  498DPPI    C3 7771   0.609  16.001  10.431 -0.0868 -0.0467  0.1546
  498DPPI   PO4 7772   0.375  15.662   9.931 -0.0175 -0.1647  0.0599
  498DPPI   GL1 7773   0.288  15.844   9.483 -0.1288  0.1397  0.2502
  498DPPI   GL2 7774   0.663  15.892   9.569 -0.0982  0.4534  0.1523
  498DPPI   C1A 7775   0.189  15.897   9.047  0.1964  0.1245  0.0116
  498DPPI   C2A 7776   0.370  15.754   8.784  0.2338 -0.2549  0.1282
  498DPPI   C3A 7777   0.416  15.713   8.272  0.1353  0.1466  0.1427
  498DPPI   C4A 7778   0.203  15.803   7.889 -0.0008  0.0584  0.0636
  498DPPI   C1B 7779   0.610  16.015   9.135  0.1484  0.1198 -0.3610
  498DPPI   C2B 7780   0.718  16.087   8.705  0.1140 -0.0171  0.2746
  498DPPI   C3B 7781   0.772  16.115   8.267  0.4930 -0.3094 -0.2211
  498DPPI   C4B 7782   1.197  16.072   8.166  0.0088 -0.0555  0.0134
  499DPPI    C1 7783   4.152  10.598   9.781 -0.2286  0.0226  0.3715
  499DPPI    C2 7784   4.465  10.386   9.911 -0.0801  0.1345  0.2021
  499DPPI    C3 7785   4.249  10.602  10.169 -0.0344  0.0363  0.3239
  499DPPI   PO4 7786   4.083  10.318   9.528  0.0346 -0.2343 -0.1191
  499DPPI   GL1 7787   3.682  10.123   9.433 -0.0749 -0.0812  0.1346
  499DPPI   GL2 7788   3.527   9.873   9.469 -0.0353 -0.1385  0.4231
  499DPPI   C1A 7789   3.642  10.215   9.057  0.0697  0.0200 -0.2344
  499DPPI   C2A 7790   3.640  10.347   8.583  0.2058  0.3982  0.3547
  499DPPI   C3A 7791   3.693  10.186   8.248  0.3951  0.0695  0.1080
  499DPPI   C4A 7792   3.630   9.980   7.853 -0.2747  0.2203 -0.0877
  499DPPI   C1B 7793   3.518   9.760   8.970 -0.0461  0.2411  0.0234
  499DPPI   C2B 7794   3.479   9.768   8.486 -0.1040 -0.5142 -0.1643
  499DPPI   C3B 7795   3.320   9.680   8.129 -0.2435  0.2724  0.0174
  499DPPI   C4B 7796   2.905   9.601   7.986 -0.0460 -0.0530 -0.0204
  500DPPI    C1 7797   3.254  12.559  10.093 -0.0237 -0.0657  0.1124
  500DPPI    C2 7798   2.882  12.592  10.236 -0.0681  0.1148 -0.0400
  500DPPI    C3 7799   3.193  12.580  10.488 -0.1551  0.2827  0.0768
  500DPPI   PO4 7800   3.238  12.355   9.886  0.0047 -0.2530  0.4513
  500DPPI   GL1 7801   3.142  12.389   9.451 -0.1899 -0.0236  0.0297
  500DPPI   GL2 7802   3.082  12.018   9.256  0.0136 -0.0183  0.3060
  500DPPI   C1A 7803   3.204  12.533   9.026  0.0532 -0.0766 -0.0691
  500DPPI   C2A 7804   3.138  12.604   8.659 -0.2365 -0.1963 -0.0190
  500DPPI   C3A 7805   3.066  12.743   8.254 -0.1188 -0.1415 -0.1319
  500DPPI   C4A 7806   3.056  12.656   7.845  0.1667 -0.2718  0.0264
  500DPPI   C1B 7807   3.050  11.993   8.799  0.1269 -0.3610  0.1800
  500DPPI   C2B 7808   3.024  12.057   8.430 -0.1167 -0.2136 -0.0807
  500DPPI   C3B 7809   3.027  11.816   8.071  0.3069  0.1645  0.0157
  500DPPI   C4B 7810   3.065  11.661   7.640  0.0368 -0.2400  0.0174
  501DPPI    C1 7811   1.162   0.499  10.109  0.1691  0.0267 -0.1334
  501DPPI    C2 7812   0.823   0.320  10.224  0.1518  0.2193  0.1245
  501DPPI    C3 7813   1.110   0.108  10.042 -0.0573  0.0303  0.0105
  501DPPI   PO4 7814   1.129   0.780   9.963 -0.0955  0.1104  0.1683
  501DPPI   GL1 7815   1.419   0.900   9.594 -0.2882 -0.0361  0.1359
  501DPPI   GL2 7816   1.724   1.028   9.555  0.0511 -0.0335  0.2045
  501DPPI   C1A 7817   1.352   0.831   9.139  0.0223  0.1220 -0.1039
  501DPPI   C2A 7818   1.335   0.629   8.772 -0.1377  0.0646 -0.3911
  501DPPI   C3A 7819   1.462   0.544   8.339  0.2289 -0.0570  0.1990
  501DPPI   C4A 7820   1.391   0.838   8.009 -0.0672 -0.0213 -0.1442
  501DPPI   C1B 7821   1.693   1.227   9.125 -0.1456 -0.2211 -0.0515
  501DPPI   C2B 7822   1.643   1.126   8.741 -0.1788 -0.0266 -0.0915
  501DPPI   C3B 7823   1.839   0.962   8.502 -0.2402  0.4491  0.0127
  501DPPI   C4B 7824   1.839   0.947   8.040 -0.1003  0.1736 -0.1012
  502DPPI    C1 7825   1.454  10.531   9.430 -0.0675 -0.0743  0.0285
  502DPPI    C2 7826   1.787  10.314   9.470 -0.0553 -0.0838 -0.1194
  502DPPI    C3 7827   1.489  10.181   9.239 -0.1866 -0.1037  0.0596
  502DPPI   PO4 7828   1.546  10.723   9.338 -0.0798  0.1919  0.0394
  502DPPI   GL1 7829   1.750  10.763   9.020  0.0867 -0.0467 -0.1170
  502DPPI   GL2 7830   1.889  11.019   8.869  0.0958 -0.3360 -0.2839
  502DPPI   C1A 7831   1.492  10.854   8.661  0.0124  0.1651  0.1630
  502DPPI   C2A 7832   1.441  10.934   8.208 -0.2921  0.0256  0.2334
  502DPPI   C3A 7833   1.472  11.007   7.719 -0.0575  0.1207 -0.1336
  502DPPI   C4A 7834   1.123  11.012   7.428  0.1191  0.0089  0.1166
  502DPPI   C1B 7835   1.868  11.100   8.438  0.1615  0.1053 -0.1111
  502DPPI   C2B 7836   1.833  11.253   8.020  0.2455  0.1792  0.1170
  502DPPI   C3B 7837   1.727  11.468   7.674  0.1222 -0.1318 -0.3597
  502DPPI   C4B 7838   1.522  11.811   7.596  0.0142 -0.2789  0.0153
  503DPPI    C1 7839  16.485   3.189  10.152 -0.1471 -0.0607 -0.0339
  503DPPI    C2 7840  16.413   3.471  10.426  0.0883 -0.0589  0.0281
  503DPPI    C3 7841  16.191   3.139  10.418  0.0239 -0.0199  0.1653
  503DPPI   PO4 7842  16.493   3.333   9.952 -0.0026 -0.4841  0.1044
  503DPPI   GL1 7843  16.421   3.453   9.600  0.1183 -0.1023  0.1874
  503DPPI   GL2 7844  16.572   3.768   9.504 -0.1063  0.0501  0.1598
  503DPPI   C1A 7845  16.161   3.156   9.418  0.0025  0.0180 -0.0590
  503DPPI   C2A 7846  16.017   2.997   9.075  0.1360  0.3932 -0.2863
  503DPPI   C3A 7847  15.763   2.756   8.846  0.0996  0.1611  0.2478
  503DPPI   C4A 7848  15.567   2.280   8.746 -0.1347  0.1303  0.0088
  503DPPI   C1B 7849  16.358   3.748   9.133  0.0405  0.0750 -0.3693
  503DPPI   C2B 7850  16.112   4.087   8.797 -0.1092  0.1435 -0.1180
  503DPPI   C3B 7851  16.036   4.497   8.652  0.3126  0.3231 -0.0308
  503DPPI   C4B 7852  15.924   4.595   8.169  0.3456  0.1033  0.0638
  504DPPI    C1 7853  12.346   6.326  10.568  0.2984  0.1702  0.1887
  504DPPI    C2 7854  12.442   6.046  10.837  0.0162 -0.0542  0.0617
  504DPPI    C3 7855  12.314   6.404  10.959 -0.1384 -0.1645  0.2281
  504DPPI   PO4 7856  12.352   6.129  10.315 -0.2302 -0.1054  0.2311
  504DPPI   GL1 7857  12.222   6.025   9.850 -0.0534  0.0678  0.0301
  504DPPI   GL2 7858  12.242   5.832   9.684 -0.0954 -0.2860  0.0782
  504DPPI   C1A 7859  12.053   6.309   9.557 -0.2127  0.1274 -0.1037
  504DPPI   C2A 7860  11.968   6.436   9.140 -0.1344  0.0970 -0.0180
  504DPPI   C3A 7861  11.988   6.553   8.705  0.0884  0.0159  0.1610
  504DPPI   C4A 7862  12.022   6.849   8.358 -0.0914 -0.3708  0.0809
  504DPPI   C1B 7863  12.133   5.900   9.287 -0.0918  0.2208  0.2743
  504DPPI   C2B 7864  12.104   6.017   8.813  0.5997 -0.0172  0.0054
  504DPPI   C3B 7865  12.043   6.152   8.377 -0.0149  0.3831  0.4541
  504DPPI   C4B 7866  11.869   6.392   8.162  0.2546 -0.0512  0.1955
  505DPPI    C1 7867   5.851  17.047  10.311  0.0388  0.0658 -0.0460
  505DPPI    C2 7868   5.834  17.289  10.629  0.1811 -0.2745  0.2264
  505DPPI    C3 7869   6.184  17.222  10.447  0.0488  0.1855 -0.2207
  505DPPI   PO4 7870   5.570  17.110  10.184 -0.0312 -0.1620 -0.1028
  505DPPI   GL1 7871   5.503  17.102   9.736  0.1917 -0.2610 -0.0793
  505DPPI   GL2 7872   5.629  16.784   9.806  0.0998 -0.0276 -0.2768
  505DPPI   C1A 7873   5.651  17.358   9.529  0.0717  0.1843 -0.2491
  505DPPI   C2A 7874   5.658  17.498   9.082 -0.2184 -0.0129 -0.1503
  505DPPI   C3A 7875   5.637  17.618   8.665  0.2059  0.1599  0.0703
  505DPPI   C4A 7876   5.663  17.533   8.186  0.1558 -0.4933  0.0668
  505DPPI   C1B 7877   5.910  16.927   9.466  0.0487  0.2649  0.4823
  505DPPI   C2B 7878   5.893  17.081   9.047  0.0760 -0.3535 -0.1260
  505DPPI   C3B 7879   6.040  17.270   8.590 -0.0164 -0.1042 -0.0109
  505DPPI   C4B 7880   6.472  17.353   8.465  0.3643  0.0427  0.1583
  506DPPI    C1 7881  12.764   5.265  10.428 -0.3164  0.0430 -0.1699
  506DPPI    C2 7882  12.500   4.975  10.505 -0.2833  0.0443 -0.0502
  506DPPI    C3 7883  12.792   5.054  10.766 -0.1483  0.0250 -0.1943
  506DPPI   PO4 7884  12.728   5.236  10.102 -0.0586  0.2218 -0.2505
  506DPPI   GL1 7885  12.657   5.053   9.755  0.1147 -0.0275  0.1974
  506DPPI   GL2 7886  12.751   4.868   9.478  0.3642 -0.2484 -0.0486
  506DPPI   C1A 7887  12.289   5.210   9.494 -0.1255 -0.1682 -0.0634
  506DPPI   C2A 7888  12.042   5.049   9.068 -0.1184 -0.0323  0.0346
  506DPPI   C3A 7889  11.822   5.141   8.574 -0.1867 -0.2512  0.2511
  506DPPI   C4A 7890  11.837   4.720   8.298  0.0491  0.3091 -0.1055
  506DPPI   C1B 7891  12.538   4.899   9.104  0.3023 -0.0669 -0.0301
  506DPPI   C2B 7892  12.440   5.221   8.736 -0.0149 -0.1597  0.0688
  506DPPI   C3B 7893  12.247   5.283   8.365 -0.2840 -0.0307  0.1247
  506DPPI   C4B 7894  12.378   5.263   7.874  0.0931 -0.1116 -0.3874
  507DPPI    C1 7895  11.365   4.911  10.054 -0.0291 -0.0413  0.1196
  507DPPI    C2 7896  11.377   5.127  10.391 -0.1960  0.3002 -0.0872
  507DPPI    C3 7897  11.683   5.140  10.134 -0.0042 -0.0733  0.1124
  507DPPI   PO4 7898  11.328   4.630  10.126  0.3062 -0.0672 -0.5578
  507DPPI   GL1 7899  11.161   4.277   9.865  0.0563 -0.2811 -0.1285
  507DPPI   GL2 7900  10.917   4.065   9.911 -0.0113  0.3226  0.1122
  507DPPI   C1A 7901  11.483   4.535   9.571  0.2676 -0.1820  0.2454
  507DPPI   C2A 7902  11.775   4.431   9.177  0.1253 -0.1006  0.2399
  507DPPI   C3A 7903  12.222   4.457   8.965 -0.1729  0.0755  0.0179
  507DPPI   C4A 7904  12.706   4.430   9.078  0.1937  0.1354  0.0090
  507DPPI   C1B 7905  10.854   3.721   9.602  0.0935  0.3019 -0.0303
  507DPPI   C2B 7906  10.599   3.648   9.226  0.2348  0.1395  0.0497
  507DPPI   C3B 7907  10.631   3.680   8.856 -0.0487  0.1134  0.0468
  507DPPI   C4B 7908  10.275   3.795   8.495  0.2301  0.2660 -0.0125
  508DPPI    C1 7909  12.362   9.676  10.401  0.1064  0.1344 -0.0220
  508DPPI    C2 7910  12.155  10.002  10.294 -0.2338 -0.0592  0.0304
  508DPPI    C3 7911  11.985   9.725  10.526 -0.0382 -0.3997 -0.2228
  508DPPI   PO4 7912  12.508   9.596  10.233  0.1800 -0.1548  0.0642
  508DPPI   GL1 7913  12.523   9.496   9.823  0.3516  0.2174  0.0311
  508DPPI   GL2 7914  12.692   9.813   9.782 -0.3258  0.5417 -0.0679
  508DPPI   C1A 7915  12.258   9.388   9.420  0.2719  0.0522  0.3177
  508DPPI   C2A 7916  12.146   9.354   8.933  0.0900  0.2616 -0.1021
  508DPPI   C3A 7917  12.030   9.215   8.551 -0.0395 -0.2072  0.3217
  508DPPI   C4A 7918  11.842   9.217   8.142  0.1553  0.0151  0.0580
  508DPPI   C1B 7919  12.672   9.631   9.341 -0.2459  0.0290  0.1939
  508DPPI   C2B 7920  12.529   9.794   8.988  0.0906  0.2252 -0.3269
  508DPPI   C3B 7921  12.655   9.681   8.558  0.1627  0.1579 -0.4599
  508DPPI   C4B 7922  12.377   9.478   8.296 -0.1259  0.1634  0.0222
  509DPPI    C1 7923  14.138  11.526  10.300  0.0581  0.1336 -0.1029
  509DPPI    C2 7924  14.071  11.744  10.629 -0.0247 -0.0358 -0.0060
  509DPPI    C3 7925  13.816  11.453  10.526  0.2032 -0.2387 -0.0080
  509DPPI   PO4 7926  14.116  11.568  10.021  0.0605  0.0329 -0.0532
  509DPPI   GL1 7927  14.113  11.454   9.620 -0.1761 -0.0641 -0.0336
  509DPPI   GL2 7928  13.752  11.564   9.669 -0.1297 -0.2450 -0.1125
  509DPPI   C1A 7929  14.108  11.424   9.145  0.0054 -0.0315 -0.0678
  509DPPI   C2A 7930  14.181  11.436   8.785  0.0712 -0.3732  0.1892
  509DPPI   C3A 7931  14.314  11.334   8.457  0.0997  0.2546 -0.1100
  509DPPI   C4A 7932  14.371  10.955   8.438 -0.0416  0.0005  0.3048
  509DPPI   C1B 7933  13.804  11.769   9.357 -0.1010  0.3044 -0.0869
  509DPPI   C2B 7934  13.832  11.813   8.879 -0.3604 -0.0569  0.1398
  509DPPI   C3B 7935  13.804  11.912   8.481 -0.0585 -0.0480 -0.1972
  509DPPI   C4B 7936  13.987  11.709   8.133 -0.3146  0.0134 -0.0630
  510DPPI    C1 7937  14.409   4.064  10.330  0.0142 -0.2689 -0.0105
  510DPPI    C2 7938  14.804   4.035  10.271 -0.0003 -0.1141 -0.1943
  510DPPI    C3 7939  14.660   4.090  10.640  0.1439 -0.2583 -0.1154
  510DPPI   PO4 7940  14.303   4.204  10.098 -0.1192 -0.3444 -0.1568
  510DPPI   GL1 7941  14.322   4.321   9.705  0.2311  0.0782 -0.1756
  510DPPI   GL2 7942  14.031   4.498   9.673 -0.3986 -0.2875  0.0072
  510DPPI   C1A 7943  14.396   4.015   9.404 -0.0666 -0.5006  0.0474
  510DPPI   C2A 7944  14.317   4.062   8.996 -0.0856  0.1332  0.2559
  510DPPI   C3A 7945  14.208   4.001   8.525  0.0770 -0.4076  0.0966
  510DPPI   C4A 7946  14.095   4.071   8.076  0.2403 -0.1478  0.0738
  510DPPI   C1B 7947  13.720   4.556   9.454  0.3311 -0.1462 -0.1405
  510DPPI   C2B 7948  13.638   4.520   9.021 -0.0508 -0.2454 -0.0408
  510DPPI   C3B 7949  13.420   4.361   8.609  0.0174 -0.0834 -0.2020
  510DPPI   C4B 7950  13.134   4.146   8.302 -0.0427 -0.2454 -0.0306
  511DPPI    C1 7951  17.228  15.181  10.330  0.2877  0.0456 -0.0620
  511DPPI    C2 7952  16.944  15.243  10.605  0.1270  0.0217 -0.2207
  511DPPI    C3 7953  17.324  15.342  10.684  0.1035 -0.0980  0.0552
  511DPPI   PO4 7954  17.102  15.071  10.176  0.2024 -0.2900 -0.0209
  511DPPI   GL1 7955  16.941  14.885   9.891  0.1379  0.3427  0.1426
  511DPPI   GL2 7956  16.819  15.223   9.740  0.1066  0.2620  0.1280
  511DPPI   C1A 7957  16.811  14.783   9.510  0.3175  0.3277 -0.1299
  511DPPI   C2A 7958  16.691  14.841   9.075 -0.1713 -0.1555 -0.0940
  511DPPI   C3A 7959  16.602  15.130   8.790 -0.1176  0.3162 -0.0720
  511DPPI   C4A 7960  16.487  15.272   8.266  0.0302  0.3260  0.0438
  511DPPI   C1B 7961  16.640  15.424   9.342  0.2518 -0.1758 -0.0005
  511DPPI   C2B 7962  16.535  15.646   8.927 -0.1648 -0.0668 -0.4439
  511DPPI   C3B 7963  16.341  15.718   8.515 -0.1015 -0.0671  0.2142
  511DPPI   C4B 7964  16.143  15.647   8.114 -0.1028  0.0488 -0.1353
  512DPPI    C1 7965  11.410  16.215  11.072 -0.1518 -0.0602 -0.2011
  512DPPI    C2 7966  11.396  16.511  11.341  0.2193 -0.1134 -0.1179
  512DPPI    C3 7967  11.064  16.308  11.249  0.0546  0.0193  0.1709
  512DPPI   PO4 7968  11.585  16.331  10.927 -0.2332 -0.2667 -0.0452
  512DPPI   GL1 7969  11.799  16.573  10.576 -0.1206  0.3271 -0.1263
  512DPPI   GL2 7970  12.106  16.631  10.599  0.0694  0.0089 -0.0758
  512DPPI   C1A 7971  11.746  16.585  10.143 -0.2368  0.3863 -0.0568
  512DPPI   C2A 7972  11.546  16.331   9.854  0.2392 -0.1922  0.0427
  512DPPI   C3A 7973  11.695  16.105   9.498  0.0588  0.0637  0.0576
  512DPPI   C4A 7974  11.484  16.189   9.111  0.1189  0.0548  0.0701
  512DPPI   C1B 7975  12.322  16.820  10.310  0.2056 -0.2550 -0.3003
  512DPPI   C2B 7976  12.598  16.847   9.936  0.1897 -0.1422  0.0747
  512DPPI   C3B 7977  12.914  16.901   9.640 -0.0578  0.1295 -0.1743
  512DPPI   C4B 7978  13.107  16.933   9.318  0.0424  0.1946 -0.0061
  513PYPI    C1 7979   5.540  11.035  10.180  0.0250  0.2375 -0.0680
  513PYPI    C2 7980   5.792  11.148   9.891  0.0379  0.1555 -0.0890
  513PYPI    C3 7981   5.888  10.844  10.132 -0.0587  0.0972 -0.1230
  513PYPI   PO4 7982   5.312  11.078  10.050  0.1140  0.3102  0.0084
  513PYPI   GL1 7983   5.367  11.129   9.605 -0.0467 -0.0998 -0.0843
  513PYPI   GL2 7984   5.201  10.952   9.431 -0.0323  0.1636  0.2861
  513PYPI   C1A 7985   5.524  11.403   9.368  0.3283 -0.0536  0.2390
  513PYPI   C2A 7986   5.734  11.392   9.023 -0.1081  0.1183  0.3744
  513PYPI   D3A 7987   5.854  11.475   8.563  0.2165  0.0820  0.2653
  513PYPI   C4A 7988   5.594  11.511   8.177  0.0741  0.2167  0.0206
  513PYPI   C1B 7989   5.413  10.882   9.053  0.1992  0.1739  0.4052
  513PYPI   C2B 7990   5.639  10.975   8.688  0.2732 -0.2509  0.0278
  513PYPI   C3B 7991   5.596  11.002   8.277  0.0218 -0.0548  0.1203
  513PYPI   C4B 7992   5.532  11.132   7.905 -0.1160 -0.1447 -0.2944
  514PYPI    C1 7993   1.874  16.319  10.197 -0.2371  0.1498  0.0394
  514PYPI    C2 7994   1.536  16.332  10.411 -0.1780  0.1816  0.1317
  514PYPI    C3 7995   1.860  16.530  10.537 -0.1268  0.1569  0.0400
  514PYPI   PO4 7996   1.842  16.051  10.094 -0.1911  0.0301 -0.0731
  514PYPI   GL1 7997   2.016  15.993   9.569  0.1097  0.0797  0.0792
  514PYPI   GL2 7998   2.326  16.107   9.646  0.0137  0.3445 -0.1415
  514PYPI   C1A 7999   2.114  16.210   9.214  0.0415  0.1030  0.1616
  514PYPI   C2A 8000   2.255  16.295   8.789  0.0458  0.0593  0.0896
  514PYPI   D3A 8001   2.113  16.608   8.649 -0.3666  0.4450 -0.0811
  514PYPI   C4A 8002   2.005  16.817   8.366  0.0557  0.3673 -0.2151
  514PYPI   C1B 8003   2.609  16.437   9.477 -0.4028 -0.1292 -0.0732
  514PYPI   C2B 8004   2.698  16.292   9.011 -0.0861 -0.1173  0.2880
  514PYPI   C3B 8005   2.613  16.522   8.569 -0.1233 -0.1681 -0.0484
  514PYPI   C4B 8006   2.340  16.414   8.241 -0.2235  0.0798 -0.0357
  515PYPI    C1 8007   5.677   6.495  10.335 -0.2817  0.1234 -0.1524
  515PYPI    C2 8008   5.517   6.860  10.375  0.0147  0.2315  0.0907
  515PYPI    C3 8009   5.656   6.666  10.696  0.0807  0.0057 -0.0713
  515PYPI   PO4 8010   5.564   6.392  10.060  0.0021  0.0580 -0.0661
  515PYPI   GL1 8011   5.692   6.463   9.596  0.0336  0.2690 -0.1067
  515PYPI   GL2 8012   5.600   6.758   9.704  0.0429 -0.0522 -0.1638
  515PYPI   C1A 8013   5.706   6.583   9.126  0.2428 -0.0435 -0.1711
  515PYPI   C2A 8014   5.611   6.594   8.721  0.0182 -0.3082 -0.0380
  515PYPI   D3A 8015   5.745   6.632   8.286 -0.1125  0.1145 -0.1129
  515PYPI   C4A 8016   6.060   6.888   8.154  0.1378 -0.1263 -0.0902
  515PYPI   C1B 8017   5.219   6.841   9.369  0.0296 -0.1729  0.0649
  515PYPI   C2B 8018   4.944   6.754   9.057 -0.0043  0.0197 -0.0142
  515PYPI   C3B 8019   5.035   6.818   8.630 -0.0925  0.1874 -0.2302
  515PYPI   C4B 8020   5.244   6.635   8.178  0.1135  0.1956 -0.0009
  516PYPI    C1 8021  16.936  10.672  10.118  0.3190  0.2942 -0.2105
  516PYPI    C2 8022  17.001  10.974  10.372  0.1782  0.0985  0.0642
  516PYPI    C3 8023  17.120  10.604  10.467 -0.2129 -0.0440  0.0177
  516PYPI   PO4 8024  16.914  10.780   9.860 -0.0553 -0.2727  0.2815
  516PYPI   GL1 8025  16.897  10.595   9.386 -0.0929 -0.2675 -0.0136
  516PYPI   GL2 8026  16.827  10.882   9.426  0.0362 -0.1622  0.1363
  516PYPI   C1A 8027  16.651  10.299   9.052  0.1270  0.0132  0.4467
  516PYPI   C2A 8028  16.546  10.344   8.618  0.1259  0.2092 -0.0940
  516PYPI   D3A 8029  16.374  10.384   8.186 -0.0560 -0.1160 -0.1575
  516PYPI   C4A 8030  16.543  10.090   7.871 -0.0463  0.0676 -0.0441
  516PYPI   C1B 8031  16.744  10.898   9.019 -0.0562 -0.1651 -0.1436
  516PYPI   C2B 8032  16.569  10.995   8.723  0.0225  0.0225 -0.2996
  516PYPI   C3B 8033  16.491  10.860   8.214  0.3591 -0.1108  0.1371
  516PYPI   C4B 8034  16.423  10.920   7.792  0.3697  0.0135 -0.0838
  517PYPI    C1 8035  15.522   5.004   9.913 -0.1451 -0.0826  0.1206
  517PYPI    C2 8036  15.166   4.863  10.030 -0.0969 -0.1729  0.1597
  517PYPI    C3 8037  15.502   4.704  10.177 -0.0404 -0.0707  0.1422
  517PYPI   PO4 8038  15.456   5.081   9.616  0.3709 -0.1470 -0.2685
  517PYPI   GL1 8039  15.239   4.981   9.191 -0.0218 -0.0191  0.2723
  517PYPI   GL2 8040  15.439   4.721   9.159  0.3751  0.1425 -0.2117
  517PYPI   C1A 8041  15.386   4.971   8.755  0.0343  0.0482  0.1277
  517PYPI   C2A 8042  15.432   4.895   8.323  0.0770 -0.2462 -0.0111
  517PYPI   D3A 8043  15.632   5.001   7.986 -0.1334  0.2728 -0.0615
  517PYPI   C4A 8044  15.653   5.389   7.890 -0.0756  0.0783 -0.2138
  517PYPI   C1B 8045  15.581   4.401   8.974  0.0513  0.1173 -0.3004
  517PYPI   C2B 8046  15.555   4.407   8.488  0.0526 -0.0327 -0.2773
  517PYPI   C3B 8047  15.487   4.450   8.011  0.1638 -0.0887  0.2924
  517PYPI   C4B 8048  15.719   4.493   7.683  0.2860 -0.0967  0.1256
  518PYPI    C1 8049  17.448   8.328   9.734  0.3460  0.0872  0.3385
  518PYPI    C2 8050  17.267   8.438  10.073 -0.0892  0.0693  0.1188
  518PYPI    C3 8051  17.332   8.707   9.785 -0.1445 -0.0128  0.0294
  518PYPI   PO4 8052  17.421   8.087   9.641 -0.2972 -0.0918 -0.0962
  518PYPI   GL1 8053  17.370   8.048   9.242  0.2313  0.2761 -0.0405
  518PYPI   GL2 8054  17.594   7.926   9.072 -0.1146 -0.1488 -0.0347
  518PYPI   C1A 8055  17.240   8.190   8.831  0.0551  0.1555 -0.2584
  518PYPI   C2A 8056  17.128   8.071   8.427 -0.0515 -0.1796  0.1476
  518PYPI   D3A 8057  16.859   7.772   8.261 -0.0937 -0.1317 -0.1400
  518PYPI   C4A 8058  16.856   7.420   8.038  0.0856  0.1957 -0.0744
  518PYPI   C1B 8059  17.785   7.932   8.664  0.0494 -0.1791 -0.3215
  518PYPI   C2B 8060  17.784   7.980   8.214 -0.1845 -0.0670  0.0498
  518PYPI   C3B 8061  17.933   8.139   7.846  0.0835 -0.0531  0.1509
  518PYPI   C4B 8062  17.827   8.166   7.478 -0.1381  0.0587  0.0273
  519PYPI    C1 8063   9.685  17.434  10.472 -0.0726 -0.1285  0.0498
  519PYPI    C2 8064   9.507  17.152  10.693 -0.2311 -0.0267  0.0541
  519PYPI    C3 8065   9.794  17.381  10.853 -0.0515 -0.2317  0.0296
  519PYPI   PO4 8066   9.779  17.251  10.232 -0.0126  0.1783 -0.1840
  519PYPI   GL1 8067   9.758  17.392   9.847  0.0306 -0.1412 -0.0107
  519PYPI   GL2 8068   9.748  17.181   9.731  0.2935 -0.2165  0.1838
  519PYPI   C1A 8069   9.919  17.510   9.354 -0.0775 -0.0187  0.1999
  519PYPI   C2A 8070  10.042  17.376   9.003 -0.1877  0.3495 -0.1168
  519PYPI   D3A 8071  10.224  17.283   8.634 -0.4197  0.0488  0.0723
  519PYPI   C4A 8072  10.317  16.957   8.556 -0.0034 -0.2001  0.1261
  519PYPI   C1B 8073   9.873  16.918   9.372  0.0674 -0.1632 -0.1574
  519PYPI   C2B 8074   9.951  16.915   8.956  0.1916  0.3658  0.0898
  519PYPI   C3B 8075   9.803  16.810   8.578 -0.0968  0.1108  0.1793
  519PYPI   C4B 8076   9.714  16.655   8.073 -0.0223 -0.1156  0.2179
  520PYPI    C1 8077  17.764  17.038  10.481 -0.0372 -0.0835 -0.1632
  520PYPI    C2 8078  17.764  16.666  10.626  0.1057  0.0269  0.1272
  520PYPI    C3 8079  17.435  16.892  10.656 -0.0152 -0.1086 -0.1432
  520PYPI   PO4 8080  17.928  16.991  10.219  0.0305  0.0625 -0.0648
  520PYPI   GL1 8081  17.981  16.790   9.855  0.1362  0.0580 -0.1410
  520PYPI   GL2 8082  17.682  17.026   9.762 -0.2183  0.0450  0.0963
  520PYPI   C1A 8083  17.995  16.762   9.446 -0.5354 -0.0320 -0.1203
  520PYPI   C2A 8084  18.042  16.774   8.917 -0.0124  0.1105 -0.2671
  520PYPI   D3A 8085  18.084  16.798   8.461  0.1807  0.0163  0.0217
  520PYPI   C4A 8086  18.103  16.512   8.048 -0.4594  0.0400 -0.0324
  520PYPI   C1B 8087  17.689  17.081   9.290 -0.1334  0.1503  0.2624
  520PYPI   C2B 8088  17.703  17.139   8.831 -0.2831  0.0486  0.1573
  520PYPI   C3B 8089  17.642  17.060   8.426  0.1474  0.2172  0.0366
  520PYPI   C4B 8090  17.895  16.956   8.049 -0.4032 -0.0133  0.0610
  521PYPI    C1 8091   6.229   1.029  10.537 -0.0117 -0.0921  0.1338
  521PYPI    C2 8092   6.533   1.275  10.624  0.0219 -0.1006  0.0427
  521PYPI    C3 8093   6.353   1.068  10.915 -0.1470  0.1932  0.1513
  521PYPI   PO4 8094   6.286   1.014  10.226  0.0747 -0.1178 -0.0382
  521PYPI   GL1 8095   6.653   0.852   9.957 -0.0121 -0.0865  0.1788
  521PYPI   GL2 8096   6.985   0.686   9.827 -0.0125 -0.3614  0.0604
  521PYPI   C1A 8097   6.672   0.930   9.463 -0.0486 -0.0056  0.0995
  521PYPI   C2A 8098   6.804   0.919   9.079 -0.0410  0.1933  0.0346
  521PYPI   D3A 8099   6.819   1.036   8.604 -0.1202  0.0510 -0.3670
  521PYPI   C4A 8100   6.609   0.874   8.324  0.1750  0.0332 -0.1006
  521PYPI   C1B 8101   7.082   0.626   9.359 -0.0270 -0.1670  0.1089
  521PYPI   C2B 8102   7.294   0.704   8.982  0.1702  0.1319 -0.1285
  521PYPI   C3B 8103   7.597   0.574   8.616  0.0292  0.3200  0.1280
  521PYPI   C4B 8104   7.776   0.250   8.458 -0.1229 -0.2853 -0.1391
  522PYPI    C1 8105   4.055   3.823  10.070 -0.0831 -0.0558  0.0504
  522PYPI    C2 8106   3.738   3.901  10.301  0.0003  0.3494  0.0349
  522PYPI    C3 8107   4.084   4.091  10.366  0.2216 -0.0326  0.0029
  522PYPI   PO4 8108   3.925   3.708   9.781  0.1235  0.3416 -0.2001
  522PYPI   GL1 8109   4.191   3.469   9.473  0.2834 -0.0213 -0.0612
  522PYPI   GL2 8110   4.042   3.362   9.303 -0.0643  0.1390  0.0736
  522PYPI   C1A 8111   4.336   3.796   9.209 -0.1533 -0.1042 -0.0100
  522PYPI   C2A 8112   4.407   3.907   8.820  0.1807  0.3309  0.0665
  522PYPI   D3A 8113   4.246   3.793   8.426 -0.0655  0.1257 -0.1761
  522PYPI   C4A 8114   4.325   3.890   8.020  0.0486  0.1186 -0.0703
  522PYPI   C1B 8115   4.078   3.553   8.918 -0.2208 -0.1280  0.0703
  522PYPI   C2B 8116   3.875   3.459   8.568  0.0905  0.2059  0.0853
  522PYPI   C3B 8117   3.883   3.318   8.185  0.2032 -0.1852  0.2848
  522PYPI   C4B 8118   4.074   3.334   7.757  0.0613 -0.1545  0.0922
  523PYPI    C1 8119   4.105   5.921  10.163 -0.2030  0.1012  0.0712
  523PYPI    C2 8120   4.090   5.985  10.557 -0.1608  0.2175  0.0544
  523PYPI    C3 8121   4.325   5.697  10.410 -0.2340  0.1239  0.1195
  523PYPI   PO4 8122   3.946   6.216  10.028 -0.1942  0.3304  0.1955
  523PYPI   GL1 8123   4.059   6.295   9.692 -0.3120 -0.1257 -0.1602
  523PYPI   GL2 8124   4.446   6.229   9.853  0.1366 -0.0854 -0.2440
  523PYPI   C1A 8125   3.830   6.607   9.571 -0.2811  0.2412  0.1029
  523PYPI   C2A 8126   3.911   7.014   9.369 -0.0672  0.1089  0.1118
  523PYPI   D3A 8127   4.251   7.080   9.155  0.1689  0.2240  0.1428
  523PYPI   C4A 8128   4.439   6.865   8.839  0.2407  0.1245 -0.0293
  523PYPI   C1B 8129   4.439   6.069   9.460  0.0552  0.1458 -0.0622
  523PYPI   C2B 8130   4.212   5.979   9.066 -0.0218  0.0772  0.0235
  523PYPI   C3B 8131   3.904   5.917   8.835  0.1527 -0.0947 -0.0567
  523PYPI   C4B 8132   3.749   6.025   8.439  0.0563  0.1042 -0.2279
  524PYPI    C1 8133  10.898   7.688  10.407 -0.0069  0.0787 -0.0195
  524PYPI    C2 8134  10.963   8.080  10.453  0.1385  0.0570 -0.0348
  524PYPI    C3 8135  10.991   7.835  10.768 -0.3866  0.1163  0.0674
  524PYPI   PO4 8136  11.003   7.647  10.225 -0.2209 -0.2060  0.0872
  524PYPI   GL1 8137  11.316   7.518   9.879 -0.1539  0.1092 -0.0054
  524PYPI   GL2 8138  11.284   7.210  10.126  0.1104 -0.0623 -0.1442
  524PYPI   C1A 8139  11.503   7.663   9.537  0.1014 -0.1057  0.4047
  524PYPI   C2A 8140  11.614   7.584   9.026 -0.3702  0.1068 -0.1102
  524PYPI   D3A 8141  11.947   7.709   8.749 -0.2215 -0.2519 -0.0344
  524PYPI   C4A 8142  11.974   7.764   8.155  0.0285  0.0340 -0.1531
  524PYPI   C1B 8143  10.919   7.163   9.784 -0.0243  0.1863  0.1376
  524PYPI   C2B 8144  10.999   7.359   9.349 -0.1867 -0.0384 -0.1739
  524PYPI   C3B 8145  11.149   7.402   8.984 -0.0899 -0.2116 -0.0708
  524PYPI   C4B 8146  10.834   7.642   8.633  0.0421  0.0379  0.0019
  525PYPI    C1 8147   0.775   6.961   9.751 -0.2486  0.0565  0.0780
  525PYPI    C2 8148   0.392   7.053   9.823 -0.2827 -0.1479  0.1652
  525PYPI    C3 8149   0.668   7.108  10.107 -0.2981 -0.2837  0.2069
  525PYPI   PO4 8150   0.807   7.000   9.434  0.2739 -0.0108 -0.0714
  525PYPI   GL1 8151   0.636   6.650   9.147  0.1798  0.0359 -0.0491
  525PYPI   GL2 8152   0.730   6.450   9.039  0.4043  0.2505 -0.2102
  525PYPI   C1A 8153   0.298   6.799   8.886 -0.0050  0.0569  0.0083
  525PYPI   C2A 8154   0.223   6.903   8.489  0.2258  0.1945  0.5363
  525PYPI   D3A 8155   0.003   6.835   7.972 -0.0561  0.2934 -0.1741
  525PYPI   C4A 8156   0.139   6.505   7.653  0.0683 -0.3053  0.0527
  525PYPI   C1B 8157   0.652   6.591   8.595 -0.0313  0.0296 -0.1842
  525PYPI   C2B 8158   0.485   6.522   8.168  0.3816  0.1358 -0.0797
  525PYPI   C3B 8159   0.489   6.832   7.725 -0.3210 -0.0510 -0.1114
  525PYPI   C4B 8160   0.161   6.930   7.341  0.0096 -0.4806 -0.1216
  526PYPI    C1 8161  16.799   0.996  10.268  0.0977 -0.0488  0.0509
  526PYPI    C2 8162  16.571   0.905  10.584  0.0169 -0.1524 -0.0365
  526PYPI    C3 8163  16.941   0.756  10.555  0.0901 -0.0001  0.0957
  526PYPI   PO4 8164  16.637   0.886  10.090 -0.2644 -0.2467 -0.2173
  526PYPI   GL1 8165  16.764   0.967   9.705  0.2493  0.0707 -0.2366
  526PYPI   GL2 8166  16.788   0.622   9.660  0.0086  0.0597 -0.1234
  526PYPI   C1A 8167  16.521   0.940   9.297 -0.0353  0.1683 -0.0486
  526PYPI   C2A 8168  16.471   0.656   9.016  0.2363  0.1204  0.3386
  526PYPI   D3A 8169  16.524   0.454   8.704  0.1024  0.0730  0.0875
  526PYPI   C4A 8170  16.513  -0.036   8.666 -0.0050 -0.0686 -0.0382
  526PYPI   C1B 8171  16.929   0.668   9.281 -0.0992 -0.1356  0.0250
  526PYPI   C2B 8172  17.108   0.590   8.846  0.3047  0.0931 -0.1006
  526PYPI   C3B 8173  16.951   0.492   8.473  0.0081  0.0070  0.2050
  526PYPI   C4B 8174  17.008   0.056   8.269  0.0696 -0.0890 -0.4543
  527PYPI    C1 8175   5.103  10.170   9.575  0.0024  0.0570  0.1035
  527PYPI    C2 8176   4.822  10.095   9.849  0.2426 -0.0331  0.3289
  527PYPI    C3 8177   4.899   9.826   9.564  0.0540  0.0220  0.2245
  527PYPI   PO4 8178   5.010  10.452   9.505 -0.1456 -0.1101  0.1969
  527PYPI   GL1 8179   4.905  10.609   8.989  0.2360 -0.0564 -0.1666
  527PYPI   GL2 8180   5.134  10.410   9.014 -0.0354  0.1139  0.1287
  527PYPI   C1A 8181   4.701  10.467   8.664  0.0739  0.2855 -0.1073
  527PYPI   C2A 8182   4.763  10.421   8.219  0.2396 -0.0135 -0.1245
  527PYPI   D3A 8183   4.840  10.512   7.824  0.2760 -0.0801 -0.1346
  527PYPI   C4A 8184   4.759  10.746   7.387  0.2556  0.2158  0.1078
  527PYPI   C1B 8185   5.225  10.459   8.576  0.1725 -0.1615  0.0162
  527PYPI   C2B 8186   5.235  10.297   8.170 -0.3739 -0.0705 -0.1148
  527PYPI   C3B 8187   5.355  10.110   7.946 -0.0989 -0.0304  0.6279
  527PYPI   C4B 8188   5.399   9.662   7.821 -0.5139  0.0924  0.0141
  528PYPI    C1 8189  16.574   9.723  10.260  0.2626  0.1259 -0.1154
  528PYPI    C2 8190  16.526   9.874  10.627  0.1501 -0.1028 -0.0342
  528PYPI    C3 8191  16.894   9.831  10.475  0.1924  0.0745  0.0159
  528PYPI   PO4 8192  16.362   9.916  10.117 -0.0577  0.0385  0.0447
  528PYPI   GL1 8193  16.253   9.934   9.739 -0.0356 -0.0017  0.0833
  528PYPI   GL2 8194  16.051   9.808   9.735 -0.0583  0.1670 -0.1791
  528PYPI   C1A 8195  16.341   9.875   9.286  0.1652  0.3343 -0.0576
  528PYPI   C2A 8196  16.246  10.028   8.929 -0.2073  0.0978 -0.2508
  528PYPI   D3A 8197  16.097   9.993   8.626 -0.0062  0.2158  0.0030
  528PYPI   C4A 8198  16.230   9.869   8.244 -0.4032 -0.0455 -0.0356
  528PYPI   C1B 8199  15.837   9.714   9.342 -0.1902 -0.0414  0.0330
  528PYPI   C2B 8200  15.864   9.500   8.973  0.1991  0.0509 -0.2503
  528PYPI   C3B 8201  16.042   9.029   8.781 -0.1455 -0.1382  0.2143
  528PYPI   C4B 8202  16.006   8.667   8.864 -0.0608  0.0326  0.0442
  529PYPI    C1 8203   2.800  11.475   9.870 -0.0579  0.0809 -0.0450
  529PYPI    C2 8204   2.430  11.441  10.019  0.1210  0.0277  0.4026
  529PYPI    C3 8205   2.545  11.781   9.841 -0.2108 -0.0359  0.0540
  529PYPI   PO4 8206   3.020  11.337   9.678  0.2802 -0.1909 -0.0489
  529PYPI   GL1 8207   3.074  11.480   9.331  0.2340  0.0705 -0.1591
  529PYPI   GL2 8208   2.731  11.637   9.329 -0.2009  0.2028  0.1220
  529PYPI   C1A 8209   2.994  11.442   8.916 -0.2163 -0.0045 -0.1964
  529PYPI   C2A 8210   2.996  11.521   8.593 -0.1533 -0.2080  0.2155
  529PYPI   D3A 8211   3.387  11.736   8.400  0.0829  0.0276 -0.1771
  529PYPI   C4A 8212   3.526  11.854   7.970  0.1315 -0.1011  0.2654
  529PYPI   C1B 8213   2.583  11.907   8.973  0.3600 -0.2369 -0.1032
  529PYPI   C2B 8214   2.527  11.918   8.634 -0.0568  0.2589 -0.2233
  529PYPI   C3B 8215   2.581  11.904   8.203 -0.2263 -0.0691  0.0528
  529PYPI   C4B 8216   2.585  11.729   7.743 -0.1567 -0.1533 -0.0273
  530PYPI    C1 8217  13.596  18.461  10.789 -0.0393 -0.3796 -0.0840
  530PYPI    C2 8218  13.836  18.191  10.960 -0.0964 -0.4053 -0.0437
  530PYPI    C3 8219  13.597  18.417  11.187  0.1122 -0.1648 -0.0591
  530PYPI   PO4 8220  13.689  18.589  10.616 -0.1215 -0.0186 -0.3827
  530PYPI   GL1 8221  13.742  18.591  10.216  0.4138  0.1093  0.2368
  530PYPI   GL2 8222  13.682  18.345   9.904  0.1426 -0.0695 -0.1112
  530PYPI   C1A 8223  13.472  18.761   9.960 -0.4285  0.2130 -0.0177
  530PYPI   C2A 8224  13.382  18.577   9.550  0.0053  0.3923  0.1485
  530PYPI   D3A 8225  13.546  18.369   9.215  0.0354  0.0241 -0.4397
  530PYPI   C4A 8226  13.196  18.260   9.031 -0.0357 -0.2971  0.0751
  530PYPI   C1B 8227  13.639  18.042   9.575  0.1332 -0.3775  0.0035
  530PYPI   C2B 8228  13.458  17.886   9.249  0.1373 -0.0135 -0.0522
  530PYPI   C3B 8229  13.356  17.807   8.907  0.3000  0.1039 -0.3612
  530PYPI   C4B 8230  13.298  17.604   8.533 -0.1704 -0.1121 -0.2128
  531PYPI    C1 8231   6.778   1.285  10.216  0.3404 -0.2198 -0.0395
  531PYPI    C2 8232   6.949   1.502  10.506  0.1661 -0.2605  0.0959
  531PYPI    C3 8233   6.705   1.678  10.242  0.1131 -0.2720  0.1374
  531PYPI   PO4 8234   6.994   1.188  10.071  0.0956 -0.2314 -0.3006
  531PYPI   GL1 8235   6.974   1.297   9.687  0.0284  0.0658  0.0263
  531PYPI   GL2 8236   7.131   1.089   9.517 -0.0468  0.1406  0.0801
  531PYPI   C1A 8237   6.678   1.397   9.357 -0.0485  0.1877 -0.4879
  531PYPI   C2A 8238   6.472   1.459   8.955  0.1614  0.2519  0.2138
  531PYPI   D3A 8239   6.302   1.781   8.659 -0.3325  0.1247  0.2737
  531PYPI   C4A 8240   6.130   2.102   8.829  0.1064  0.3497 -0.1473
  531PYPI   C1B 8241   7.207   1.209   9.066 -0.1369  0.1745  0.1419
  531PYPI   C2B 8242   7.317   1.028   8.648  0.0185  0.0171  0.1031
  531PYPI   C3B 8243   7.181   0.956   8.245  0.0627  0.1157 -0.1208
  531PYPI   C4B 8244   7.001   0.795   7.932 -0.0357 -0.0142 -0.0527
  532PYPI    C1 8245  18.287   6.659   9.676  0.1133  0.0495  0.0406
  532PYPI    C2 8246  18.060   6.785   9.981  0.0821 -0.2399  0.1399
  532PYPI    C3 8247  18.459   6.790  10.013  0.0819 -0.1284  0.1274
  532PYPI   PO4 8248  18.264   6.782   9.484  0.1673  0.3993  0.0459
  532PYPI   GL1 8249  18.464   6.682   9.069  0.2770 -0.3453  0.2828
  532PYPI   GL2 8250  18.201   6.676   8.963 -0.3070 -0.1028  0.0091
  532PYPI   C1A 8251  18.474   6.575   8.581 -0.0093  0.3917  0.3040
  532PYPI   C2A 8252  18.222   6.512   8.199 -0.0961  0.1874 -0.0701
  532PYPI   D3A 8253  18.153   6.425   7.816  0.2428  0.0760  0.1525
  532PYPI   C4A 8254  18.270   6.782   7.581  0.2238 -0.0334  0.0459
  532PYPI   C1B 8255  18.000   6.378   8.824  0.0018 -0.4684 -0.0526
  532PYPI   C2B 8256  17.755   6.069   8.621  0.0717  0.0921 -0.0148
  532PYPI   C3B 8257  17.520   5.901   8.459  0.0292 -0.1136  0.1344
  532PYPI   C4B 8258  17.466   5.859   8.046  0.0031  0.3121  0.2346
  533PYPI    C1 8259   5.204  14.247  10.201 -0.1128 -0.0607  0.0750
  533PYPI    C2 8260   5.214  14.528  10.486  0.2625 -0.2069  0.2136
  533PYPI    C3 8261   5.119  14.151  10.580 -0.1955 -0.1432  0.0360
  533PYPI   PO4 8262   5.337  14.304  10.051  0.1830 -0.1017  0.1165
  533PYPI   GL1 8263   5.385  14.523   9.806 -0.0746  0.0840  0.1607
  533PYPI   GL2 8264   5.129  14.674   9.764  0.1397  0.0628  0.1337
  533PYPI   C1A 8265   5.577  14.654   9.417 -0.0415 -0.0888 -0.0122
  533PYPI   C2A 8266   5.701  14.568   9.092 -0.0027 -0.3683  0.0916
  533PYPI   D3A 8267   5.907  14.185   9.029 -0.2085 -0.1407  0.3625
  533PYPI   C4A 8268   6.052  14.120   8.513  0.3217 -0.0289  0.0500
  533PYPI   C1B 8269   5.097  14.460   9.412  0.1307 -0.1569 -0.5073
  533PYPI   C2B 8270   5.234  14.401   9.054 -0.1059  0.2097 -0.1197
  533PYPI   C3B 8271   5.570  14.283   8.660 -0.1496  0.0351  0.1837
  533PYPI   C4B 8272   5.677  13.885   8.439  0.1871 -0.2358  0.0310
  534PYPI    C1 8273  10.438  11.323  10.283 -0.0165 -0.0835 -0.1500
  534PYPI    C2 8274  10.372  11.546  10.608 -0.3467 -0.1966 -0.1355
  534PYPI    C3 8275  10.719  11.351  10.566 -0.1791  0.0668 -0.0010
  534PYPI   PO4 8276  10.243  11.185  10.190 -0.1225  0.0550 -0.3383
  534PYPI   GL1 8277  10.393  10.904   9.782  0.1345  0.1253  0.0270
  534PYPI   GL2 8278  10.424  10.549   9.944  0.0157 -0.2702 -0.1186
  534PYPI   C1A 8279  10.454  11.056   9.357  0.1035  0.1559 -0.1619
  534PYPI   C2A 8280  10.614  11.122   9.011  0.3411 -0.0334  0.1769
  534PYPI   D3A 8281  10.806  11.159   8.556  0.4390  0.0394  0.1160
  534PYPI   C4A 8282  10.510  11.225   8.197  0.0176  0.0384  0.1045
  534PYPI   C1B 8283  10.172  10.539   9.527 -0.1205  0.0084  0.0228
  534PYPI   C2B 8284   9.870  10.524   9.208  0.0027  0.1131  0.0535
  534PYPI   C3B 8285   9.499  10.461   9.184 -0.0685 -0.4198 -0.2023
  534PYPI   C4B 8286   9.158  10.559   9.377  0.1374 -0.5155  0.0336
  535PYPI    C1 8287  13.361  17.457  11.107  0.1150 -0.0090  0.0874
  535PYPI    C2 8288  13.325  17.757  11.369 -0.0027  0.0852 -0.0355
  535PYPI    C3 8289  13.661  17.540  11.359 -0.0535 -0.0144  0.2929
  535PYPI   PO4 8290  13.378  17.466  10.870 -0.0637  0.1122 -0.2188
  535PYPI   GL1 8291  13.192  17.693  10.539 -0.1282 -0.0157 -0.2736
  535PYPI   GL2 8292  13.216  17.450  10.337 -0.1891  0.0368  0.0158
  535PYPI   C1A 8293  12.911  17.857  10.232  0.1207  0.1282  0.3360
  535PYPI   C2A 8294  12.749  17.941   9.811  0.3314  0.1476  0.0165
  535PYPI   D3A 8295  12.476  17.742   9.446  0.0072 -0.0428 -0.0993
  535PYPI   C4A 8296  12.217  18.054   9.320  0.1186  0.0547  0.1598
  535PYPI   C1B 8297  12.952  17.318  10.100  0.0320  0.1336  0.1042
  535PYPI   C2B 8298  12.692  17.377   9.775 -0.0223 -0.3499 -0.0241
  535PYPI   C3B 8299  12.746  17.361   9.320  0.1473 -0.0792  0.2382
  535PYPI   C4B 8300  12.537  17.343   8.876 -0.1116 -0.0310 -0.0621
  536PYPI    C1 8301  11.156   3.686  10.490  0.0711  0.1450  0.0888
  536PYPI    C2 8302  11.017   3.319  10.565  0.1236  0.1402  0.1644
  536PYPI    C3 8303  11.058   3.582  10.863  0.0449  0.2221  0.1036
  536PYPI   PO4 8304  10.934   3.755  10.282 -0.1889  0.2301 -0.2201
  536PYPI   GL1 8305  10.573   3.681  10.017 -0.2815 -0.4920 -0.4193
  536PYPI   GL2 8306  10.444   3.983  10.063 -0.0988 -0.1831  0.1465
  536PYPI   C1A 8307  10.433   3.431   9.736 -0.1028  0.1346  0.2763
  536PYPI   C2A 8308  10.426   3.137   9.499  0.0875 -0.1721 -0.0022
  536PYPI   D3A 8309  10.171   3.141   9.167 -0.2155  0.1580 -0.1025
  536PYPI   C4A 8310  10.168   3.474   8.909 -0.0430  0.2741 -0.1714
  536PYPI   C1B 8311  10.454   4.031   9.611  0.1753  0.4029  0.1276
  536PYPI   C2B 8312  10.763   4.245   9.417  0.0527 -0.1718  0.0683
  536PYPI   C3B 8313  10.904   4.182   8.946 -0.3060  0.0511  0.2010
  536PYPI   C4B 8314  10.924   3.958   8.522  0.1601  0.2519 -0.1668
  537PYPI    C1 8315   4.624  14.066  10.334  0.1596 -0.2968  0.3145
  537PYPI    C2 8316   4.234  13.982  10.371  0.0834 -0.1141 -0.0366
  537PYPI    C3 8317   4.462  14.022  10.697 -0.1949 -0.2032  0.1720
  537PYPI   PO4 8318   4.843  13.925  10.182  0.2613  0.4049  0.0072
  537PYPI   GL1 8319   4.810  13.734   9.756  0.2484  0.1792  0.2873
  537PYPI   GL2 8320   4.760  13.428   9.769  0.1460  0.1415  0.0083
  537PYPI   C1A 8321   4.976  13.975   9.375 -0.0932 -0.0003 -0.1401
  537PYPI   C2A 8322   4.780  14.046   9.055 -0.0562  0.0193 -0.0342
  537PYPI   D3A 8323   4.935  14.239   8.723  0.2541 -0.3357 -0.1652
  537PYPI   C4A 8324   5.004  14.087   8.310 -0.0677  0.6037 -0.0983
  537PYPI   C1B 8325   4.598  13.421   9.377 -0.1862 -0.0654 -0.1202
  537PYPI   C2B 8326   4.378  13.304   8.942  0.5158  0.2857  0.1787
  537PYPI   C3B 8327   4.346  13.328   8.423 -0.0088 -0.2519 -0.0535
  537PYPI   C4B 8328   4.520  13.093   7.883  0.1419 -0.1146  0.0939
  538PYPI    C1 8329   2.160   8.086   9.821 -0.0537  0.2705 -0.1288
  538PYPI    C2 8330   2.145   8.204  10.202  0.2134 -0.0587 -0.0111
  538PYPI    C3 8331   1.889   7.927  10.069  0.2418 -0.0801 -0.0213
  538PYPI   PO4 8332   2.355   8.267   9.693  0.0764  0.2766  0.0102
  538PYPI   GL1 8333   2.399   8.423   9.219 -0.1166  0.0313  0.0593
  538PYPI   GL2 8334   2.674   8.205   9.222  0.0887 -0.0264 -0.1854
  538PYPI   C1A 8335   2.286   8.238   8.857 -0.0139 -0.0553  0.1031
  538PYPI   C2A 8336   2.406   8.403   8.391 -0.0811 -0.0491  0.1584
  538PYPI   D3A 8337   2.636   8.534   8.023 -0.0144  0.0166  0.0865
  538PYPI   C4A 8338   2.991   8.712   8.029 -0.2129 -0.0994  0.1716
  538PYPI   C1B 8339   2.746   7.965   8.910  0.2311  0.2437  0.0293
  538PYPI   C2B 8340   2.585   7.963   8.505 -0.4449 -0.0312  0.0968
  538PYPI   C3B 8341   2.656   8.003   8.018  0.1389 -0.2397  0.0859
  538PYPI   C4B 8342   3.027   8.227   7.770 -0.0541 -0.2042  0.0002
  539PYPI    C1 8343  18.596  12.794  10.160  0.1848  0.0051  0.1128
  539PYPI    C2 8344  18.207  12.841  10.242  0.1562 -0.1808  0.0884
  539PYPI    C3 8345  18.472  12.800  10.540  0.1972  0.2301  0.1146
  539PYPI   PO4 8346  18.664  12.991  10.042 -0.2165  0.3331  0.0619
  539PYPI   GL1 8347  18.447  12.951   9.642 -0.4777 -0.1013  0.2881
  539PYPI   GL2 8348  18.787  12.912   9.449  0.0730 -0.0228  0.0494
  539PYPI   C1A 8349  18.315  12.744   9.260  0.0352 -0.2265  0.1414
  539PYPI   C2A 8350  18.353  12.820   8.857 -0.1290 -0.2130 -0.1245
  539PYPI   D3A 8351  18.289  13.021   8.501  0.2383 -0.0466  0.0646
  539PYPI   C4A 8352  17.987  12.784   8.220 -0.0501 -0.5045 -0.1305
  539PYPI   C1B 8353  18.827  12.717   9.118 -0.2686  0.0876 -0.1119
  539PYPI   C2B 8354  18.852  12.742   8.620 -0.1152 -0.1894 -0.3575
  539PYPI   C3B 8355  18.713  13.018   8.212 -0.3858  0.0308 -0.3253
  539PYPI   C4B 8356  18.447  13.221   8.004 -0.3304  0.2064  0.1666
  540ERGO   ROH 8357   3.342   7.721   9.137  0.0343  0.1626  0.0265
  540ERGO    R1 8358   3.475   7.808   8.903  0.1002  0.1178  0.0461
  540ERGO    R2 8359   3.690   7.673   8.795  0.0853  0.0535  0.0883
  540ERGO    R3 8360   3.538   7.675   8.570  0.1225  0.0860  0.0640
  540ERGO    R4 8361   3.801   7.584   8.480  0.1222  0.0682  0.0977
  540ERGO    R5 8362   3.686   7.750   8.398  0.1536  0.0833  0.0930
  540ERGO    C1 8363   3.723   7.535   8.085  0.1787  0.1073  0.0803
  540ERGO    C2 8364   3.632   7.430   7.684 -0.1806 -0.2017  0.1916
  541ERGO   ROH 8365   1.191  10.547   8.980 -0.3526  0.2746 -0.0801
  541ERGO    R1 8366   1.245  10.400   8.744 -0.0220  0.1023  0.0949
  541ERGO    R2 8367   1.079  10.407   8.523  0.0707 -0.3682 -0.0027
  541ERGO    R3 8368   1.307  10.477   8.394  0.0382 -0.1678  0.0453
  541ERGO    R4 8369   1.116  10.421   8.180  0.0876 -0.1554  0.0064
  541ERGO    R5 8370   1.314  10.334   8.202  0.1325 -0.0554 -0.0337
  541ERGO    C1 8371   1.352  10.495   7.859  0.0671  0.1564  0.0568
  541ERGO    C2 8372   1.306  10.534   7.497  0.0349 -0.1291 -0.2714
  542ERGO   ROH 8373   8.272  11.934   9.917  0.0037 -0.2358  0.0748
  542ERGO    R1 8374   8.193  11.862   9.654  0.1270 -0.2025  0.0267
  542ERGO    R2 8375   8.115  12.049   9.466  0.0202 -0.1907  0.0754
  542ERGO    R3 8376   8.308  11.929   9.316  0.1592  0.0219  0.0817
  542ERGO    R4 8377   8.138  12.067   9.121  0.0481 -0.1257  0.0813
  542ERGO    R5 8378   8.193  11.857   9.119  0.2593 -0.0676  0.0594
  542ERGO    C1 8379   8.332  11.965   8.780  0.1948  0.1118  0.0908
  542ERGO    C2 8380   8.283  12.120   8.598 -0.0867 -0.0626  0.1819
  543ERGO   ROH 8381   8.472  16.179   9.367  0.1060  0.1456 -0.1651
  543ERGO    R1 8382   8.391  16.253   9.106  0.3143  0.0873 -0.2487
  543ERGO    R2 8383   8.537  16.186   8.881  0.3133 -0.2763 -0.1522
  543ERGO    R3 8384   8.300  16.081   8.799  0.1894  0.0048 -0.1656
  543ERGO    R4 8385   8.453  16.120   8.552  0.2120 -0.0934 -0.1634
  543ERGO    R5 8386   8.252  16.194   8.594  0.2956  0.1143 -0.1287
  543ERGO    C1 8387   8.182  15.983   8.284  0.0368  0.2769 -0.1826
  543ERGO    C2 8388   8.149  15.820   7.961  0.2859 -0.0839  0.1671
  544ERGO   ROH 8389  14.407   1.258   9.860  0.0267 -0.1904  0.0270
  544ERGO    R1 8390  14.334   1.124   9.621  0.1287 -0.2088  0.0063
  544ERGO    R2 8391  14.087   1.158   9.501  0.1259 -0.3347 -0.0174
  544ERGO    R3 8392  14.238   1.221   9.284  0.1145 -0.2324  0.0025
  544ERGO    R4 8393  13.966   1.194   9.179  0.1053 -0.1983  0.0041
  544ERGO    R5 8394  14.144   1.092   9.106  0.1089 -0.1607 -0.0502
  544ERGO    C1 8395  14.038   1.273   8.788  0.0826 -0.0228  0.0354
  544ERGO    C2 8396  13.866   1.401   8.528 -0.1349 -0.0782  0.2704
  545ERGO   ROH 8397   2.350   4.606   9.105  0.0555 -0.2608  0.0023
  545ERGO    R1 8398   2.331   4.727   8.850  0.0841 -0.1573  0.0492
  545ERGO    R2 8399   2.506   4.668   8.645  0.0336 -0.1618  0.0110
  545ERGO    R3 8400   2.277   4.615   8.508 -0.0044 -0.0037  0.0114
  545ERGO    R4 8401   2.488   4.612   8.304  0.0082 -0.1981  0.0179
  545ERGO    R5 8402   2.305   4.730   8.300  0.0968 -0.0531 -0.0059
  545ERGO    C1 8403   2.262   4.530   7.977 -0.0422 -0.0709  0.0223
  545ERGO    C2 8404   2.355   4.627   7.615  0.0194 -0.1847  0.4015
  546ERGO   ROH 8405  13.034  12.611   9.640 -0.0753  0.0290 -0.0386
  546ERGO    R1 8406  13.122  12.586   9.372 -0.0349  0.0296 -0.0251
  546ERGO    R2 8407  12.950  12.525   9.164 -0.0039  0.0371 -0.0508
  546ERGO    R3 8408  13.054  12.751   9.055  0.0194  0.0347 -0.0347
  546ERGO    R4 8409  12.932  12.608   8.829 -0.1191  0.1272 -0.0230
  546ERGO    R5 8410  13.137  12.681   8.841 -0.0900  0.0623 -0.0888
  546ERGO    C1 8411  13.018  12.869   8.531 -0.1644  0.1775  0.0082
  546ERGO    C2 8412  13.008  12.948   8.109 -0.2404  0.1342 -0.0633
  547ERGO   ROH 8413  17.105  13.516   9.675 -0.1221 -0.0258  0.0702
  547ERGO    R1 8414  17.243  13.485   9.430 -0.0995  0.1350  0.0624
  547ERGO    R2 8415  17.376  13.252   9.362 -0.0188  0.2149 -0.0379
  547ERGO    R3 8416  17.220  13.266   9.140 -0.0081  0.2625 -0.0436
  547ERGO    R4 8417  17.456  13.111   9.057 -0.1164  0.0483  0.0118
  547ERGO    R5 8418  17.377  13.290   8.960  0.0202  0.0832 -0.0496
  547ERGO    C1 8419  17.356  13.042   8.670 -0.1631 -0.0040  0.0355
  547ERGO    C2 8420  17.393  12.978   8.341  0.2214  0.1546  0.1286
  548ERGO   ROH 8421   8.282   1.307   9.974  0.0465 -0.0317 -0.2227
  548ERGO    R1 8422   8.404   1.501   9.808  0.1064 -0.0280 -0.1744
  548ERGO    R2 8423   8.503   1.441   9.557  0.1853 -0.0196 -0.1456
  548ERGO    R3 8424   8.342   1.645   9.480  0.2164 -0.0107 -0.1879
  548ERGO    R4 8425   8.520   1.601   9.251  0.2820 -0.0087 -0.1354
  548ERGO    R5 8426   8.485   1.790   9.354  0.2587 -0.0115 -0.1400
  548ERGO    C1 8427   8.378   1.886   9.001  0.3675  0.0060 -0.1691
  548ERGO    C2 8428   8.279   1.882   8.730  0.2799 -0.0552 -0.2577
  549ERGO   ROH 8429   1.006  13.461   9.216 -0.0800 -0.0557  0.1130
  549ERGO    R1 8430   0.963  13.545   8.949 -0.1173 -0.0063  0.1345
  549ERGO    R2 8431   1.004  13.805   8.866  0.0718 -0.0368  0.1322
  549ERGO    R3 8432   1.164  13.687   8.681 -0.1029 -0.1646  0.0589
  549ERGO    R4 8433   1.054  13.923   8.546  0.0332 -0.0615  0.1169
  549ERGO    R5 8434   1.047  13.717   8.474 -0.1693 -0.0568  0.1090
  549ERGO    C1 8435   1.233  13.881   8.185 -0.1534 -0.1961  0.0392
  549ERGO    C2 8436   1.324  14.151   7.992  0.0970  0.4117 -0.1388
  550ERGO   ROH 8437   4.140  15.674   9.835 -0.0272 -0.0977 -0.0781
  550ERGO    R1 8438   4.018  15.762   9.595  0.0811  0.0008 -0.0980
  550ERGO    R2 8439   4.139  15.942   9.424  0.3033 -0.1781 -0.1333
  550ERGO    R3 8440   4.094  15.747   9.239  0.0713 -0.1646 -0.0943
  550ERGO    R4 8441   4.055  15.999   9.093  0.2030 -0.1474 -0.1030
  550ERGO    R5 8442   3.914  15.832   9.105  0.0775 -0.0384 -0.0246
  550ERGO    C1 8443   3.964  15.849   8.728 -0.0731 -0.1170 -0.0488
  550ERGO    C2 8444   3.887  15.695   8.448 -0.0549  0.2684 -0.0465
  551ERGO   ROH 8445  14.213  18.294   9.996 -0.2050  0.2508  0.1508
  551ERGO    R1 8446  14.240  18.260   9.717 -0.0413  0.1886  0.1722
  551ERGO    R2 8447  14.034  18.309   9.540 -0.0052 -0.0443  0.0541
  551ERGO    R3 8448  14.217  18.470   9.421 -0.0861  0.0817  0.1002
  551ERGO    R4 8449  14.029  18.400   9.207  0.1585 -0.2492 -0.0054
  551ERGO    R5 8450  14.246  18.376   9.202  0.1873 -0.0184  0.1789
  551ERGO    C1 8451  14.199  18.605   8.901  0.1781 -0.2502  0.0031
  551ERGO    C2 8452  14.193  18.674   8.567 -0.0105 -0.0002  0.1731
  552ERGO   ROH 8453   2.128   7.719   8.858  0.0905  0.0542  0.0660
  552ERGO    R1 8454   2.050   7.733   8.586  0.0375  0.0234  0.0801
  552ERGO    R2 8455   2.131   7.936   8.418 -0.1199  0.0867  0.0822
  552ERGO    R3 8456   2.216   7.729   8.263 -0.0136  0.1523  0.0514
  552ERGO    R4 8457   2.144   7.941   8.073 -0.3548  0.0643  0.0708
  552ERGO    R5 8458   2.071   7.736   8.071 -0.1504 -0.0132  0.1447
  552ERGO    C1 8459   2.232   7.751   7.726 -0.3918  0.1129  0.0353
  552ERGO    C2 8460   2.492   7.675   7.487  0.0156  0.4788 -0.0607
  553ERGO   ROH 8461   8.275  12.435   9.676 -0.3471 -0.0129  0.0324
  553ERGO    R1 8462   8.341  12.566   9.434 -0.1124 -0.1820  0.0011
  553ERGO    R2 8463   8.426  12.429   9.210 -0.1993 -0.3735  0.0752
  553ERGO    R3 8464   8.222  12.563   9.090 -0.0091 -0.1750 -0.0329
  553ERGO    R4 8465   8.399  12.482   8.870  0.0224 -0.3276  0.0633
  553ERGO    R5 8466   8.327  12.684   8.912  0.1926 -0.2670  0.0282
  553ERGO    C1 8467   8.191  12.638   8.559  0.3300 -0.1146 -0.0452
  553ERGO    C2 8468   8.165  12.430   8.219 -0.2562 -0.3293 -0.2187
  554ERGO   ROH 8469   0.160  11.430   9.331  0.0062 -0.3136  0.0938
  554ERGO    R1 8470   0.181  11.261   9.104  0.0558 -0.1534 -0.0223
  554ERGO    R2 8471  -0.013  11.075   9.039  0.0772 -0.1186 -0.1886
  554ERGO    R3 8472  -0.009  11.204   8.799  0.1133  0.0511 -0.0983
  554ERGO    R4 8473  -0.066  10.924   8.733  0.0527  0.1092 -0.2987
  554ERGO    R5 8474   0.093  11.048   8.649  0.0831  0.1334 -0.2061
  554ERGO    C1 8475  -0.093  10.957   8.329  0.0724  0.4012 -0.2783
  554ERGO    C2 8476  -0.056  11.029   7.995  0.1051 -0.0846  0.0149
  555ERGO   ROH 8477  13.063   7.470   9.905  0.0616 -0.0211  0.1471
  555ERGO    R1 8478  13.179   7.580   9.671 -0.1578  0.2468  0.1601
  555ERGO    R2 8479  13.335   7.431   9.499  0.2508  0.6053  0.2078
  555ERGO    R3 8480  13.158   7.521   9.313  0.0565  0.1548  0.1605
  555ERGO    R4 8481  13.391   7.433   9.158  0.3069  0.6747  0.2162
  555ERGO    R5 8482  13.294   7.629   9.148 -0.1631  0.4564  0.1647
  555ERGO    C1 8483  13.257   7.519   8.785  0.1570  0.2923  0.1767
  555ERGO    C2 8484  13.231   7.399   8.486 -0.0990 -0.0593 -0.0235
  556ERGO   ROH 8485   1.800  11.551   9.049 -0.0800 -0.2095  0.1108
  556ERGO    R1 8486   1.910  11.665   8.814 -0.0822 -0.1090  0.1575
  556ERGO    R2 8487   2.066  11.520   8.637 -0.0660 -0.0287  0.1042
  556ERGO    R3 8488   1.883  11.607   8.455 -0.0683  0.0285  0.1339
  556ERGO    R4 8489   2.142  11.638   8.322 -0.0742  0.0301  0.1243
  556ERGO    R5 8490   1.990  11.792   8.347 -0.0564  0.0401  0.1662
  556ERGO    C1 8491   2.016  11.787   7.967 -0.0811  0.1180  0.1637
  556ERGO    C2 8492   2.095  11.795   7.582 -0.1482 -0.1544 -0.3678
  557ERGO   ROH 8493  15.567  15.486   9.845  0.2597  0.0982 -0.0284
  557ERGO    R1 8494  15.705  15.626   9.641  0.3112 -0.0648 -0.1053
  557ERGO    R2 8495  15.871  15.499   9.460 -0.0073 -0.2779 -0.2533
  557ERGO    R3 8496  15.712  15.622   9.277  0.0317 -0.0113 -0.1146
  557ERGO    R4 8497  15.960  15.562   9.133 -0.1410 -0.3191 -0.2993
  557ERGO    R5 8498  15.863  15.757   9.149  0.1341 -0.1839 -0.1814
  557ERGO    C1 8499  15.863  15.714   8.770 -0.1822 -0.0930 -0.1959
  557ERGO    C2 8500  15.907  15.892   8.485 -0.1403  0.2933  0.0626
  558ERGO   ROH 8501  13.485   5.535   9.441  0.2961  0.1268 -0.0146
  558ERGO    R1 8502  13.552   5.469   9.174  0.3206  0.2095 -0.0287
  558ERGO    R2 8503  13.367   5.367   8.995  0.4186 -0.0708  0.0303
  558ERGO    R3 8504  13.449   5.575   8.841  0.0723  0.0431 -0.0084
  558ERGO    R4 8505  13.324   5.388   8.653  0.1733 -0.0984  0.0573
  558ERGO    R5 8506  13.524   5.474   8.638  0.0678  0.1452 -0.0642
  558ERGO    C1 8507  13.375   5.597   8.309 -0.2945 -0.0076  0.0365
  558ERGO    C2 8508  13.611   5.685   8.025 -0.1475  0.0710  0.0160
  559ERGO   ROH 8509  17.664  18.426   9.144 -0.1832  0.0308  0.0714
  559ERGO    R1 8510  17.659  18.334   8.877 -0.0090 -0.0396  0.0909
  559ERGO    R2 8511  17.509  18.456   8.680 -0.0048 -0.1837 -0.0052
  559ERGO    R3 8512  17.748  18.466   8.549  0.0469 -0.0632  0.0966
  559ERGO    R4 8513  17.546  18.485   8.337  0.1302 -0.1003  0.0156
  559ERGO    R5 8514  17.710  18.342   8.348  0.1817 -0.0369  0.0554
  559ERGO    C1 8515  17.791  18.512   8.015  0.2570  0.0612  0.1233
  559ERGO    C2 8516  17.720  18.814   7.744  0.0189 -0.0850 -0.0127
  560ERGO   ROH 8517   9.078  17.048   9.653 -0.1279 -0.2202  0.1617
  560ERGO    R1 8518   8.934  17.052   9.409 -0.0492 -0.0557  0.1153
  560ERGO    R2 8519   8.998  17.221   9.200  0.1968 -0.1103  0.1413
  560ERGO    R3 8520   9.007  16.990   9.058 -0.0013 -0.1157  0.1363
  560ERGO    R4 8521   9.010  17.200   8.855  0.1839 -0.1140  0.1414
  560ERGO    R5 8522   8.873  17.032   8.865  0.0384  0.0048  0.1354
  560ERGO    C1 8523   9.025  16.970   8.521 -0.0098 -0.1211  0.1368
  560ERGO    C2 8524   9.233  16.800   8.330  0.0887 -0.2482  0.0259
  561ERGO   ROH 8525  15.953  13.156   9.548 -0.2470  0.0585 -0.0410
  561ERGO    R1 8526  15.881  13.064   9.290 -0.0297  0.0125 -0.0870
  561ERGO    R2 8527  15.759  13.227   9.102 -0.1065 -0.0902 -0.1275
  561ERGO    R3 8528  15.967  13.148   8.946  0.0518  0.1383 -0.0366
  561ERGO    R4 8529  15.760  13.231   8.757  0.0390 -0.0965 -0.1276
  561ERGO    R5 8530  15.864  13.040   8.760  0.2528  0.0182 -0.0801
  561ERGO    C1 8531  15.956  13.159   8.409  0.2722  0.1145 -0.0424
  561ERGO    C2 8532  16.058  13.366   8.139 -0.3902  0.0027 -0.0464
  562ERGO   ROH 8533   6.681   8.390   9.565  0.1444  0.2579  0.1220
  562ERGO    R1 8534   6.870   8.333   9.362  0.1133  0.1654  0.1182
  562ERGO    R2 8535   7.027   8.105   9.364  0.0636  0.1300  0.1603
  562ERGO    R3 8536   6.922   8.071   9.115  0.0317  0.0920  0.1791
  562ERGO    R4 8537   7.151   7.889   9.124  0.1230  0.2057  0.1226
  562ERGO    R5 8538   7.112   8.041   8.974  0.0177  0.1946  0.1394
  562ERGO    C1 8539   7.125   7.731   8.752  0.1276  0.2141  0.1184
  562ERGO    C2 8540   7.338   7.546   8.458  0.2400  0.3598 -0.0140
  563ERGO   ROH 8541  17.919  14.846   9.435  0.0239  0.0464 -0.0167
  563ERGO    R1 8542  18.030  14.783   9.182  0.1239  0.1139  0.0116
  563ERGO    R2 8543  17.916  14.599   9.011  0.3289 -0.0207  0.0266
  563ERGO    R3 8544  17.924  14.805   8.834  0.1590 -0.0417 -0.0106
  563ERGO    R4 8545  17.899  14.564   8.668 -0.0442 -0.0640  0.0431
  563ERGO    R5 8546  18.052  14.719   8.650 -0.0438 -0.0789 -0.1400
  563ERGO    C1 8547  17.898  14.738   8.301 -0.4211 -0.1089  0.0178
  563ERGO    C2 8548  17.805  14.755   7.973  0.3811  0.3780 -0.0421
  564ERGO   ROH 8549  10.698  13.518   9.717 -0.1630 -0.2792  0.2143
  564ERGO    R1 8550  10.612  13.502   9.448 -0.0539  0.0308  0.1563
  564ERGO    R2 8551  10.752  13.616   9.239  0.1918  0.0211  0.3094
  564ERGO    R3 8552  10.741  13.365   9.136 -0.0673  0.1070  0.1181
  564ERGO    R4 8553  10.831  13.533   8.913  0.2245  0.1626  0.2804
  564ERGO    R5 8554  10.661  13.396   8.912  0.0610  0.3652  0.1070
  564ERGO    C1 8555  10.866  13.248   8.627  0.0004  0.3256  0.0837
  564ERGO    C2 8556  10.887  13.051   8.347 -0.0124  0.1111 -0.2335
  565ERGO   ROH 8557  11.707   1.613   9.733  0.0834 -0.1640 -0.1771
  565ERGO    R1 8558  11.562   1.625   9.490  0.0483 -0.2531 -0.1606
  565ERGO    R2 8559  11.582   1.838   9.315 -0.1930 -0.1822 -0.1048
  565ERGO    R3 8560  11.640   1.642   9.135 -0.0003 -0.0732 -0.1641
  565ERGO    R4 8561  11.613   1.886   8.974 -0.3499 -0.0641 -0.1037
  565ERGO    R5 8562  11.509   1.697   8.943 -0.1267 -0.1914 -0.1142
  565ERGO    C1 8563  11.686   1.731   8.607 -0.2603  0.1071 -0.1587
  565ERGO    C2 8564  11.939   1.880   8.367 -0.2836 -0.0821  0.1963
  566ERGO   ROH 8565  15.057   8.822   9.268 -0.1074  0.2837 -0.1036
  566ERGO    R1 8566  15.113   8.988   9.046  0.0304  0.1280 -0.1870
  566ERGO    R2 8567  15.149   8.888   8.791 -0.0400 -0.0304 -0.1357
  566ERGO    R3 8568  14.955   9.067   8.728  0.1020  0.0924 -0.2321
  566ERGO    R4 8569  15.096   9.018   8.475 -0.0172 -0.2594 -0.2366
  566ERGO    R5 8570  15.058   9.212   8.568  0.1865 -0.1399 -0.3939
  566ERGO    C1 8571  14.883   9.263   8.233  0.1294 -0.2774 -0.3857
  566ERGO    C2 8572  14.752   9.388   7.924 -0.1831  0.0728  0.1153
  567ERGO   ROH 8573   0.452  14.142   9.642 -0.2383 -0.0302 -0.2218
  567ERGO    R1 8574   0.343  14.319   9.449 -0.1472  0.1776 -0.0872
  567ERGO    R2 8575   0.346  14.594   9.480  0.1853  0.1671  0.0266
  567ERGO    R3 8576   0.466  14.587   9.236  0.0417  0.1267 -0.0428
  567ERGO    R4 8577   0.317  14.839   9.238  0.2491  0.2463  0.0991
  567ERGO    R5 8578   0.304  14.682   9.088  0.0365  0.2925  0.0700
  567ERGO    C1 8579   0.411  14.975   8.869  0.1515  0.2548  0.0761
  567ERGO    C2 8580   0.522  15.232   8.702  0.0583  0.0200 -0.0750
  568ERGO   ROH 8581   7.495   0.788   9.690 -0.1207  0.1943 -0.1845
  568ERGO    R1 8582   7.548   0.831   9.415  0.0343  0.2101 -0.1522
  568ERGO    R2 8583   7.591   1.083   9.309  0.1135  0.2100 -0.1079
  568ERGO    R3 8584   7.819   0.969   9.217  0.1555  0.2008  0.0034
  568ERGO    R4 8585   7.689   1.076   8.978  0.2521  0.1792 -0.0682
  568ERGO    R5 8586   7.757   0.872   9.007  0.2415  0.1783 -0.0161
  568ERGO    C1 8587   7.960   0.965   8.698  0.3721  0.1526  0.0594
  568ERGO    C2 8588   7.754   0.922   8.309  0.1985  0.0507 -0.0590
  569ERGO   ROH 8589   3.888   2.714   9.631  0.2671  0.1258  0.1838
  569ERGO    R1 8590   4.016   2.798   9.392  0.1862 -0.0309  0.0834
  569ERGO    R2 8591   4.031   2.639   9.167 -0.0600 -0.1063  0.1171
  569ERGO    R3 8592   3.918   2.854   9.046  0.0197 -0.0604  0.1244
  569ERGO    R4 8593   4.037   2.700   8.827  0.2340  0.0616  0.1493
  569ERGO    R5 8594   4.071   2.911   8.871  0.1703  0.0459  0.2854
  569ERGO    C1 8595   3.934   2.938   8.516  0.4800  0.2025  0.1750
  569ERGO    C2 8596   3.747   2.811   8.275  0.2255 -0.0208 -0.0903
  570ERGO   ROH 8597  17.890  15.263   9.566  0.1782  0.4664  0.0669
  570ERGO    R1 8598  17.944  15.335   9.298  0.3058  0.1659  0.0087
  570ERGO    R2 8599  18.125  15.199   9.141  0.1043 -0.2460  0.1273
  570ERGO    R3 8600  17.914  15.179   8.971  0.0802 -0.0574  0.1311
  570ERGO    R4 8601  18.152  15.172   8.798  0.0720 -0.1526  0.1162
  570ERGO    R5 8602  17.981  15.307   8.779  0.1539 -0.0354  0.1681
  570ERGO    C1 8603  17.969  15.137   8.438  0.0308  0.0788  0.1133
  570ERGO    C2 8604  18.003  15.199   8.135 -0.2294  0.0299 -0.1902
  571ERGO   ROH 8605   1.475   2.083   9.478 -0.2630  0.0357 -0.0812
  571ERGO    R1 8606   1.486   2.178   9.212 -0.1388  0.1156 -0.0486
  571ERGO    R2 8607   1.717   2.283   9.101 -0.0607  0.0712  0.0610
  571ERGO    R3 8608   1.671   2.096   8.909 -0.0634  0.1439 -0.0091
  571ERGO    R4 8609   1.856   2.287   8.785 -0.0750  0.1853  0.0557
  571ERGO    R5 8610   1.664   2.221   8.705 -0.0720  0.2146  0.0382
  571ERGO    C1 8611   1.895   2.113   8.421 -0.0858  0.3200 -0.0130
  571ERGO    C2 8612   1.923   2.302   8.247  0.1297 -0.1518 -0.0165
  572ERGO   ROH 8613   8.168  13.554   9.239  0.0235  0.2410 -0.1376
  572ERGO    R1 8614   8.083  13.746   9.049 -0.2491  0.1867 -0.0746
  572ERGO    R2 8615   8.008  13.678   8.792 -0.1051  0.1672 -0.1090
  572ERGO    R3 8616   7.782  13.813   8.857 -0.3312 -0.2063 -0.0917
  572ERGO    R4 8617   7.789  13.817   8.564 -0.0492  0.2853 -0.0927
  572ERGO    R5 8618   7.769  13.989   8.696 -0.3785  0.0530  0.1837
  572ERGO    C1 8619   7.448  14.024   8.493 -0.2288  0.0034 -0.0671
  572ERGO    C2 8620   7.357  13.864   8.238 -0.2152  0.0259  0.1370
  573ERGO   ROH 8621  16.016   1.706   9.453  0.1177  0.0298  0.0415
  573ERGO    R1 8622  16.071   1.691   9.176  0.0915  0.0295  0.0367
  573ERGO    R2 8623  15.880   1.617   8.990  0.0832  0.0027  0.0593
  573ERGO    R3 8624  15.948   1.853   8.873  0.0429  0.0070  0.0434
  573ERGO    R4 8625  15.792   1.710   8.669  0.1735 -0.0933  0.0056
  573ERGO    R5 8626  15.992   1.795   8.644  0.1553 -0.0231  0.0696
  573ERGO    C1 8627  15.804   1.985   8.372  0.1885 -0.1453 -0.0405
  573ERGO    C2 8628  15.598   1.990   8.035  0.2391 -0.1901 -0.1467
  574ERGO   ROH 8629   8.498  14.716   9.758 -0.1277 -0.0968  0.0375
  574ERGO    R1 8630   8.435  14.685   9.483 -0.0580 -0.0872  0.0199
  574ERGO    R2 8631   8.553  14.837   9.286 -0.0507 -0.0381  0.0592
  574ERGO    R3 8632   8.615  14.594   9.180  0.0346 -0.0137  0.0530
  574ERGO    R4 8633   8.562  14.766   8.948 -0.3895 -0.1217  0.0646
  574ERGO    R5 8634   8.469  14.573   8.991 -0.1729 -0.1915  0.2289
  574ERGO    C1 8635   8.625  14.496   8.651 -0.5067 -0.1473  0.0618
  574ERGO    C2 8636   8.687  14.641   8.334  0.2076  0.1595  0.2481
  575ERGO   ROH 8637  12.328  15.283   9.506  0.1208 -0.0471  0.0132
  575ERGO    R1 8638  12.342  15.476   9.300  0.0084  0.0283  0.0766
  575ERGO    R2 8639  12.494  15.706   9.321  0.0743 -0.0191  0.0514
  575ERGO    R3 8640  12.601  15.618   9.087 -0.1201  0.0520 -0.0686
  575ERGO    R4 8641  12.571  15.907   9.050  0.3654  0.1625  0.2623
  575ERGO    R5 8642  12.495  15.751   8.919  0.0675  0.4303  0.0960
  575ERGO    C1 8643  12.717  15.941   8.674  0.3524  0.3350  0.2724
  575ERGO    C2 8644  12.925  16.181   8.500  0.1871 -0.2471 -0.0642
  576ERGO   ROH 8645   9.905  11.683   9.400  0.0056 -0.0928  0.0389
  576ERGO    R1 8646   9.871  11.826   9.159  0.0809  0.0180  0.0927
  576ERGO    R2 8647  10.079  11.956   9.032  0.1535 -0.0455  0.1387
  576ERGO    R3 8648  10.000  11.807   8.819  0.0683  0.0736  0.0861
  576ERGO    R4 8649  10.210  11.982   8.714  0.3073 -0.1568  0.1917
  576ERGO    R5 8650  10.008  11.959   8.634  0.3145  0.0853  0.1083
  576ERGO    C1 8651  10.213  11.857   8.328  0.3169 -0.1098  0.1732
  576ERGO    C2 8652  10.447  11.838   8.103  0.1727  0.1716  0.1814
  577ERGO   ROH 8653   3.506  14.422   9.849 -0.1873  0.2995  0.0882
  577ERGO    R1 8654   3.483  14.369   9.571 -0.0246  0.2252  0.0875
  577ERGO    R2 8655   3.240  14.360   9.441  0.0424  0.0921 -0.0363
  577ERGO    R3 8656   3.357  14.544   9.278  0.0486  0.1048 -0.0164
  577ERGO    R4 8657   3.186  14.387   9.100  0.1182  0.0720 -0.0495
  577ERGO    R5 8658   3.398  14.426   9.074  0.1156  0.1063 -0.0020
  577ERGO    C1 8659   3.264  14.575   8.750  0.1682  0.0723 -0.0387
  577ERGO    C2 8660   3.242  14.601   8.302  0.1866 -0.0585  0.0650
  578ERGO   ROH 8661   1.623   3.608   9.035  0.1325 -0.0640  0.0215
  578ERGO    R1 8662   1.729   3.708   8.792  0.0733 -0.0625 -0.0022
  578ERGO    R2 8663   1.986   3.653   8.708  0.0428 -0.0698 -0.0670
  578ERGO    R3 8664   1.861   3.567   8.483 -0.0114 -0.0557 -0.0444
  578ERGO    R4 8665   2.080   3.736   8.386  0.1055 -0.2049 -0.0853
  578ERGO    R5 8666   1.869   3.755   8.335  0.1076 -0.0892 -0.0921
  578ERGO    C1 8667   2.016   3.703   7.987  0.0911 -0.2703 -0.0748
  578ERGO    C2 8668   2.209   3.379   7.743 -0.0957 -0.0407 -0.2842
  579ERGO   ROH 8669  10.012   4.388  10.024 -0.0744  0.1116  0.1269
  579ERGO    R1 8670  10.075   4.405   9.749  0.0875 -0.0815  0.1492
  579ERGO    R2 8671  10.076   4.644   9.611 -0.1355 -0.2104 -0.0895
  579ERGO    R3 8672  10.328   4.568   9.545  0.0129  0.0496  0.1619
  579ERGO    R4 8673  10.234   4.721   9.313  0.0305 -0.1795  0.0063
  579ERGO    R5 8674  10.317   4.520   9.311  0.2696 -0.0844  0.1760
  579ERGO    C1 8675  10.563   4.695   9.079  0.2663  0.0826  0.2979
  579ERGO    C2 8676  10.752   4.738   8.867  0.0009 -0.0201  0.1260
  580ERGO   ROH 8677   4.729   1.912   9.969  0.1095  0.0978  0.1250
  580ERGO    R1 8678   4.711   1.901   9.687  0.0581  0.1621  0.1244
  580ERGO    R2 8679   4.714   2.129   9.528  0.1476  0.1953  0.1649
  580ERGO    R3 8680   4.920   2.000   9.405  0.0636  0.1132  0.1126
  580ERGO    R4 8681   4.767   2.118   9.187  0.0099  0.0951  0.1470
  580ERGO    R5 8682   4.824   1.910   9.206 -0.0367  0.0889  0.1745
  580ERGO    C1 8683   4.991   1.992   8.873 -0.1491 -0.0404  0.0874
  580ERGO    C2 8684   5.049   2.022   8.539 -0.1181 -0.1726  0.0406
  581ERGO   ROH 8685  17.826   5.507   9.314  0.2446 -0.0242  0.0651
  581ERGO    R1 8686  17.931   5.346   9.106  0.0321 -0.1104  0.0218
  581ERGO    R2 8687  17.786   5.142   8.989 -0.2597  0.1352 -0.0645
  581ERGO    R3 8688  17.846   5.274   8.759 -0.0411  0.1310 -0.0116
  581ERGO    R4 8689  17.771   5.004   8.672  0.0456  0.1318 -0.0803
  581ERGO    R5 8690  17.955   5.110   8.623  0.0916  0.1320  0.0940
  581ERGO    C1 8691  17.818   5.048   8.272  0.4288  0.1257 -0.0398
  581ERGO    C2 8692  17.742   4.822   7.964 -0.1492  0.1578 -0.0362
  582ERGO   ROH 8693  17.254   4.402   9.047  0.0831 -0.2535  0.1250
  582ERGO    R1 8694  17.167   4.210   8.857  0.0103 -0.0873 -0.0109
  582ERGO    R2 8695  16.994   4.272   8.652  0.0912  0.1397 -0.0061
  582ERGO    R3 8696  17.190   4.166   8.496  0.0568  0.1172 -0.0362
  582ERGO    R4 8697  16.956   4.184   8.320  0.0257  0.1635 -0.0059
  582ERGO    R5 8698  17.076   4.005   8.359  0.0074  0.1387 -0.0283
  582ERGO    C1 8699  17.118   4.032   7.981 -0.0446  0.1562 -0.0339
  582ERGO    C2 8700  17.150   3.902   7.707  0.0008 -0.3008  0.0153
  583ERGO   ROH 8701  12.849   6.151   9.896  0.3463  0.1134 -0.1922
  583ERGO    R1 8702  12.731   6.046   9.661  0.1965  0.0606 -0.0953
  583ERGO    R2 8703  12.579   6.200   9.490  0.0815  0.0205 -0.0305
  583ERGO    R3 8704  12.754   6.109   9.303 -0.0358 -0.0142 -0.1248
  583ERGO    R4 8705  12.539   6.235   9.148 -0.1194 -0.0170 -0.0121
  583ERGO    R5 8706  12.615   6.032   9.124 -0.1485 -0.0252 -0.0336
  583ERGO    C1 8707  12.681   6.170   8.774 -0.3464 -0.0714 -0.0898
  583ERGO    C2 8708  12.767   6.093   8.470  0.1069  0.3235 -0.1467
  584ERGO   ROH 8709   9.993  12.661   9.784 -0.2175 -0.0050  0.0385
  584ERGO    R1 8710   9.847  12.740   9.555 -0.1078  0.1125  0.0082
  584ERGO    R2 8711   9.922  12.955   9.397  0.0769  0.0747  0.0431
  584ERGO    R3 8712   9.911  12.770   9.198  0.0006  0.0975  0.0261
  584ERGO    R4 8713   9.847  13.023   9.067  0.1679  0.1464  0.0368
  584ERGO    R5 8714   9.728  12.841   9.061  0.0626  0.2150  0.0032
  584ERGO    C1 8715   9.792  12.890   8.688  0.1493  0.2095  0.0170
  584ERGO    C2 8716   9.930  12.900   8.269  0.0458  0.2116  0.1101
  585ERGO   ROH 8717   6.793   6.935   9.845 -0.0227  0.2895  0.0791
  585ERGO    R1 8718   6.703   7.002   9.585 -0.0073  0.1537  0.0371
  585ERGO    R2 8719   6.667   6.814   9.386  0.2071  0.0750  0.0677
  585ERGO    R3 8720   6.417   6.920   9.375  0.1194 -0.1366 -0.0248
  585ERGO    R4 8721   6.448   6.777   9.121  0.4523  0.1539 -0.1510
  585ERGO    R5 8722   6.390   6.986   9.147  0.2480  0.0767  0.0204
  585ERGO    C1 8723   6.085   6.856   8.958  0.5127  0.0012 -0.3652
  585ERGO    C2 8724   5.932   6.953   8.673  0.1104 -0.2711 -0.0287
  586ERGO   ROH 8725   8.687   3.823  10.045 -0.1321 -0.0194 -0.0790
  586ERGO    R1 8726   8.613   3.686   9.809 -0.0328 -0.1209 -0.0518
  586ERGO    R2 8727   8.512   3.815   9.586 -0.1758 -0.2452 -0.0589
  586ERGO    R3 8728   8.716   3.688   9.460 -0.0730 -0.0776 -0.0644
  586ERGO    R4 8729   8.533   3.766   9.245 -0.2574 -0.4021 -0.0418
  586ERGO    R5 8730   8.610   3.566   9.283 -0.0071 -0.2986  0.0410
  586ERGO    C1 8731   8.736   3.618   8.927 -0.2085 -0.3362 -0.0369
  586ERGO    C2 8732   8.800   3.498   8.636 -0.0375 -0.0685 -0.0847
  587ERGO   ROH 8733   5.007   0.833   9.588 -0.0022 -0.0550 -0.1186
  587ERGO    R1 8734   5.091   1.005   9.380  0.0732  0.0048 -0.0393
  587ERGO    R2 8735   5.347   1.108   9.366  0.1539 -0.1973 -0.0552
  587ERGO    R3 8736   5.343   0.999   9.117 -0.0141 -0.0411 -0.1230
  587ERGO    R4 8737   5.495   1.247   9.086  0.1186 -0.1075 -0.0296
  587ERGO    R5 8738   5.321   1.187   8.970  0.0327  0.0656  0.0032
  587ERGO    C1 8739   5.578   1.226   8.690 -0.0597  0.0914 -0.0784
  587ERGO    C2 8740   5.788   1.194   8.446  0.2184 -0.0543  0.0142
  588ERGO   ROH 8741   9.779   2.154  10.386 -0.2041 -0.1000 -0.1185
  588ERGO    R1 8742   9.730   2.004  10.151 -0.1717 -0.0937 -0.1287
  588ERGO    R2 8743   9.483   1.999  10.027 -0.1359 -0.0419 -0.1952
  588ERGO    R3 8744   9.627   2.076   9.809 -0.0614 -0.0802 -0.1605
  588ERGO    R4 8745   9.409   1.912   9.700 -0.1641  0.0851 -0.2235
  588ERGO    R5 8746   9.623   1.885   9.665 -0.1736 -0.0461 -0.2078
  588ERGO    C1 8747   9.502   1.934   9.306 -0.1106  0.1232 -0.2076
  588ERGO    C2 8748   9.318   2.069   9.167 -0.1097  0.0365 -0.1717
  589ERGO   ROH 8749   7.525  11.159   9.170 -0.1018 -0.1904 -0.0556
  589ERGO    R1 8750   7.483  10.980   8.955 -0.2103 -0.1827 -0.0432
  589ERGO    R2 8751   7.233  10.928   8.851 -0.2261  0.1265 -0.1868
  589ERGO    R3 8752   7.351  10.998   8.616  0.0177 -0.0710 -0.1259
  589ERGO    R4 8753   7.131  10.819   8.539 -0.2164  0.2760 -0.2421
  589ERGO    R5 8754   7.342  10.799   8.484 -0.2193 -0.0583 -0.1217
  589ERGO    C1 8755   7.183  10.821   8.137  0.0182  0.1776 -0.2173
  589ERGO    C2 8756   6.840  10.711   7.938  0.1928 -0.2546 -0.1552
  590ERGO   ROH 8757   7.075   8.678   9.600 -0.0616 -0.2954  0.1772
  590ERGO    R1 8758   7.211   8.690   9.352 -0.4192 -0.0306 -0.0146
  590ERGO    R2 8759   7.401   8.503   9.277  0.0677  0.4872 -0.1356
  590ERGO    R3 8760   7.242   8.478   9.058 -0.1703 -0.1354  0.0840
  590ERGO    R4 8761   7.478   8.316   8.997  0.2638  0.5308 -0.1131
  590ERGO    R5 8762   7.395   8.474   8.874 -0.3926  0.2152 -0.1185
  590ERGO    C1 8763   7.374   8.183   8.628  0.1547 -0.0285  0.1061
  590ERGO    C2 8764   7.389   8.067   8.329 -0.0793  0.1051 -0.1074
  591ERGO   ROH 8765   2.779  15.511   9.558  0.0510 -0.1913 -0.0531
  591ERGO    R1 8766   2.880  15.447   9.302  0.0138 -0.1655 -0.0749
  591ERGO    R2 8767   2.720  15.438   9.077 -0.0208 -0.1432 -0.0550
  591ERGO    R3 8768   2.904  15.613   8.978 -0.0353 -0.1314 -0.0600
  591ERGO    R4 8769   2.805  15.468   8.743  0.1451 -0.2973 -0.0278
  591ERGO    R5 8770   3.014  15.491   8.804  0.1021 -0.1861  0.0660
  591ERGO    C1 8771   3.027  15.649   8.457  0.2280 -0.3760 -0.0166
  591ERGO    C2 8772   3.138  15.838   8.133  0.0571 -0.0120  0.1097
  592ERGO   ROH 8773   9.195   4.852  10.093 -0.0727 -0.1481  0.0003
  592ERGO    R1 8774   9.105   4.929   9.836 -0.0543  0.0277  0.0454
  592ERGO    R2 8775   9.273   5.042   9.647  0.0135 -0.0600  0.0544
  592ERGO    R3 8776   9.181   4.839   9.491 -0.2075  0.0789 -0.0029
  592ERGO    R4 8777   9.308   5.025   9.304  0.0421 -0.0277  0.0551
  592ERGO    R5 8778   9.105   4.947   9.292 -0.0528  0.2147  0.0086
  592ERGO    C1 8779   9.242   4.824   8.958 -0.1487  0.1216  0.0019
  592ERGO    C2 8780   9.180   4.708   8.686 -0.1208 -0.3092 -0.3405
  593ERGO   ROH 8781   8.478   6.960  10.129  0.0801 -0.2747  0.0408
  593ERGO    R1 8782   8.449   7.060   9.866  0.0185 -0.2017  0.0742
  593ERGO    R2 8783   8.662   7.087   9.692  0.0169  0.0588  0.1045
  593ERGO    R3 8784   8.506   6.936   9.528  0.1705 -0.0253  0.0347
  593ERGO    R4 8785   8.711   7.049   9.352  0.2143  0.0407  0.1341
  593ERGO    R5 8786   8.495   7.061   9.324  0.2259 -0.0550  0.0159
  593ERGO    C1 8787   8.593   6.885   9.000  0.4734 -0.0489  0.0858
  593ERGO    C2 8788   8.686   6.740   8.766 -0.2189 -0.0636  0.0320
  594ERGO   ROH 8789  16.020  17.796   9.748  0.0080 -0.0127 -0.1798
  594ERGO    R1 8790  15.867  17.843   9.515 -0.0421 -0.0965 -0.1647
  594ERGO    R2 8791  15.968  17.978   9.296 -0.1575  0.0137 -0.1514
  594ERGO    R3 8792  15.888  17.755   9.162  0.0070 -0.0293 -0.1788
  594ERGO    R4 8793  15.874  17.970   8.963 -0.2792  0.0150 -0.1171
  594ERGO    R5 8794  15.714  17.832   9.017 -0.1261 -0.1568 -0.0905
  594ERGO    C1 8795  15.744  17.756   8.644 -0.1955 -0.0248 -0.1229
  594ERGO    C2 8796  15.937  17.771   8.445  0.0169  0.0702 -0.2575
  595ERGO   ROH 8797   8.929   9.283   9.554  0.1734  0.0337 -0.0479
  595ERGO    R1 8798   8.919   9.113   9.327  0.0951  0.0021 -0.0227
  595ERGO    R2 8799   8.703   9.108   9.155  0.0586  0.0248  0.0108
  595ERGO    R3 8800   8.893   9.155   8.967  0.0402 -0.0403 -0.0220
  595ERGO    R4 8801   8.675   9.028   8.820  0.0991 -0.2283  0.0669
  595ERGO    R5 8802   8.883   8.965   8.822  0.1176 -0.1454  0.1153
  595ERGO    C1 8803   8.837   9.026   8.448  0.1053 -0.4367  0.0687
  595ERGO    C2 8804   8.702   8.957   8.185  0.0564 -0.3783  0.0919
  596ERGO   ROH 8805   9.504  15.082   9.445  0.0046  0.0589 -0.0908
  596ERGO    R1 8806   9.281  15.183   9.302 -0.0277 -0.0285 -0.1030
  596ERGO    R2 8807   9.228  15.454   9.280 -0.1864 -0.0539 -0.0265
  596ERGO    R3 8808   9.229  15.400   9.014 -0.1009  0.0333 -0.0444
  596ERGO    R4 8809   9.184  15.688   9.030 -0.3875 -0.0093  0.0495
  596ERGO    R5 8810   9.061  15.544   8.923 -0.2353 -0.0979 -0.0134
  596ERGO    C1 8811   9.159  15.774   8.635 -0.4246  0.0985  0.0769
  596ERGO    C2 8812   9.140  16.035   8.520  0.1600 -0.0249  0.1289
  597ERGO   ROH 8813   5.278   5.908   9.560 -0.0903 -0.0126 -0.1502
  597ERGO    R1 8814   5.367   5.820   9.306 -0.1245 -0.0542 -0.1486
  597ERGO    R2 8815   5.197   5.705   9.121 -0.1585 -0.0520 -0.1234
  597ERGO    R3 8816   5.294   5.900   8.959 -0.1444 -0.0820 -0.1500
  597ERGO    R4 8817   5.146   5.722   8.779 -0.2181 -0.0506 -0.1140
  597ERGO    R5 8818   5.353   5.786   8.757 -0.2101 -0.1006 -0.1564
  597ERGO    C1 8819   5.207   5.916   8.429 -0.2395 -0.0778 -0.1334
  597ERGO    C2 8820   5.176   5.856   8.208  0.1144 -0.2008 -0.0937
  598ERGO   ROH 8821   3.360  11.044   9.354  0.1237 -0.2832 -0.0445
  598ERGO    R1 8822   3.354  11.136   9.086  0.0468 -0.2029 -0.0165
  598ERGO    R2 8823   3.540  11.315   8.987  0.0011 -0.1470 -0.0092
  598ERGO    R3 8824   3.576  11.123   8.798 -0.0201 -0.0878 -0.0731
  598ERGO    R4 8825   3.597  11.376   8.651 -0.0083 -0.0470  0.0075
  598ERGO    R5 8826   3.465  11.209   8.604 -0.0200 -0.0202 -0.0408
  598ERGO    C1 8827   3.664  11.231   8.279 -0.0336  0.0669 -0.0428
  598ERGO    C2 8828   3.844  11.439   7.973  0.4115  0.2021 -0.5094
  599ERGO   ROH 8829  17.290  16.874   9.542  0.2511 -0.0546  0.1242
  599ERGO    R1 8830  17.128  16.895   9.311  0.2494  0.1181  0.1403
  599ERGO    R2 8831  17.202  17.045   9.090  0.4571 -0.0765  0.0750
  599ERGO    R3 8832  17.158  16.811   8.958  0.0679 -0.0610  0.1656
  599ERGO    R4 8833  17.177  17.015   8.747  0.3084 -0.1562  0.0918
  599ERGO    R5 8834  17.014  16.873   8.776  0.1017  0.0937  0.1897
  599ERGO    C1 8835  17.121  16.779   8.422 -0.1436 -0.1881  0.1867
  599ERGO    C2 8836  17.125  16.686   8.163  0.4386  0.3342  0.2380
  600ERGO   ROH 8837   7.954  11.091   9.335  0.1186  0.1055  0.3089
  600ERGO    R1 8838   7.970  11.152   9.059 -0.1087  0.3760  0.3490
  600ERGO    R2 8839   8.074  11.390   8.964  0.3223  0.2596  0.4865
  600ERGO    R3 8840   8.234  11.226   8.819 -0.2387  0.0308  0.0940
  600ERGO    R4 8841   8.265  11.489   8.694  0.3871  0.1615  0.4976
  600ERGO    R5 8842   8.211  11.304   8.594 -0.2099  0.4583  0.2340
  600ERGO    C1 8843   8.527  11.392   8.401 -0.1018 -0.1105  0.1358
  600ERGO    C2 8844   8.529  11.501   8.124  0.3636 -0.0558 -0.2120
  601ERGO   ROH 8845   9.452  17.752  10.163  0.0316 -0.0891  0.1156
  601ERGO    R1 8846   9.448  17.866   9.904  0.1509 -0.0297  0.1406
  601ERGO    R2 8847   9.678  17.926   9.764  0.2113 -0.2088  0.1726
  601ERGO    R3 8848   9.563  17.772   9.572  0.0862 -0.0610  0.1250
  601ERGO    R4 8849   9.751  17.943   9.426  0.2481 -0.1741  0.1811
  601ERGO    R5 8850   9.539  17.919   9.384  0.2219  0.0184  0.1626
  601ERGO    C1 8851   9.685  17.808   9.049  0.1520 -0.0152  0.1413
  601ERGO    C2 8852   9.776  17.678   8.736  0.1952  0.0216 -0.1829
  602ERGO   ROH 8853  10.553   6.930   9.986 -0.1288 -0.1972  0.0010
  602ERGO    R1 8854  10.475   6.919   9.714 -0.0575 -0.1035 -0.0251
  602ERGO    R2 8855  10.466   7.143   9.553 -0.2107 -0.0075  0.1011
  602ERGO    R3 8856  10.626   6.994   9.392 -0.0410  0.2193  0.0569
  602ERGO    R4 8857  10.517   7.204   9.217 -0.4645 -0.0084  0.0616
  602ERGO    R5 8858  10.509   6.988   9.182 -0.1256 -0.0247  0.1161
  602ERGO    C1 8859  10.696   7.099   8.869 -0.4531  0.2039 -0.0030
  602ERGO    C2 8860  10.706   7.146   8.504  0.0309 -0.0057 -0.2104
  603ERGO   ROH 8861   8.739  13.834   9.447 -0.1663 -0.1782  0.0053
  603ERGO    R1 8862   8.743  13.775   9.171 -0.0988 -0.1097 -0.0083
  603ERGO    R2 8863   8.578  13.584   9.057 -0.0705 -0.0802 -0.0949
  603ERGO    R3 8864   8.507  13.790   8.894 -0.0306 -0.0411 -0.0639
  603ERGO    R4 8865   8.448  13.548   8.739  0.0284 -0.0091 -0.1445
  603ERGO    R5 8866   8.570  13.716   8.674  0.0414  0.0156 -0.0645
  603ERGO    C1 8867   8.305  13.719   8.401  0.1234  0.0690 -0.1444
  603ERGO    C2 8868   7.989  13.875   8.101 -0.1806  0.2691  0.4171
  604ERGO   ROH 8869   5.464   8.467   9.499 -0.1449 -0.2808 -0.0725
  604ERGO    R1 8870   5.692   8.507   9.336 -0.1707 -0.0994 -0.0675
  604ERGO    R2 8871   5.775   8.321   9.149  0.0560 -0.0953  0.0215
  604ERGO    R3 8872   5.761   8.534   8.980 -0.1688 -0.1837 -0.0728
  604ERGO    R4 8873   5.851   8.311   8.812 -0.1143 -0.2002 -0.0141
  604ERGO    R5 8874   5.947   8.505   8.832 -0.2293 -0.1294 -0.1568
  604ERGO    C1 8875   5.881   8.505   8.457 -0.4246 -0.3441 -0.1235
  604ERGO    C2 8876   6.019   8.374   8.180  0.1007  0.0795 -0.1688
  605ERGO   ROH 8877  15.773  17.343   9.586 -0.1359 -0.0246 -0.1648
  605ERGO    R1 8878  15.832  17.335   9.310 -0.0646 -0.0157 -0.1496
  605ERGO    R2 8879  15.716  17.153   9.138 -0.0042 -0.0237 -0.1814
  605ERGO    R3 8880  15.649  17.377   8.998  0.0114 -0.0280 -0.1965
  605ERGO    R4 8881  15.617  17.157   8.806 -0.1969 -0.0620 -0.1259
  605ERGO    R5 8882  15.736  17.338   8.779 -0.1335 -0.1197 -0.2393
  605ERGO    C1 8883  15.497  17.369   8.483 -0.2945 -0.0886 -0.1078
  605ERGO    C2 8884  15.506  17.444   8.213  0.0538 -0.2509 -0.1867
  606ERGO   ROH 8885  15.593   5.413   9.250  0.1261 -0.0784 -0.0930
  606ERGO    R1 8886  15.568   5.379   8.970  0.0647 -0.1033 -0.0855
  606ERGO    R2 8887  15.386   5.521   8.818  0.0528 -0.0892 -0.0664
  606ERGO    R3 8888  15.607   5.587   8.673  0.0366 -0.1373 -0.1115
  606ERGO    R4 8889  15.380   5.675   8.509  0.0344  0.1973  0.0743
  606ERGO    R5 8890  15.544   5.545   8.446 -0.1034  0.1218 -0.1212
  606ERGO    C1 8891  15.584   5.827   8.193  0.0086  0.3190  0.1139
  606ERGO    C2 8892  15.785   6.038   7.942 -0.1289  0.0721  0.3018
  607ERGO   ROH 8893  15.593  18.038   9.797  0.0621  0.1097 -0.0749
  607ERGO    R1 8894  15.470  18.175   9.582  0.2087  0.1865 -0.1111
  607ERGO    R2 8895  15.611  18.259   9.360  0.2775 -0.1545 -0.2038
  607ERGO    R3 8896  15.421  18.118   9.225  0.0104  0.0643 -0.0661
  607ERGO    R4 8897  15.512  18.322   9.035  0.2913 -0.1915 -0.2148
  607ERGO    R5 8898  15.306  18.283   9.095  0.2391  0.1751 -0.1331
  607ERGO    C1 8899  15.277  18.227   8.719  0.0486 -0.0075 -0.0920
  607ERGO    C2 8900  15.172  18.501   8.368 -0.0808  0.1617  0.2116
  608ERGO   ROH 8901  10.302  17.211   9.841  0.2294  0.1135  0.0331
  608ERGO    R1 8902  10.282  17.176   9.561  0.0365  0.0492  0.0535
  608ERGO    R2 8903  10.413  17.339   9.382 -0.0109 -0.0508 -0.0707
  608ERGO    R3 8904  10.511  17.104   9.287 -0.1672 -0.1147 -0.0772
  608ERGO    R4 8905  10.568  17.300   9.075  0.2923 -0.0620  0.0800
  608ERGO    R5 8906  10.462  17.110   9.052  0.1007  0.0634 -0.1343
  608ERGO    C1 8907  10.750  17.055   8.808  0.3221 -0.1286  0.1617
  608ERGO    C2 8908  10.736  17.080   8.422 -0.1589  0.0621 -0.0580
  609ERGO   ROH 8909  16.394  11.246   9.658 -0.1291  0.1661  0.1269
  609ERGO    R1 8910  16.454  11.390   9.422  0.1996  0.0804  0.1529
  609ERGO    R2 8911  16.668  11.325   9.258  0.0385 -0.4065  0.1165
  609ERGO    R3 8912  16.476  11.317   9.066 -0.0148  0.1014  0.1346
  609ERGO    R4 8913  16.718  11.401   8.925  0.0781 -0.0589  0.1975
  609ERGO    R5 8914  16.526  11.503   8.923  0.2166  0.2151  0.3563
  609ERGO    C1 8915  16.567  11.436   8.550  0.0512  0.6203  0.2614
  609ERGO    C2 8916  16.625  11.412   8.221 -0.0767 -0.1367 -0.1014
  610ERGO   ROH 8917  15.879  14.621   9.796  0.1394 -0.0554 -0.0024
  610ERGO    R1 8918  15.846  14.537   9.528 -0.1903 -0.1111  0.0517
  610ERGO    R2 8919  15.609  14.570   9.389 -0.2077  0.3259  0.1773
  610ERGO    R3 8920  15.770  14.694   9.209 -0.0413 -0.0881  0.0252
  610ERGO    R4 8921  15.511  14.669   9.073 -0.2113  0.4372  0.2122
  610ERGO    R5 8922  15.704  14.602   8.998 -0.3966 -0.0251  0.0979
  610ERGO    C1 8923  15.604  14.844   8.720 -0.0571  0.1135  0.0898
  610ERGO    C2 8924  15.407  14.852   8.481  0.2269  0.0635 -0.4135
  611ERGO   ROH 8925   6.261   9.476   9.343  0.1550  0.0317 -0.0606
  611ERGO    R1 8926   6.182   9.442   9.074 -0.0193 -0.1063  0.0070
  611ERGO    R2 8927   6.343   9.516   8.862 -0.2620  0.0180 -0.1266
  611ERGO    R3 8928   6.303   9.259   8.784 -0.0540 -0.0407 -0.0528
  611ERGO    R4 8929   6.405   9.394   8.544 -0.0466 -0.0364 -0.0666
  611ERGO    R5 8930   6.222   9.277   8.559  0.0188 -0.1635 -0.0979
  611ERGO    C1 8931   6.404   9.082   8.286  0.2741 -0.1231  0.0374
  611ERGO    C2 8932   6.353   8.781   8.102  0.4370 -0.0025  0.0082
  612ERGO   ROH 8933  12.036  17.602  10.418 -0.1077  0.2539  0.1893
  612ERGO    R1 8934  11.866  17.476  10.229  0.0680  0.0295  0.1745
  612ERGO    R2 8935  11.706  17.620  10.055 -0.1966 -0.1746  0.2397
  612ERGO    R3 8936  11.833  17.470   9.867  0.0303  0.0892  0.1773
  612ERGO    R4 8937  11.578  17.543   9.743 -0.1194 -0.3109  0.2415
  612ERGO    R5 8938  11.659  17.342   9.765  0.2286 -0.1834  0.1731
  612ERGO    C1 8939  11.622  17.357   9.385  0.1386 -0.1425  0.1839
  612ERGO    C2 8940  11.602  17.263   8.994 -0.0463  0.4476 -0.0462
  613ERGO   ROH 8941   0.913   9.444   9.024  0.1099 -0.0483 -0.0420
  613ERGO    R1 8942   0.848   9.374   8.758  0.1748 -0.0726 -0.0515
  613ERGO    R2 8943   0.676   9.522   8.603  0.0219 -0.2188 -0.0253
  613ERGO    R3 8944   0.884   9.523   8.428  0.0200  0.0156 -0.0293
  613ERGO    R4 8945   0.643   9.554   8.261 -0.0170 -0.2299 -0.0226
  613ERGO    R5 8946   0.800   9.403   8.237  0.1450 -0.0618 -0.0362
  613ERGO    C1 8947   0.819   9.574   7.896 -0.0415 -0.0165 -0.0249
  613ERGO    C2 8948   0.848   9.660   7.577  0.3060 -0.1550 -0.0250
  614ERGO   ROH 8949   2.407   2.995   9.345 -0.1475 -0.0165 -0.0204
  614ERGO    R1 8950   2.425   2.978   9.063 -0.0364  0.1530 -0.0242
  614ERGO    R2 8951   2.651   3.055   8.923  0.1550 -0.1010  0.1441
  614ERGO    R3 8952   2.633   2.803   8.821 -0.1889 -0.0083 -0.0429
  614ERGO    R4 8953   2.719   2.969   8.595  0.4317  0.0004  0.1717
  614ERGO    R5 8954   2.548   2.834   8.600  0.1578  0.3119 -0.1458
  614ERGO    C1 8955   2.742   2.683   8.309  0.2699  0.1465  0.0124
  614ERGO    C2 8956   2.769   2.490   8.038  0.1019 -0.1974  0.1687
  615ERGO   ROH 8957  17.236   8.888   8.909  0.0089 -0.0684 -0.0430
  615ERGO    R1 8958  17.134   8.726   8.701  0.0393 -0.1482  0.0026
  615ERGO    R2 8959  16.919   8.803   8.544 -0.0512 -0.2835  0.0522
  615ERGO    R3 8960  17.092   8.755   8.340 -0.0781 -0.2068  0.0119
  615ERGO    R4 8961  16.827   8.720   8.221 -0.0887 -0.0970  0.0145
  615ERGO    R5 8962  16.991   8.577   8.216 -0.1168 -0.1216 -0.0751
  615ERGO    C1 8963  16.937   8.627   7.842 -0.1357  0.0835 -0.0453
  615ERGO    C2 8964  17.010   8.526   7.396 -0.1114 -0.1147 -0.2339
  616ERGO   ROH 8965  16.664   7.481   9.386  0.3045  0.0446 -0.0357
  616ERGO    R1 8966  16.548   7.340   9.170  0.2750 -0.0856  0.0633
  616ERGO    R2 8967  16.373   7.457   8.991  0.1028 -0.2406  0.1221
  616ERGO    R3 8968  16.549   7.365   8.807  0.0652 -0.1788  0.0555
  616ERGO    R4 8969  16.309   7.431   8.652  0.0257 -0.1649  0.1309
  616ERGO    R5 8970  16.415   7.241   8.652  0.0420 -0.1526  0.0579
  616ERGO    C1 8971  16.438   7.329   8.282 -0.0548 -0.0628  0.0734
  616ERGO    C2 8972  16.355   7.214   7.956  0.0524  0.0149  0.0820
  617ERGO   ROH 8973   9.177  12.108   9.531  0.0244 -0.2493  0.0093
  617ERGO    R1 8974   9.279  12.143   9.269 -0.0134 -0.2226 -0.0014
  617ERGO    R2 8975   9.458  11.967   9.155 -0.0215 -0.2054 -0.0404
  617ERGO    R3 8976   9.273  11.958   8.956 -0.0493 -0.1962 -0.0159
  617ERGO    R4 8977   9.519  11.854   8.834 -0.1014 -0.2995 -0.0237
  617ERGO    R5 8978   9.395  12.017   8.759 -0.0594 -0.2808 -0.0463
  617ERGO    C1 8979   9.380  11.780   8.460 -0.1739 -0.3455  0.0091
  617ERGO    C2 8980   9.560  11.788   8.237  0.1089 -0.1726  0.0309
  618ERGO   ROH 8981   4.175  10.084   9.092  0.1765 -0.3960 -0.0026
  618ERGO    R1 8982   4.084  10.230   8.868  0.2172 -0.1514  0.1348
  618ERGO    R2 8983   4.249  10.400   8.725  0.3586 -0.2966  0.1071
  618ERGO    R3 8984   4.167  10.249   8.514  0.0012 -0.0871  0.0885
  618ERGO    R4 8985   4.321  10.468   8.393  0.2604 -0.2810  0.0898
  618ERGO    R5 8986   4.118  10.408   8.342  0.1414  0.0529  0.1832
  618ERGO    C1 8987   4.286  10.365   8.003 -0.1323 -0.0751  0.0622
  618ERGO    C2 8988   4.372  10.456   7.625 -0.1712  0.0611  0.0157
  619ERGO   ROH 8989   2.170  13.119   9.422  0.0982 -0.2271 -0.0191
  619ERGO    R1 8990   2.117  13.232   9.167 -0.2444 -0.2099  0.0543
  619ERGO    R2 8991   2.305  13.236   8.964 -0.2514  0.4507  0.0340
  619ERGO    R3 8992   2.107  13.114   8.823  0.0678 -0.0380 -0.0167
  619ERGO    R4 8993   2.277  13.239   8.620 -0.1439  0.3119  0.0233
  619ERGO    R5 8994   2.062  13.265   8.642 -0.2175 -0.1759 -0.0622
  619ERGO    C1 8995   2.075  13.128   8.287  0.2183 -0.2279 -0.0307
  619ERGO    C2 8996   2.093  13.161   7.998 -0.4742  0.0025 -0.1545
  620ERGO   ROH 8997  15.773   8.176   9.479 -0.1875  0.2662 -0.0677
  620ERGO    R1 8998  15.724   8.044   9.234 -0.0116  0.1907 -0.0637
  620ERGO    R2 8999  15.497   8.091   9.083  0.0579  0.0843 -0.1994
  620ERGO    R3 9000  15.678   8.142   8.886  0.1495  0.0901 -0.1152
  620ERGO    R4 9001  15.428   8.079   8.744  0.2628 -0.1161 -0.2371
  620ERGO    R5 9002  15.622   7.985   8.713  0.3376 -0.0258 -0.0757
  620ERGO    C1 9003  15.558   8.121   8.362  0.4683 -0.2273 -0.1800
  620ERGO    C2 9004  15.219   8.095   8.156 -0.2242 -0.0576  0.1516
  621ERGO   ROH 9005   5.297  15.783   9.697 -0.1042  0.0995  0.1927
  621ERGO    R1 9006   5.250  15.575   9.511  0.0239  0.0663  0.1951
  621ERGO    R2 9007   5.003  15.453   9.484  0.0790 -0.0456  0.1524
  621ERGO    R3 9008   5.034  15.522   9.223  0.1031 -0.0436  0.1567
  621ERGO    R4 9009   4.826  15.316   9.221  0.0485  0.0198  0.1393
  621ERGO    R5 9010   5.010  15.316   9.104  0.0476 -0.0269  0.1450
  621ERGO    C1 9011   4.752  15.300   8.823  0.0534  0.0600  0.1357
  621ERGO    C2 9012   4.458  15.097   8.559 -0.1663  0.0761 -0.1298
  622ERGO   ROH 9013  16.162   2.537   9.613 -0.0609 -0.0504  0.0951
  622ERGO    R1 9014  15.883   2.558   9.570 -0.0325  0.0335 -0.0590
  622ERGO    R2 9015  15.773   2.595   9.320  0.1090 -0.0920 -0.1414
  622ERGO    R3 9016  15.629   2.374   9.385 -0.0124  0.0086 -0.0618
  622ERGO    R4 9017  15.490   2.489   9.153  0.0232  0.0275 -0.0742
  622ERGO    R5 9018  15.401   2.438   9.346  0.0189  0.1315 -0.0480
  622ERGO    C1 9019  15.190   2.218   9.116 -0.1408  0.1915  0.0396
  622ERGO    C2 9020  14.954   2.290   8.799 -0.3189 -0.0520  0.3049
  623ERGO   ROH 9021   5.411  16.287   9.720 -0.3142 -0.1476 -0.0394
  623ERGO    R1 9022   5.494  16.316   9.451 -0.1402 -0.0175  0.0269
  623ERGO    R2 9023   5.650  16.527   9.365 -0.0848  0.0224  0.2304
  623ERGO    R3 9024   5.811  16.328   9.272 -0.0236  0.0688  0.2341
  623ERGO    R4 9025   5.837  16.544   9.074  0.0118  0.1270  0.2970
  623ERGO    R5 9026   5.783  16.336   9.034  0.0549  0.1271  0.2248
  623ERGO    C1 9027   6.096  16.367   8.818  0.1256  0.2317  0.3391
  623ERGO    C2 9028   6.174  16.401   8.548  0.0374  0.0813  0.0918
  624ERGO   ROH 9029   6.734   4.166   9.947  0.0952 -0.2172 -0.0402
  624ERGO    R1 9030   6.628   4.243   9.696  0.1164 -0.2136 -0.0484
  624ERGO    R2 9031   6.686   4.486   9.578 -0.0684 -0.1073  0.0731
  624ERGO    R3 9032   6.762   4.331   9.368  0.1592  0.0478  0.0368
  624ERGO    R4 9033   6.711   4.595   9.251 -0.3499 -0.0199  0.0782
  624ERGO    R5 9034   6.624   4.405   9.187 -0.0282 -0.1755  0.0815
  624ERGO    C1 9035   6.797   4.512   8.864 -0.3001  0.1765  0.0471
  624ERGO    C2 9036   6.840   4.701   8.668 -0.3178 -0.1335 -0.0418
  625ERGO   ROH 9037   7.081  18.108   9.755 -0.1131  0.1462  0.1393
  625ERGO    R1 9038   6.987  18.126   9.489  0.0099  0.1000  0.0930
  625ERGO    R2 9039   7.051  18.337   9.322  0.0209  0.1072  0.1166
  625ERGO    R3 9040   7.134  18.138   9.156  0.1638  0.1285  0.1592
  625ERGO    R4 9041   7.008  18.336   8.979 -0.0649 -0.0263  0.1262
  625ERGO    R5 9042   6.961  18.123   8.991  0.1292 -0.0744  0.2039
  625ERGO    C1 9043   7.061  18.149   8.624  0.0193 -0.0838  0.1719
  625ERGO    C2 9044   7.040  18.236   8.210 -0.0659  0.1968  0.2495
  626ERGO   ROH 9045   3.723   3.757   9.293 -0.2752 -0.1728 -0.1206
  626ERGO    R1 9046   3.726   3.959   9.094 -0.1176 -0.0552 -0.0012
  626ERGO    R2 9047   3.960   4.073   9.002 -0.0336 -0.1307  0.1219
  626ERGO    R3 9048   3.863   3.997   8.759 -0.0203  0.0695  0.0515
  626ERGO    R4 9049   4.050   4.214   8.700  0.3925 -0.2307  0.1959
  626ERGO    R5 9050   3.842   4.202   8.637  0.4003  0.1321  0.0676
  626ERGO    C1 9051   4.012   4.226   8.296  0.6530 -0.1008  0.1729
  626ERGO    C2 9052   4.087   4.476   8.064 -0.0307 -0.0339  0.0791
  627ERGO   ROH 9053   0.168  18.191   9.994 -0.1958 -0.1173  0.0475
  627ERGO    R1 9054   0.235  18.272   9.731 -0.1865 -0.0781  0.0618
  627ERGO    R2 9055   0.492  18.255   9.631 -0.1733 -0.0090  0.0875
  627ERGO    R3 9056   0.371  18.114   9.432 -0.1176 -0.0184  0.0608
  627ERGO    R4 9057   0.616  18.221   9.310 -0.1931  0.1721  0.0597
  627ERGO    R5 9058   0.413  18.243   9.235 -0.2211  0.0744  0.0960
  627ERGO    C1 9059   0.576  18.068   8.937 -0.1523  0.2689  0.0185
  627ERGO    C2 9060   0.914  17.938   8.705  0.3755 -0.3819  0.2003
  628ERGO   ROH 9061   6.809   5.861   9.271  0.0191 -0.4418 -0.0607
  628ERGO    R1 9062   6.834   5.793   8.998  0.0492 -0.2289 -0.1147
  628ERGO    R2 9063   6.645   5.644   8.864  0.0746 -0.1583 -0.2487
  628ERGO    R3 9064   6.647   5.854   8.692  0.0595 -0.0172 -0.0773
  628ERGO    R4 9065   6.626   5.617   8.520 -0.0139  0.1435 -0.2689
  628ERGO    R5 9066   6.775   5.775   8.504 -0.0031  0.1302 -0.1749
  628ERGO    C1 9067   6.617   5.798   8.158 -0.0795  0.4515 -0.1199
  628ERGO    C2 9068   6.443   5.632   7.979 -0.0483 -0.1421 -0.1883
  629ERGO   ROH 9069   5.730   4.235   9.324  0.1225 -0.1527  0.0950
  629ERGO    R1 9070   5.766   4.216   9.044  0.1239 -0.0628  0.0896
  629ERGO    R2 9071   5.655   4.396   8.866  0.1036 -0.0261  0.1491
  629ERGO    R3 9072   5.912   4.421   8.781  0.0981  0.0326  0.1466
  629ERGO    R4 9073   5.749   4.494   8.549  0.0607 -0.1840  0.0856
  629ERGO    R5 9074   5.908   4.345   8.555  0.1323 -0.1178  0.1892
  629ERGO    C1 9075   6.046   4.576   8.284  0.0305 -0.2208  0.0463
  629ERGO    C2 9076   6.222   4.764   8.019 -0.1376 -0.0678  0.1504
  630ERGO   ROH 9077  12.221  11.775   9.862  0.1543 -0.2675 -0.0460
  630ERGO    R1 9078  12.256  11.845   9.590 -0.0695 -0.1791 -0.0563
  630ERGO    R2 9079  12.501  11.831   9.463 -0.1271  0.0405 -0.2195
  630ERGO    R3 9080  12.364  11.677   9.286 -0.1245 -0.0326 -0.1547
  630ERGO    R4 9081  12.604  11.761   9.141 -0.1616 -0.0683 -0.2055
  630ERGO    R5 9082  12.398  11.784   9.075 -0.1595 -0.1132 -0.1930
  630ERGO    C1 9083  12.536  11.575   8.787 -0.1793 -0.2001 -0.1364
  630ERGO    C2 9084  12.497  11.453   8.431 -0.1123  0.1591  0.0205
  631ERGO   ROH 9085  17.522   9.323   9.018  0.1740  0.0495 -0.0198
  631ERGO    R1 9086  17.605   9.248   8.758  0.3663  0.0922  0.0282
  631ERGO    R2 9087  17.466   9.320   8.530  0.2385 -0.3074 -0.0278
  631ERGO    R3 9088  17.707   9.420   8.453  0.0513  0.1622 -0.0415
  631ERGO    R4 9089  17.538   9.445   8.216  0.0019 -0.2422 -0.0584
  631ERGO    R5 9090  17.732   9.348   8.227  0.2069  0.1478 -0.0211
  631ERGO    C1 9091  17.807   9.611   7.961 -0.3116  0.2364 -0.0891
  631ERGO    C2 9092  18.120   9.894   7.800  0.0946  0.1006  0.2227
  632ERGO   ROH 9093   1.048   8.036   9.026  0.0358  0.0474 -0.0288
  632ERGO    R1 9094   1.008   7.962   8.756  0.1957 -0.0566 -0.0240
  632ERGO    R2 9095   0.962   8.147   8.556  0.0126 -0.1540 -0.0665
  632ERGO    R3 9096   1.174   8.024   8.438  0.1978  0.0872  0.0026
  632ERGO    R4 9097   1.018   8.136   8.215 -0.0494 -0.3570 -0.0723
  632ERGO    R5 9098   1.082   7.929   8.238  0.3022 -0.2441  0.1009
  632ERGO    C1 9099   1.249   8.014   7.905  0.0885 -0.2488 -0.0109
  632ERGO    C2 9100   1.125   8.077   7.594 -0.2493 -0.0781  0.0852
  633ERGO   ROH 9101   7.707  17.459   9.289 -0.0342  0.0294  0.0854
  633ERGO    R1 9102   7.810  17.392   9.034 -0.0062  0.1124  0.0745
  633ERGO    R2 9103   7.647  17.333   8.819  0.0179  0.0501  0.0721
  633ERGO    R3 9104   7.790  17.529   8.698 -0.0892  0.1410  0.0909
  633ERGO    R4 9105   7.633  17.408   8.482  0.1224 -0.0540  0.0440
  633ERGO    R5 9106   7.849  17.436   8.484  0.0976  0.1323  0.1449
  633ERGO    C1 9107   7.759  17.636   8.172  0.0827 -0.0293  0.0453
  633ERGO    C2 9108   7.708  17.802   7.834  0.3126 -0.0305  0.1127
  634ERGO   ROH 9109  17.324   0.590   9.835 -0.1471 -0.1839  0.0255
  634ERGO    R1 9110  17.277   0.742   9.601 -0.2285 -0.3319 -0.0537
  634ERGO    R2 9111  17.478   0.879   9.469 -0.3809  0.1030  0.1607
  634ERGO    R3 9112  17.390   0.736   9.255  0.1859 -0.1417  0.0695
  634ERGO    R4 9113  17.552   0.952   9.140 -0.3101  0.3560  0.2293
  634ERGO    R5 9114  17.346   0.902   9.088 -0.1521 -0.2286  0.0566
  634ERGO    C1 9115  17.512   0.861   8.747  0.2632  0.2737  0.1834
  634ERGO    C2 9116  17.603   0.824   8.394  0.0066  0.4356 -0.2738
  635ERGO   ROH 9117  12.504   0.445  10.009  0.0735  0.1717 -0.0081
  635ERGO    R1 9118  12.468   0.307   9.764  0.0511  0.1781 -0.0085
  635ERGO    R2 9119  12.362   0.428   9.539  0.1023  0.2052 -0.0186
  635ERGO    R3 9120  12.590   0.338   9.422  0.0845  0.1371 -0.0006
  635ERGO    R4 9121  12.426   0.436   9.200  0.0745  0.0662 -0.0274
  635ERGO    R5 9122  12.517   0.239   9.217  0.0574  0.0632  0.0436
  635ERGO    C1 9123  12.678   0.357   8.892  0.0417 -0.0787 -0.0159
  635ERGO    C2 9124  12.956   0.394   8.696 -0.0086 -0.2008  0.0325
  636ERGO   ROH 9125  17.411   3.996   9.235  0.0721  0.1246 -0.1194
  636ERGO    R1 9126  17.293   3.803   9.065 -0.0718  0.0521  0.0628
  636ERGO    R2 9127  17.023   3.802   9.007 -0.0400  0.3117 -0.0714
  636ERGO    R3 9128  17.111   3.804   8.750  0.0957 -0.1248 -0.0394
  636ERGO    R4 9129  16.868   3.641   8.743 -0.2645  0.3643  0.0243
  636ERGO    R5 9130  17.064   3.584   8.669 -0.3307 -0.1266  0.1653
  636ERGO    C1 9131  16.860   3.550   8.348 -0.2677 -0.0147  0.1101
  636ERGO    C2 9132  16.833   3.522   7.986 -0.2565  0.2301 -0.3032
  637ERGO   ROH 9133  18.406   8.766   8.914  0.1667  0.3136 -0.1445
  637ERGO    R1 9134  18.380   8.586   8.698  0.1396  0.1504 -0.0078
  637ERGO    R2 9135  18.137   8.526   8.582  0.1397  0.1578 -0.0117
  637ERGO    R3 9136  18.263   8.601   8.353  0.2192 -0.0750 -0.0465
  637ERGO    R4 9137  17.998   8.512   8.266  0.1426  0.1150 -0.0112
  637ERGO    R5 9138  18.190   8.442   8.190  0.0853 -0.0971  0.0339
  637ERGO    C1 9139  18.036   8.574   7.867  0.2193 -0.1285 -0.0435
  637ERGO    C2 9140  18.027   8.621   7.547 -0.1305  0.1394 -0.0201
  638ERGO   ROH 9141  17.018   2.451   9.266 -0.0236 -0.0753  0.1856
  638ERGO    R1 9142  17.110   2.295   9.048  0.0922  0.0754  0.1240
  638ERGO    R2 9143  16.949   2.112   8.918  0.2584 -0.0799  0.1289
  638ERGO    R3 9144  17.023   2.252   8.698  0.0381  0.0572  0.1400
  638ERGO    R4 9145  16.955   1.985   8.596  0.2213  0.0342  0.0832
  638ERGO    R5 9146  17.142   2.094   8.563  0.1135  0.2043  0.0327
  638ERGO    C1 9147  17.028   2.044   8.202 -0.0071  0.2294  0.0670
  638ERGO    C2 9148  16.871   2.087   7.927  0.3384  0.2728 -0.1251
  639ERGO   ROH 9149  10.791   0.377  10.221 -0.1229  0.0461  0.0227
  639ERGO    R1 9150  10.928   0.475   9.993 -0.1271  0.0954  0.0418
  639ERGO    R2 9151  11.012   0.310   9.789  0.0234  0.1165  0.0891
  639ERGO    R3 9152  10.870   0.482   9.634 -0.0438  0.0069  0.0257
  639ERGO    R4 9153  11.011   0.309   9.443  0.0602  0.0165  0.0882
  639ERGO    R5 9154  11.015   0.527   9.447 -0.0436  0.0224  0.0275
  639ERGO    C1 9155  10.876   0.470   9.096  0.0184 -0.1447  0.0283
  639ERGO    C2 9156  10.800   0.423   8.841  0.1434 -0.2664 -0.0441
  640ERGO   ROH 9157  10.874  14.623   9.405 -0.1929 -0.0253 -0.1115
  640ERGO    R1 9158  10.832  14.530   9.141 -0.0059  0.1216 -0.1953
  640ERGO    R2 9159  10.595  14.413   9.060  0.2187 -0.2811 -0.2953
  640ERGO    R3 9160  10.603  14.604   8.868 -0.1575 -0.0851 -0.1280
  640ERGO    R4 9161  10.371  14.439   8.798  0.0123 -0.3347 -0.1273
  640ERGO    R5 9162  10.538  14.490   8.668 -0.1327  0.0096 -0.1919
  640ERGO    C1 9163  10.249  14.634   8.464 -0.4612 -0.1819  0.1276
  640ERGO    C2 9164   9.999  14.622   8.121  0.0490 -0.3752  0.1251
  641ERGO   ROH 9165   1.805   6.703   8.766  0.0281  0.1707 -0.0707
  641ERGO    R1 9166   1.990   6.541   8.627 -0.0642 -0.0447  0.0525
  641ERGO    R2 9167   1.959   6.267   8.602 -0.3638 -0.0140  0.0339
  641ERGO    R3 9168   1.984   6.321   8.337 -0.1274 -0.0378  0.0494
  641ERGO    R4 9169   2.112   6.060   8.372 -0.4098 -0.1634  0.1367
  641ERGO    R5 9170   2.200   6.236   8.279 -0.1709 -0.2509  0.1960
  641ERGO    C1 9171   2.225   5.990   7.989 -0.2145 -0.2728  0.2109
  641ERGO    C2 9172   2.436   5.867   7.672  0.0750 -0.0601 -0.1787
  642ERGO   ROH 9173   1.712   0.474   9.222  0.0640  0.2103 -0.0014
  642ERGO    R1 9174   1.887   0.515   9.004  0.0232  0.0574 -0.0639
  642ERGO    R2 9175   1.947   0.316   8.821 -0.0645 -0.0515  0.0243
  642ERGO    R3 9176   1.864   0.501   8.641 -0.0639 -0.1254 -0.0527
  642ERGO    R4 9177   1.962   0.278   8.478 -0.0492 -0.1837  0.0390
  642ERGO    R5 9178   2.024   0.486   8.463 -0.0568 -0.1880 -0.0403
  642ERGO    C1 9179   1.894   0.430   8.109 -0.0397 -0.3301 -0.0247
  642ERGO    C2 9180   1.799   0.532   7.824 -0.0977  0.1878  0.0276
  643ERGO   ROH 9181   4.453  13.950   9.480 -0.2029 -0.0507 -0.1047
  643ERGO    R1 9182   4.307  13.815   9.278 -0.4552  0.2048 -0.1002
  643ERGO    R2 9183   4.105  13.937   9.134 -0.0367  0.6843 -0.3235
  643ERGO    R3 9184   4.252  13.856   8.921 -0.1022  0.1145 -0.1673
  643ERGO    R4 9185   3.979  13.874   8.819 -0.0329  0.4731 -0.2830
  643ERGO    R5 9186   4.111  13.702   8.806 -0.3407  0.2078 -0.0007
  643ERGO    C1 9187   4.044  13.760   8.435 -0.0921 -0.1848 -0.1129
  643ERGO    C2 9188   4.077  13.683   8.080 -0.4715 -0.0667  0.1953
  644ERGO   ROH 9189  14.694   4.927   9.079 -0.0014 -0.1317  0.0635
  644ERGO    R1 9190  14.542   4.816   8.867 -0.0184 -0.0583  0.0368
  644ERGO    R2 9191  14.318   4.941   8.763  0.0035  0.0039  0.0619
  644ERGO    R3 9192  14.452   4.913   8.528  0.0021  0.0337  0.0576
  644ERGO    R4 9193  14.197   5.036   8.454 -0.0684 -0.1156  0.0527
  644ERGO    R5 9194  14.282   4.855   8.370  0.0225 -0.0849  0.0793
  644ERGO    C1 9195  14.252   5.065   8.054 -0.1118 -0.1573  0.0434
  644ERGO    C2 9196  14.070   5.249   7.685  0.1585  0.0240 -0.3672
  645ERGO   ROH 9197   9.653   5.983   9.743  0.0156 -0.0212 -0.0122
  645ERGO    R1 9198   9.738   6.052   9.482 -0.1353 -0.0477 -0.0702
  645ERGO    R2 9199  10.003   6.039   9.403 -0.1320  0.2413 -0.1300
  645ERGO    R3 9200   9.903   5.883   9.205  0.0058  0.0103 -0.0213
  645ERGO    R4 9201  10.088   6.065   9.069 -0.1507  0.0671 -0.1490
  645ERGO    R5 9202   9.879   6.031   9.018 -0.1184 -0.1484 -0.1311
  645ERGO    C1 9203  10.043   5.934   8.688 -0.0324 -0.2512 -0.0580
  645ERGO    C2 9204  10.074   5.851   8.383  0.2298 -0.1949  0.0942
  646ERGO   ROH 9205  11.677   5.981   9.781 -0.1181 -0.1622  0.1633
  646ERGO    R1 9206  11.662   5.880   9.516 -0.0854 -0.1196  0.1441
  646ERGO    R2 9207  11.459   5.949   9.342 -0.0979 -0.1345  0.1453
  646ERGO    R3 9208  11.666   6.019   9.180 -0.1052 -0.0568  0.1711
  646ERGO    R4 9209  11.440   5.978   8.998 -0.0502 -0.1769  0.1396
  646ERGO    R5 9210  11.636   5.885   8.984 -0.0089 -0.0866  0.1805
  646ERGO    C1 9211  11.623   6.061   8.646 -0.0291 -0.1287  0.1606
  646ERGO    C2 9212  11.490   6.176   8.421 -0.3122 -0.0044 -0.2434
  647ERGO   ROH 9213  17.545   4.747   8.961  0.0174 -0.0226  0.1854
  647ERGO    R1 9214  17.404   4.670   8.727  0.0671  0.0063  0.1465
  647ERGO    R2 9215  17.384   4.834   8.506  0.1129  0.0336  0.1648
  647ERGO    R3 9216  17.485   4.617   8.376  0.1402  0.0509  0.1559
  647ERGO    R4 9217  17.281   4.723   8.195  0.1882  0.0878  0.1195
  647ERGO    R5 9218  17.295   4.519   8.268  0.1630  0.0740  0.0912
  647ERGO    C1 9219  17.315   4.455   7.893  0.2579  0.1355  0.0847
  647ERGO    C2 9220  17.420   4.262   7.551 -0.0170 -0.0824  0.1743
  648ERGO   ROH 9221  18.440   4.163   9.058 -0.2256  0.0997  0.1681
  648ERGO    R1 9222  18.325   4.229   8.808 -0.0253  0.1853  0.0979
  648ERGO    R2 9223  18.476   4.311   8.592  0.1917 -0.1349  0.1274
  648ERGO    R3 9224  18.349   4.107   8.466 -0.0828  0.0146  0.1523
  648ERGO    R4 9225  18.392   4.307   8.257  0.3854 -0.1440  0.0767
  648ERGO    R5 9226  18.203   4.215   8.310  0.1871  0.1984  0.0126
  648ERGO    C1 9227  18.224   4.113   7.943  0.2406 -0.0090  0.0706
  648ERGO    C2 9228  18.091   4.117   7.594 -0.3021 -0.0035  0.0442
  649ERGO   ROH 9229   0.704   1.523   9.583  0.0598 -0.1279 -0.0893
  649ERGO    R1 9230   0.806   1.549   9.320  0.0946 -0.2499 -0.0894
  649ERGO    R2 9231   0.751   1.367   9.120 -0.1020 -0.2037 -0.0853
  649ERGO    R3 9232   0.668   1.587   8.986  0.1380 -0.1143 -0.0911
  649ERGO    R4 9233   0.684   1.378   8.782 -0.1968 -0.1611 -0.0649
  649ERGO    R5 9234   0.779   1.574   8.774  0.0520 -0.2849 -0.1232
  649ERGO    C1 9235   0.566   1.591   8.458 -0.0266 -0.0524 -0.0585
  649ERGO    C2 9236   0.535   1.551   8.110  0.1127 -0.3302  0.1798
  650ERGO   ROH 9237   7.267   2.902   9.354  0.2328 -0.0004 -0.0185
  650ERGO    R1 9238   7.227   2.873   9.076  0.1022  0.1589 -0.0188
  650ERGO    R2 9239   7.327   3.054   8.891  0.2029  0.1513  0.0220
  650ERGO    R3 9240   7.438   2.831   8.782 -0.0422  0.0937 -0.1128
  650ERGO    R4 9241   7.461   3.036   8.573  0.0911  0.1623 -0.0254
  650ERGO    R5 9242   7.371   2.839   8.552 -0.1030  0.2589 -0.0885
  650ERGO    C1 9243   7.643   2.816   8.285 -0.2042  0.1147 -0.1794
  650ERGO    C2 9244   7.914   2.594   8.105 -0.0451 -0.0456 -0.1770
  651ERGO   ROH 9245   3.727   8.318   9.352  0.2427  0.1044  0.0574
  651ERGO    R1 9246   3.584   8.258   9.115  0.1208 -0.1133  0.1834
  651ERGO    R2 9247   3.586   8.425   8.894 -0.2363 -0.1664  0.1415
  651ERGO    R3 9248   3.665   8.199   8.765 -0.0900 -0.1113  0.1310
  651ERGO    R4 9249   3.581   8.382   8.551  0.0196 -0.0545  0.1214
  651ERGO    R5 9250   3.511   8.178   8.583  0.0399 -0.0866  0.0100
  651ERGO    C1 9251   3.653   8.146   8.230  0.3059  0.0625  0.0998
  651ERGO    C2 9252   3.914   8.229   7.949  0.3413  0.1240  0.2401
  652ERGO   ROH 9253  15.004  16.122   9.630 -0.4341 -0.1295  0.0713
  652ERGO    R1 9254  14.943  16.368   9.504 -0.1801 -0.0598  0.0776
  652ERGO    R2 9255  15.113  16.488   9.321 -0.0334 -0.2069  0.1106
  652ERGO    R3 9256  14.892  16.485   9.163 -0.0145  0.0108  0.0770
  652ERGO    R4 9257  15.096  16.622   9.003  0.1090 -0.1046  0.1451
  652ERGO    R5 9258  14.897  16.696   9.050  0.1624  0.0373  0.1359
  652ERGO    C1 9259  14.879  16.696   8.669  0.2095  0.1592  0.1339
  652ERGO    C2 9260  14.704  16.685   8.365 -0.4152  0.1409 -0.0753
  653ERGO   ROH 9261  17.735   2.910   9.356  0.1430 -0.1318 -0.0601
  653ERGO    R1 9262  17.829   3.060   9.135  0.1105 -0.0493 -0.0188
  653ERGO    R2 9263  17.919   2.942   8.902  0.0786  0.0358 -0.0787
  653ERGO    R3 9264  17.734   3.105   8.786  0.0584  0.0772  0.0121
  653ERGO    R4 9265  17.947   3.080   8.586 -0.1087 -0.0632 -0.1400
  653ERGO    R5 9266  17.864   3.265   8.665  0.0277 -0.0102 -0.1322
  653ERGO    C1 9267  17.790   3.313   8.294 -0.2368 -0.0819 -0.0906
  653ERGO    C2 9268  17.879   3.208   7.917 -0.0716 -0.2787 -0.0325
  654ERGO   ROH 9269   9.447   8.573   9.919 -0.0178 -0.0704 -0.0303
  654ERGO    R1 9270   9.574   8.495   9.678  0.1017 -0.0507  0.0258
  654ERGO    R2 9271   9.542   8.244   9.568 -0.0399  0.0374 -0.1374
  654ERGO    R3 9272   9.470   8.385   9.347  0.2605  0.2273 -0.1206
  654ERGO    R4 9273   9.583   8.135   9.243 -0.2070  0.0183 -0.1530
  654ERGO    R5 9274   9.642   8.338   9.188  0.1966 -0.0782 -0.1057
  654ERGO    C1 9275   9.538   8.204   8.846 -0.0222  0.1853 -0.1462
  654ERGO    C2 9276   9.541   8.270   8.525 -0.2480 -0.2284 -0.0348
  655ERGO   ROH 9277   7.475   5.134   9.740 -0.2930 -0.0671 -0.1233
  655ERGO    R1 9278   7.544   5.268   9.501 -0.3846  0.1343 -0.0403
  655ERGO    R2 9279   7.736   5.172   9.326  0.0386  0.6146  0.1263
  655ERGO    R3 9280   7.535   5.194   9.145  0.1404  0.1370 -0.0593
  655ERGO    R4 9281   7.780   5.234   8.989  0.1856  0.5219  0.1274
  655ERGO    R5 9282   7.608   5.367   8.996 -0.0746  0.1974 -0.0870
  655ERGO    C1 9283   7.617   5.292   8.622  0.3668  0.0195 -0.0463
  655ERGO    C2 9284   7.466   5.362   8.255 -0.0590  0.2964 -0.0270
  656ERGO   ROH 9285   9.055   0.026  10.041  0.0590 -0.1243 -0.1395
  656ERGO    R1 9286   9.018   0.129   9.780  0.0054 -0.1506 -0.1423
  656ERGO    R2 9287   9.228   0.207   9.619 -0.0405  0.0730 -0.0963
  656ERGO    R3 9288   9.114   0.035   9.442  0.1708 -0.0373 -0.1282
  656ERGO    R4 9289   9.294   0.201   9.280  0.0205  0.1752 -0.0866
  656ERGO    R5 9290   9.081   0.166   9.245  0.0590 -0.0523 -0.1215
  656ERGO    C1 9291   9.225   0.036   8.916  0.2543  0.1311 -0.1110
  656ERGO    C2 9292   9.454  -0.008   8.737  0.0808  0.0512  0.1751
  657ERGO   ROH 9293   6.547  12.332   9.115  0.0499  0.0437 -0.0852
  657ERGO    R1 9294   6.693  12.230   8.894 -0.0229 -0.1223 -0.0592
  657ERGO    R2 9295   6.577  12.072   8.700 -0.1714  0.0101 -0.0854
  657ERGO    R3 9296   6.678  12.260   8.532  0.0775 -0.0990 -0.0609
  657ERGO    R4 9297   6.624  12.029   8.360 -0.1359 -0.0365 -0.0741
  657ERGO    R5 9298   6.813  12.136   8.377 -0.0217 -0.2451 -0.0292
  657ERGO    C1 9299   6.747  12.180   8.004  0.1185 -0.1661 -0.0445
  657ERGO    C2 9300   6.633  12.135   7.704 -0.1731  0.1063 -0.2656
  658ERGO   ROH 9301   6.178  17.097   9.918  0.1073 -0.0186  0.0821
  658ERGO    R1 9302   6.281  17.267   9.717  0.0068  0.0074  0.0527
  658ERGO    R2 9303   6.321  17.182   9.457  0.0505 -0.0126  0.0690
  658ERGO    R3 9304   6.167  17.398   9.397 -0.0725 -0.1093  0.0320
  658ERGO    R4 9305   6.314  17.342   9.150  0.0219 -0.0231  0.0636
  658ERGO    R5 9306   6.304  17.532   9.255 -0.1214 -0.0247  0.0607
  658ERGO    C1 9307   6.164  17.636   8.916 -0.1101 -0.1196  0.0258
  658ERGO    C2 9308   6.094  17.797   8.541  0.0140  0.1250 -0.2404
  659ERGO   ROH 9309   8.303   3.447  10.139 -0.3189  0.2351  0.0177
  659ERGO    R1 9310   8.231   3.341   9.886 -0.2337  0.1394  0.0323
  659ERGO    R2 9311   8.076   3.480   9.704 -0.2393  0.0421 -0.0456
  659ERGO    R3 9312   8.284   3.430   9.537 -0.1848  0.0559  0.0197
  659ERGO    R4 9313   8.070   3.522   9.361 -0.1732 -0.1016 -0.0644
  659ERGO    R5 9314   8.184   3.338   9.341 -0.0997 -0.0612  0.0349
  659ERGO    C1 9315   8.263   3.500   9.005 -0.0836 -0.1722 -0.0140
  659ERGO    C2 9316   8.277   3.419   8.662  0.0276  0.0438  0.0044
  660ERGO   ROH 9317  15.996  16.079   9.742 -0.2168 -0.0626  0.0031
  660ERGO    R1 9318  15.818  16.026   9.529 -0.1143  0.0127 -0.1016
  660ERGO    R2 9319  15.558  16.121   9.524 -0.1266 -0.0278 -0.1695
  660ERGO    R3 9320  15.634  16.223   9.284 -0.0382  0.1020 -0.0885
  660ERGO    R4 9321  15.354  16.142   9.246  0.0174 -0.0202 -0.2761
  660ERGO    R5 9322  15.524  16.083   9.123  0.1180  0.1087 -0.2052
  660ERGO    C1 9323  15.306  16.251   8.859  0.1841  0.1061 -0.2622
  660ERGO    C2 9324  15.169  16.349   8.575  0.0905 -0.2536 -0.2271
  661ERGO   ROH 9325  13.289   5.933   9.725  0.1831  0.0005 -0.1235
  661ERGO    R1 9326  13.122   5.877   9.504  0.2074 -0.0941 -0.1195
  661ERGO    R2 9327  13.153   6.001   9.259  0.1031 -0.0412 -0.1118
  661ERGO    R3 9328  13.164   5.746   9.167  0.2833 -0.0250 -0.1356
  661ERGO    R4 9329  13.022   5.895   8.957 -0.0030 -0.1521 -0.0275
  661ERGO    R5 9330  12.954   5.714   9.057  0.2401 -0.2230  0.0072
  661ERGO    C1 9331  12.957   5.594   8.694  0.1046 -0.2015 -0.0008
  661ERGO    C2 9332  12.841   5.508   8.320 -0.0384 -0.0628 -0.1751
  662ERGO   ROH 9333  13.905  15.384  10.244  0.0099 -0.0473  0.0813
  662ERGO    R1 9334  13.953  15.501   9.992 -0.0030 -0.0329  0.0854
  662ERGO    R2 9335  14.207  15.569   9.905 -0.0022 -0.0764  0.0551
  662ERGO    R3 9336  14.140  15.415   9.691 -0.0644 -0.0418  0.0495
  662ERGO    R4 9337  14.331  15.611   9.585 -0.1857  0.0534 -0.0005
  662ERGO    R5 9338  14.131  15.569   9.508 -0.2145  0.0064  0.0947
  662ERGO    C1 9339  14.340  15.491   9.198 -0.3509  0.1615 -0.0381
  662ERGO    C2 9340  14.681  15.508   8.922 -0.2655  0.4304  0.0147
  663ERGO   ROH 9341   7.999  16.215   9.472  0.2607  0.0169 -0.1167
  663ERGO    R1 9342   7.867  16.328   9.248  0.1916  0.0011 -0.0837
  663ERGO    R2 9343   7.994  16.496   9.069  0.1670 -0.1019 -0.1974
  663ERGO    R3 9344   7.903  16.317   8.886  0.0040 -0.1208 -0.1005
  663ERGO    R4 9345   7.911  16.572   8.743 -0.0554 -0.1459 -0.1528
  663ERGO    R5 9346   7.740  16.438   8.760 -0.0676 -0.1150 -0.0053
  663ERGO    C1 9347   7.777  16.448   8.380 -0.3378 -0.1892 -0.0360
  663ERGO    C2 9348   7.806  16.296   7.956 -0.0815 -0.0582  0.0517
  664ERGO   ROH 9349   4.097  13.533   9.532  0.1271 -0.0047 -0.1054
  664ERGO    R1 9350   3.894  13.433   9.362 -0.0916  0.1236  0.0734
  664ERGO    R2 9351   3.790  13.580   9.152 -0.0437  0.1162  0.0418
  664ERGO    R3 9352   3.858  13.360   9.007 -0.3810 -0.0569  0.1364
  664ERGO    R4 9353   3.717  13.533   8.817  0.1230  0.2141 -0.0087
  664ERGO    R5 9354   3.672  13.324   8.861 -0.3468  0.3067 -0.0055
  664ERGO    C1 9355   3.739  13.299   8.487 -0.0967  0.1085  0.0509
  664ERGO    C2 9356   3.773  13.257   8.151 -0.1087 -0.1576  0.0608
  665ERGO   ROH 9357  14.216  11.978   9.776 -0.0182  0.0825 -0.0251
  665ERGO    R1 9358  14.336  12.023   9.524 -0.0037  0.0851 -0.0175
  665ERGO    R2 9359  14.392  11.819   9.346  0.1413  0.0698  0.0448
  665ERGO    R3 9360  14.246  11.972   9.175  0.0811 -0.0572 -0.0189
  665ERGO    R4 9361  14.444  11.840   9.005  0.0409 -0.1574  0.0131
  665ERGO    R5 9362  14.405  12.054   9.017  0.0288 -0.1518 -0.1217
  665ERGO    C1 9363  14.338  11.996   8.646 -0.0743 -0.4088 -0.0652
  665ERGO    C2 9364  14.468  11.863   8.348 -0.1549 -0.0957 -0.2305
  666ERGO   ROH 9365   1.435   6.996   8.769 -0.2219  0.2793 -0.1787
  666ERGO    R1 9366   1.572   6.985   8.522 -0.1822  0.2552 -0.1559
  666ERGO    R2 9367   1.577   6.758   8.364 -0.0829  0.2104 -0.0921
  666ERGO    R3 9368   1.486   6.929   8.173 -0.1137  0.1263 -0.1526
  666ERGO    R4 9369   1.561   6.687   8.026 -0.0655  0.0902 -0.0675
  666ERGO    R5 9370   1.629   6.890   7.985 -0.1046  0.0885 -0.1372
  666ERGO    C1 9371   1.466   6.805   7.651 -0.0842 -0.0588 -0.1101
  666ERGO    C2 9372   1.435   6.861   7.419  0.2567 -0.3932  0.1860
  667ERGO   ROH 9373  18.306   8.278   9.024 -0.1287 -0.0173  0.0412
  667ERGO    R1 9374  18.362   8.089   8.821 -0.1676  0.0571 -0.0381
  667ERGO    R2 9375  18.269   8.116   8.563  0.0891  0.3432 -0.1007
  667ERGO    R3 9376  18.532   8.089   8.499  0.1181  0.0836  0.1072
  667ERGO    R4 9377  18.387   8.017   8.253  0.2269  0.5423 -0.1145
  667ERGO    R5 9378  18.538   7.897   8.356 -0.0088  0.2282 -0.1062
  667ERGO    C1 9379  18.703   7.934   8.014  0.3343  0.4147  0.0727
  667ERGO    C2 9380  18.703   7.861   7.632 -0.0359  0.2190  0.1788
  668ERGO   ROH 9381   9.231  14.196   9.812 -0.1249  0.0421 -0.0069
  668ERGO    R1 9382   9.320  14.034   9.597 -0.1283 -0.0818  0.0834
  668ERGO    R2 9383   9.208  13.788   9.539 -0.2297 -0.0498  0.1351
  668ERGO    R3 9384   9.177  13.897   9.292 -0.0894 -0.1235  0.0842
  668ERGO    R4 9385   9.169  13.608   9.247 -0.1204 -0.1348  0.1726
  668ERGO    R5 9386   9.299  13.751   9.146 -0.0458 -0.1917  0.1898
  668ERGO    C1 9387   9.117  13.605   8.845  0.0749 -0.2535  0.1467
  668ERGO    C2 9388   9.088  13.580   8.512  0.0787  0.2297  0.1743
  669ERGO   ROH 9389   7.128  16.518   9.530 -0.0889  0.0856 -0.0419
  669ERGO    R1 9390   7.207  16.623   9.280 -0.2356  0.1989 -0.0420
  669ERGO    R2 9391   7.314  16.466   9.079  0.0889  0.3609  0.0003
  669ERGO    R3 9392   7.114  16.575   8.931 -0.0911 -0.0208 -0.0529
  669ERGO    R4 9393   7.308  16.478   8.734  0.1980  0.4086 -0.0008
  669ERGO    R5 9394   7.227  16.680   8.747 -0.2287  0.2494  0.0085
  669ERGO    C1 9395   7.117  16.588   8.394  0.0925  0.0779 -0.0514
  669ERGO    C2 9396   7.228  16.443   8.181 -0.3396 -0.1070 -0.0724
  670ERGO   ROH 9397  14.701  11.290   9.510 -0.1584  0.1181  0.0608
  670ERGO    R1 9398  14.644  11.401   9.256 -0.1208  0.1396  0.0618
  670ERGO    R2 9399  14.786  11.612   9.149 -0.0327  0.0754  0.0534
  670ERGO    R3 9400  14.819  11.442   8.939 -0.1158  0.0581  0.0537
  670ERGO    R4 9401  14.826  11.709   8.820  0.0630  0.0561  0.0584
  670ERGO    R5 9402  14.697  11.544   8.760 -0.0338  0.1369  0.0420
  670ERGO    C1 9403  14.879  11.606   8.431  0.0407  0.0286  0.0618
  670ERGO    C2 9404  14.861  11.785   8.044 -0.0290 -0.0235  0.2001
  671ERGO   ROH 9405  16.203  14.260   9.839  0.2035  0.0693 -0.1259
  671ERGO    R1 9406  16.185  14.138   9.584  0.1418  0.0289 -0.1020
  671ERGO    R2 9407  15.944  14.080   9.463  0.1146 -0.0548 -0.0018
  671ERGO    R3 9408  16.049  14.225   9.258 -0.0043 -0.0564 -0.0655
  671ERGO    R4 9409  15.815  14.091   9.142  0.0153 -0.1889  0.0322
  671ERGO    R5 9410  16.019  14.086   9.065 -0.0002 -0.1188 -0.0247
  671ERGO    C1 9411  15.838  14.234   8.763 -0.1540 -0.2682 -0.0079
  671ERGO    C2 9412  15.817  14.121   8.526 -0.0012 -0.0223 -0.0786
  672ERGO   ROH 9413   8.144  17.244   9.370 -0.0278  0.0360  0.0291
  672ERGO    R1 9414   8.243  17.159   9.119  0.0213 -0.0201  0.0657
  672ERGO    R2 9415   8.093  17.005   8.944  0.0277 -0.0085  0.0375
  672ERGO    R3 9416   8.152  17.205   8.770  0.1256 -0.0380  0.0385
  672ERGO    R4 9417   8.043  16.991   8.603 -0.0166  0.0501  0.0422
  672ERGO    R5 9418   8.234  17.092   8.575  0.0330 -0.0669  0.0243
  672ERGO    C1 9419   8.070  17.170   8.240  0.0494  0.0565  0.0459
  672ERGO    C2 9420   7.859  17.179   7.938  0.2179  0.3018  0.1576
  673ERGO   ROH 9421   0.266   5.204   9.005  0.1374  0.0373  0.1439
  673ERGO    R1 9422   0.377   5.181   8.746  0.1181  0.1147  0.1279
  673ERGO    R2 9423   0.224   5.117   8.525  0.1414 -0.0646  0.1585
  673ERGO    R3 9424   0.333   5.345   8.424 -0.1008  0.0341  0.1161
  673ERGO    R4 9425   0.161   5.242   8.209 -0.0194 -0.1634  0.1509
  673ERGO    R5 9426   0.372   5.294   8.193 -0.0755  0.0486  0.1198
  673ERGO    C1 9427   0.226   5.528   7.930 -0.3404 -0.1283  0.1066
  673ERGO    C2 9428   0.130   5.601   7.537 -0.1930 -0.0668  0.0773
  674ERGO   ROH 9429   4.418   6.649   9.373  0.2591  0.0185  0.0246
  674ERGO    R1 9430   4.238   6.506   9.208 -0.0237  0.1506  0.2110
  674ERGO    R2 9431   4.047   6.632   9.053  0.1009  0.3146  0.1951
  674ERGO    R3 9432   4.163   6.490   8.852 -0.1932 -0.0225  0.2519
  674ERGO    R4 9433   3.939   6.631   8.724  0.2604  0.6545  0.1357
  674ERGO    R5 9434   3.979   6.416   8.718 -0.3567  0.5170  0.1498
  674ERGO    C1 9435   3.985   6.497   8.345  0.0773  0.5360  0.1543
  674ERGO    C2 9436   4.154   6.479   8.055  0.2499  0.1532 -0.0476
  675PSPI    C1 9437   4.042  13.297   5.641 -0.0157  0.1256 -0.1547
  675PSPI    C2 9438   3.677  13.138   5.683 -0.0042  0.1166 -0.0893
  675PSPI    C3 9439   3.935  12.980   5.421 -0.0605  0.1465 -0.1630
  675PSPI   PO4 9440   4.070  13.252   5.907 -0.1841  0.3885 -0.0214
  675PSPI   GL1 9441   3.858  13.345   6.313 -0.0976  0.1690  0.0519
  675PSPI   GL2 9442   4.030  13.417   6.551 -0.2108 -0.1332 -0.0130
  675PSPI   C1A 9443   3.534  13.251   6.636 -0.0537 -0.0789  0.1662
  675PSPI   C2A 9444   3.252  13.596   6.677  0.0185 -0.2270 -0.1367
  675PSPI   C3A 9445   3.091  13.848   7.128 -0.1702 -0.0216  0.2261
  675PSPI   C4A 9446   3.187  13.763   7.522 -0.3361  0.1112 -0.0306
  675PSPI   C1B 9447   4.114  13.047   6.920 -0.4100  0.1621  0.1240
  675PSPI   C2B 9448   4.145  12.587   6.996  0.2038  0.1401 -0.1396
  675PSPI   C3B 9449   4.350  12.404   7.325  0.2452 -0.0567  0.0350
  675PSPI   C4B 9450   4.473  12.598   7.771  0.0186  0.2181  0.5261
  676PSPI    C1 9451  17.271   1.320   5.614  0.0473 -0.0298 -0.0280
  676PSPI    C2 9452  16.929   1.286   5.819  0.0679 -0.2272 -0.0234
  676PSPI    C3 9453  17.016   1.022   5.532  0.2481 -0.2183  0.0218
  676PSPI   PO4 9454  17.450   1.292   5.784 -0.1567  0.2552 -0.0904
  676PSPI   GL1 9455  17.360   1.365   6.174 -0.0832 -0.0761  0.0868
  676PSPI   GL2 9456  17.257   1.668   6.234 -0.2619 -0.0638 -0.1784
  676PSPI   C1A 9457  17.202   1.293   6.548  0.1808  0.2728 -0.0571
  676PSPI   C2A 9458  17.221   1.159   6.890 -0.2321  0.0136 -0.3969
  676PSPI   C3A 9459  17.165   1.141   7.315 -0.2633  0.2826  0.0678
  676PSPI   C4A 9460  17.365   1.446   7.669  0.0655  0.4847  0.2290
  676PSPI   C1B 9461  17.525   1.882   6.566 -0.1557  0.1935  0.0663
  676PSPI   C2B 9462  17.660   1.966   6.961  0.1418  0.0847  0.1002
  676PSPI   C3B 9463  17.822   1.934   7.338  0.3475 -0.0977 -0.2868
  676PSPI   C4B 9464  18.040   2.069   7.694 -0.0799 -0.0952 -0.2588
  677PSPI    C1 9465  12.181  17.930   6.037 -0.0517 -0.0283  0.1157
  677PSPI    C2 9466  11.806  17.882   6.168 -0.0856  0.0930  0.0646
  677PSPI    C3 9467  11.874  18.044   5.808  0.0101 -0.1361 -0.0224
  677PSPI   PO4 9468  12.311  18.023   6.258  0.1073  0.1810 -0.1187
  677PSPI   GL1 9469  12.296  18.010   6.704  0.3685  0.0544 -0.0287
  677PSPI   GL2 9470  12.591  17.656   6.647 -0.2434 -0.2024  0.2408
  677PSPI   C1A 9471  12.198  18.219   7.016  0.1404  0.0179 -0.0659
  677PSPI   C2A 9472  12.452  18.388   7.411 -0.2494 -0.0349  0.2378
  677PSPI   C3A 9473  12.524  18.335   7.815  0.1591  0.2472  0.1220
  677PSPI   C4A 9474  12.210  18.466   7.944  0.2594  0.0600  0.0827
  677PSPI   C1B 9475  12.541  17.714   7.103  0.1305  0.0572 -0.2670
  677PSPI   C2B 9476  12.491  17.815   7.494  0.4261  0.2180  0.0300
  677PSPI   C3B 9477  12.690  17.772   7.887  0.1643  0.1953 -0.1757
  677PSPI   C4B 9478  12.758  17.598   8.332  0.1056 -0.0855 -0.2369
  678PSPI    C1 9479   6.268  13.313   5.372  0.0021  0.0895 -0.0802
  678PSPI    C2 9480   6.302  12.984   5.147  0.2496  0.0504  0.0116
  678PSPI    C3 9481   6.146  13.318   4.991  0.2095 -0.0427 -0.1498
  678PSPI   PO4 9482   6.494  13.334   5.599  0.1168 -0.0560  0.1284
  678PSPI   GL1 9483   6.445  13.522   6.022 -0.0745  0.0415 -0.1317
  678PSPI   GL2 9484   6.309  13.852   6.071  0.0724  0.0320 -0.1066
  678PSPI   C1A 9485   6.468  13.552   6.550  0.0355  0.1593  0.3047
  678PSPI   C2A 9486   6.312  13.922   6.805  0.1058  0.1913  0.1145
  678PSPI   C3A 9487   6.352  14.040   7.210 -0.0879  0.2643 -0.0992
  678PSPI   C4A 9488   6.382  14.063   7.700 -0.0061  0.3665  0.0280
  678PSPI   C1B 9489   6.469  14.003   6.391 -0.0760  0.2278 -0.0342
  678PSPI   C2B 9490   6.366  14.391   6.575  0.2405  0.1203  0.0261
  678PSPI   C3B 9491   6.285  14.483   6.969 -0.0090 -0.1804 -0.2168
  678PSPI   C4B 9492   6.086  14.415   7.285 -0.0074 -0.0343  0.1712
  679PSPI    C1 9493   6.831   2.622   5.758  0.0431  0.0142 -0.0753
  679PSPI    C2 9494   6.451   2.528   5.677  0.0061  0.1476 -0.0587
  679PSPI    C3 9495   6.748   2.332   5.495 -0.0665 -0.1257  0.1114
  679PSPI   PO4 9496   6.868   2.721   6.062  0.0449 -0.2266 -0.0856
  679PSPI   GL1 9497   6.922   2.587   6.388  0.0554 -0.1033  0.2447
  679PSPI   GL2 9498   6.899   2.332   6.512  0.1501  0.0599 -0.1055
  679PSPI   C1A 9499   7.271   2.589   6.641 -0.0833  0.0153 -0.0333
  679PSPI   C2A 9500   7.511   2.589   6.998 -0.0523 -0.1890 -0.2295
  679PSPI   C3A 9501   7.184   2.508   7.377  0.1172 -0.0494  0.0215
  679PSPI   C4A 9502   7.067   2.355   7.803  0.1633 -0.3337  0.1446
  679PSPI   C1B 9503   6.819   2.596   6.866 -0.0543  0.2668  0.1747
  679PSPI   C2B 9504   7.012   2.816   7.069 -0.3978 -0.1866  0.1971
  679PSPI   C3B 9505   6.964   3.130   7.422 -0.2000  0.2202 -0.5450
  679PSPI   C4B 9506   7.029   3.228   7.847 -0.2430 -0.0807  0.0303
  680PSPI    C1 9507   9.726  17.001   5.968  0.1028 -0.1562  0.0767
  680PSPI    C2 9508   9.836  16.848   5.615 -0.3051 -0.1718 -0.0489
  680PSPI    C3 9509   9.739  17.235   5.644  0.0074 -0.1016  0.1123
  680PSPI   PO4 9510   9.544  16.875   6.073  0.0132  0.2254 -0.0562
  680PSPI   GL1 9511   9.293  16.583   6.271  0.0464 -0.0105  0.2537
  680PSPI   GL2 9512   9.044  16.468   6.376  0.0861  0.1746 -0.0391
  680PSPI   C1A 9513   9.597  16.441   6.552  0.1858 -0.1416 -0.4194
  680PSPI   C2A 9514   9.734  16.491   6.918 -0.0383  0.1781  0.0223
  680PSPI   C3A 9515   9.459  16.497   7.351  0.2155  0.0530  0.0962
  680PSPI   C4A 9516   9.434  16.270   7.651  0.0507 -0.0171 -0.0801
  680PSPI   C1B 9517   9.143  16.655   6.820 -0.0714  0.1764 -0.1531
  680PSPI   C2B 9518   8.951  16.639   7.171 -0.0519  0.0905  0.0096
  680PSPI   C3B 9519   9.070  16.702   7.570  0.0998 -0.1522  0.0421
  680PSPI   C4B 9520   9.045  16.552   7.973  0.2572  0.0700  0.1016
  681PSPI    C1 9521   2.230   2.605   5.239 -0.1823  0.1119 -0.2972
  681PSPI    C2 9522   2.159   2.211   5.235 -0.0676  0.0894 -0.1857
  681PSPI    C3 9523   2.448   2.365   5.006  0.1629  0.0527  0.0748
  681PSPI   PO4 9524   2.272   2.622   5.571  0.0395 -0.0776 -0.1832
  681PSPI   GL1 9525   2.200   2.437   6.042 -0.2572  0.3772 -0.2116
  681PSPI   GL2 9526   2.100   2.114   5.809  0.3010 -0.2313  0.0143
  681PSPI   C1A 9527   2.234   2.422   6.524  0.0681  0.2525 -0.0175
  681PSPI   C2A 9528   2.061   2.460   6.972  0.0312 -0.0194  0.0436
  681PSPI   C3A 9529   1.866   2.141   7.221  0.0581  0.1778  0.0137
  681PSPI   C4A 9530   1.788   1.815   7.514 -0.1204 -0.0039 -0.0449
  681PSPI   C1B 9531   2.117   1.987   6.305 -0.0147 -0.0270  0.0488
  681PSPI   C2B 9532   2.041   1.951   6.793  0.0510  0.0095  0.2992
  681PSPI   C3B 9533   1.865   1.634   6.981 -0.0783 -0.1626  0.0074
  681PSPI   C4B 9534   1.479   1.478   6.853  0.2021 -0.1079  0.0197
  682PSPI    C1 9535  15.381   8.799   5.271  0.0993 -0.0242  0.0285
  682PSPI    C2 9536  15.255   9.072   5.535 -0.2257 -0.0913 -0.0516
  682PSPI    C3 9537  15.020   8.968   5.229  0.1216 -0.0599 -0.3353
  682PSPI   PO4 9538  15.351   8.560   5.470 -0.0717 -0.1455 -0.2939
  682PSPI   GL1 9539  15.129   8.408   5.853 -0.0516  0.0577  0.1359
  682PSPI   GL2 9540  15.326   8.772   5.909 -0.1145 -0.1492  0.1673
  682PSPI   C1A 9541  15.413   8.190   6.206 -0.5522  0.3873 -0.0669
  682PSPI   C2A 9542  15.329   7.915   6.445  0.0544  0.0343 -0.0050
  682PSPI   C3A 9543  15.284   7.945   6.961 -0.0442  0.1212  0.1813
  682PSPI   C4A 9544  15.203   7.631   7.302  0.2955 -0.0765 -0.0903
  682PSPI   C1B 9545  15.458   8.890   6.324 -0.0104 -0.0447  0.2044
  682PSPI   C2B 9546  15.389   9.033   6.774  0.3750 -0.1116  0.0809
  682PSPI   C3B 9547  15.307   9.271   7.189  0.2073  0.2578 -0.0887
  682PSPI   C4B 9548  15.038   9.429   7.513  0.2505 -0.0425 -0.0285
  683PSPI    C1 9549   5.914  14.254   5.601  0.0997 -0.0012  0.0568
  683PSPI    C2 9550   6.288  14.254   5.457  0.0699  0.2546 -0.0270
  683PSPI    C3 9551   6.106  14.600   5.541 -0.1783  0.1357 -0.0633
  683PSPI   PO4 9552   5.909  14.089   5.805  0.3580 -0.2626  0.2719
  683PSPI   GL1 9553   5.957  14.164   6.289  0.1406  0.1905  0.0645
  683PSPI   GL2 9554   5.669  13.926   6.290  0.0358  0.4141  0.1991
  683PSPI   C1A 9555   5.892  14.193   6.636  0.1439  0.1082 -0.2295
  683PSPI   C2A 9556   5.886  13.972   7.070 -0.3863  0.2366  0.0136
  683PSPI   C3A 9557   5.968  13.936   7.529  0.0637 -0.0978 -0.0385
  683PSPI   C4A 9558   5.987  14.065   7.987 -0.3465 -0.1624 -0.0019
  683PSPI   C1B 9559   5.457  13.861   6.686  0.3711  0.0647  0.1566
  683PSPI   C2B 9560   5.437  13.766   7.097 -0.1518  0.4631  0.2906
  683PSPI   C3B 9561   5.590  13.633   7.576  0.3201  0.0265  0.2535
  683PSPI   C4B 9562   5.566  13.667   7.984 -0.2966 -0.2003 -0.0885
  684PSPI    C1 9563  10.795   4.715   6.173 -0.3630  0.2096  0.0802
  684PSPI    C2 9564  10.658   4.659   5.801 -0.0376  0.0505 -0.0195
  684PSPI    C3 9565  11.052   4.680   5.868 -0.0909 -0.0088  0.3289
  684PSPI   PO4 9566  10.669   4.964   6.274 -0.0411 -0.1350 -0.0167
  684PSPI   GL1 9567  10.632   5.230   6.602  0.3181  0.1295 -0.1445
  684PSPI   GL2 9568  10.573   5.538   6.651 -0.3832  0.2427  0.0252
  684PSPI   C1A 9569  10.339   5.082   6.881  0.0179  0.2435 -0.0958
  684PSPI   C2A 9570  10.224   5.104   7.258 -0.1973 -0.0256 -0.1390
  684PSPI   C3A 9571  10.035   5.523   7.237 -0.1276 -0.4011  0.1117
  684PSPI   C4A 9572   9.785   5.725   7.493  0.0745 -0.0719  0.1584
  684PSPI   C1B 9573  10.625   5.452   7.059  0.2923 -0.0440  0.0256
  684PSPI   C2B 9574  10.463   5.521   7.411 -0.1354  0.1416 -0.4944
  684PSPI   C3B 9575  10.268   5.627   7.700  0.2384 -0.1380  0.0909
  684PSPI   C4B 9576  10.079   5.509   8.051  0.0782 -0.0129 -0.0952
  685PSPI    C1 9577   7.995   8.401   5.686 -0.1556 -0.0677 -0.2058
  685PSPI    C2 9578   8.007   8.132   5.390  0.1094 -0.1648 -0.1102
  685PSPI    C3 9579   8.317   8.376   5.451  0.0194 -0.0843  0.0318
  685PSPI   PO4 9580   7.819   8.536   5.696  0.2264 -0.1525 -0.1324
  685PSPI   GL1 9581   7.587   8.615   6.078  0.0157  0.1021 -0.0237
  685PSPI   GL2 9582   7.614   8.276   6.082 -0.2717  0.1530  0.1118
  685PSPI   C1A 9583   7.851   8.765   6.486 -0.0434 -0.2082 -0.4237
  685PSPI   C2A 9584   7.981   8.581   6.791  0.3363 -0.1695  0.4429
  685PSPI   C3A 9585   7.985   8.550   7.323  0.3870 -0.2434  0.0033
  685PSPI   C4A 9586   7.928   8.605   7.808  0.2044  0.2656  0.1970
  685PSPI   C1B 9587   7.811   8.135   6.453  0.1197 -0.0339 -0.2402
  685PSPI   C2B 9588   7.703   8.246   6.917 -0.0996  0.0517 -0.0712
  685PSPI   C3B 9589   7.488   8.212   7.340 -0.2830 -0.0749 -0.1969
  685PSPI   C4B 9590   7.409   8.329   7.714  0.1354  0.3246 -0.1446
  686PSPI    C1 9591   0.435   4.781   4.993  0.1258  0.0190  0.0508
  686PSPI    C2 9592   0.130   4.695   4.749 -0.0187 -0.0908  0.2673
  686PSPI    C3 9593   0.122   5.030   4.969  0.0386 -0.0707  0.2387
  686PSPI   PO4 9594   0.445   4.499   5.104  0.0644  0.2023 -0.3264
  686PSPI   GL1 9595   0.517   4.506   5.424  0.1538 -0.0816  0.0901
  686PSPI   GL2 9596   0.534   4.254   5.638 -0.0936  0.1287  0.2208
  686PSPI   C1A 9597   0.547   4.905   5.704 -0.0336 -0.0775 -0.2008
  686PSPI   C2A 9598   0.811   5.035   5.938 -0.1612  0.1661  0.0989
  686PSPI   C3A 9599   1.123   5.170   6.201  0.1837  0.0370  0.0330
  686PSPI   C4A 9600   1.534   5.299   6.287 -0.0093  0.1983 -0.1337
  686PSPI   C1B 9601   0.912   4.559   5.764  0.2808  0.2234 -0.2038
  686PSPI   C2B 9602   1.094   4.647   6.069  0.0764 -0.1717 -0.1943
  686PSPI   C3B 9603   1.262   4.729   6.454 -0.1086  0.0968 -0.0889
  686PSPI   C4B 9604   1.446   4.946   6.833  0.1077  0.0344 -0.1178
  687PSPI    C1 9605   4.521  17.061   5.571  0.1824  0.0747  0.1317
  687PSPI    C2 9606   4.304  16.775   5.394  0.1214  0.2584 -0.0955
  687PSPI    C3 9607   4.696  16.722   5.450  0.0421 -0.0301  0.2194
  687PSPI   PO4 9608   4.387  17.088   5.835 -0.0379  0.0095 -0.1286
  687PSPI   GL1 9609   4.415  17.335   6.207  0.1484 -0.3099 -0.2980
  687PSPI   GL2 9610   4.523  17.673   6.189  0.1027  0.2103 -0.1014
  687PSPI   C1A 9611   4.493  17.462   6.636 -0.1555  0.2173 -0.1754
  687PSPI   C2A 9612   4.414  17.311   7.051 -0.2847  0.1409  0.4747
  687PSPI   C3A 9613   4.501  17.356   7.584 -0.1355 -0.1064  0.1072
  687PSPI   C4A 9614   4.263  17.208   7.966 -0.0197 -0.0873  0.0889
  687PSPI   C1B 9615   4.329  17.895   6.540  0.2633  0.1322 -0.2134
  687PSPI   C2B 9616   4.369  17.857   6.979  0.0411  0.0975  0.2425
  687PSPI   C3B 9617   4.488  17.887   7.437 -0.0491  0.2250 -0.2680
  687PSPI   C4B 9618   4.870  17.985   7.461  0.0374  0.0776  0.0202
  688PSPI    C1 9619  12.341   0.351   6.337  0.0978  0.0183 -0.0079
  688PSPI    C2 9620  12.368   0.203   5.966 -0.1448 -0.1240  0.0291
  688PSPI    C3 9621  12.010   0.240   6.141 -0.0270 -0.1131  0.2721
  688PSPI   PO4 9622  12.533   0.522   6.348 -0.0922 -0.1804 -0.1221
  688PSPI   GL1 9623  12.854   0.512   6.636  0.4425  0.0357 -0.1723
  688PSPI   GL2 9624  12.740   0.199   6.684  0.2869 -0.3089  0.0926
  688PSPI   C1A 9625  12.922   0.493   7.053  0.1886  0.1861 -0.0750
  688PSPI   C2A 9626  13.169   0.445   7.377 -0.0473 -0.0252  0.1414
  688PSPI   C3A 9627  13.230   0.455   7.766 -0.0990  0.0835 -0.0404
  688PSPI   C4A 9628  13.029   0.391   8.204  0.3398 -0.0722  0.1930
  688PSPI   C1B 9629  12.563   0.065   7.026 -0.1665 -0.0982 -0.2716
  688PSPI   C2B 9630  12.812   0.108   7.360 -0.0180  0.0165 -0.1338
  688PSPI   C3B 9631  12.935   0.104   7.801  0.2096  0.0040  0.0272
  688PSPI   C4B 9632  12.974  -0.168   8.171  0.4683  0.4964 -0.1223
  689PSPI    C1 9633   9.269   2.506   5.788 -0.0406  0.0303 -0.0857
  689PSPI    C2 9634   9.595   2.723   5.704 -0.1031  0.1729  0.0368
  689PSPI    C3 9635   9.531   2.377   5.514  0.0218  0.2380 -0.1256
  689PSPI   PO4 9636   9.248   2.524   6.054  0.0358 -0.0726 -0.0387
  689PSPI   GL1 9637   9.261   2.419   6.567  0.1697  0.0244  0.1966
  689PSPI   GL2 9638   9.461   2.655   6.611 -0.0863 -0.2540  0.0630
  689PSPI   C1A 9639   9.048   2.224   6.825  0.0830 -0.0460 -0.1989
  689PSPI   C2A 9640   9.187   2.207   7.223 -0.0343 -0.1282 -0.4569
  689PSPI   C3A 9641   9.200   2.360   7.589 -0.1598  0.0918  0.0610
  689PSPI   C4A 9642   9.396   2.668   7.884  0.0303 -0.0753 -0.0917
  689PSPI   C1B 9643   9.262   2.643   7.028 -0.1124  0.1294 -0.0092
  689PSPI   C2B 9644   8.966   2.661   7.274  0.0596 -0.0544 -0.1567
  689PSPI   C3B 9645   8.815   2.772   7.606 -0.0479 -0.1371 -0.2325
  689PSPI   C4B 9646   8.942   2.786   8.080  0.0414 -0.1248 -0.0284
  690PSPI    C1 9647   1.081  13.250   5.161  0.0240  0.0004 -0.1723
  690PSPI    C2 9648   1.386  13.262   5.420 -0.1309 -0.1696  0.0212
  690PSPI    C3 9649   1.231  12.910   5.309  0.0206 -0.1068 -0.4094
  690PSPI   PO4 9650   0.854  13.367   5.337 -0.0823  0.1266 -0.0853
  690PSPI   GL1 9651   0.984  13.606   5.632 -0.1398  0.0240 -0.1881
  690PSPI   GL2 9652   1.003  13.972   5.703 -0.0855 -0.0198 -0.1615
  690PSPI   C1A 9653   0.772  13.619   6.101  0.2776 -0.0416  0.2942
  690PSPI   C2A 9654   0.489  13.928   6.271  0.1680  0.1577 -0.0527
  690PSPI   C3A 9655   0.347  13.881   6.660 -0.1195  0.1641 -0.2394
  690PSPI   C4A 9656   0.230  13.531   6.886  0.0745 -0.0580  0.0353
  690PSPI   C1B 9657   0.969  14.113   6.090  0.0213 -0.0249  0.0349
  690PSPI   C2B 9658   1.013  13.860   6.468  0.0666  0.0535  0.1042
  690PSPI   C3B 9659   1.097  13.422   6.642 -0.1351  0.2192  0.0787
  690PSPI   C4B 9660   1.025  13.110   6.273 -0.2606  0.0139  0.0810
  691PSPI    C1 9661  10.011   9.193   5.534 -0.0000  0.0061 -0.0146
  691PSPI    C2 9662  10.386   9.331   5.551  0.0287 -0.0816  0.0826
  691PSPI    C3 9663  10.149   9.432   5.245  0.0532  0.1694  0.1437
  691PSPI   PO4 9664   9.835   9.244   5.724 -0.1446 -0.0388 -0.0527
  691PSPI   GL1 9665  10.022   9.299   6.113  0.2191 -0.1779  0.2037
  691PSPI   GL2 9666  10.273   9.312   6.070 -0.2586 -0.0228  0.0667
  691PSPI   C1A 9667   9.823   9.204   6.541 -0.1300  0.2124  0.2761
  691PSPI   C2A 9668   9.928   9.151   7.003  0.1699 -0.2071  0.0066
  691PSPI   C3A 9669   9.845   9.311   7.459 -0.0878  0.2284  0.1667
  691PSPI   C4A 9670   9.865   9.625   7.865 -0.0300 -0.2598 -0.0024
  691PSPI   C1B 9671  10.373   9.247   6.489 -0.1007  0.4094 -0.1696
  691PSPI   C2B 9672  10.399   9.314   6.953  0.1702 -0.2207  0.0688
  691PSPI   C3B 9673  10.307   9.199   7.403  0.0752  0.0460  0.1167
  691PSPI   C4B 9674  10.315   9.177   7.761  0.3070  0.1151 -0.3191
  692PSPI    C1 9675   2.003   3.538   4.975 -0.0324  0.1489 -0.0385
  692PSPI    C2 9676   1.703   3.299   4.861  0.2391 -0.1187 -0.2075
  692PSPI    C3 9677   1.807   3.611   4.634 -0.0158  0.0748 -0.0641
  692PSPI   PO4 9678   1.919   3.546   5.343  0.2343 -0.0116  0.1240
  692PSPI   GL1 9679   2.134   3.891   5.713 -0.1028  0.1610  0.0526
  692PSPI   GL2 9680   1.810   3.995   5.655  0.0002 -0.0654  0.2325
  692PSPI   C1A 9681   2.037   3.843   6.146 -0.0500  0.0099 -0.1960
  692PSPI   C2A 9682   1.978   3.935   6.582 -0.0162 -0.0162 -0.1274
  692PSPI   C3A 9683   1.833   4.070   7.036  0.1507  0.1937  0.0759
  692PSPI   C4A 9684   1.936   3.998   7.494  0.1699 -0.0457  0.3091
  692PSPI   C1B 9685   1.470   4.260   5.881  0.1296  0.1244 -0.3964
  692PSPI   C2B 9686   1.170   4.228   6.272 -0.0813 -0.1019 -0.2233
  692PSPI   C3B 9687   0.905   4.387   6.571  0.1831  0.3220  0.3671
  692PSPI   C4B 9688   0.705   4.225   6.894 -0.2132  0.1198  0.0554
  693PSPI    C1 9689  13.261   0.076   5.849  0.2489 -0.0549  0.1331
  693PSPI    C2 9690  13.110  -0.289   5.912 -0.1704  0.0685 -0.1200
  693PSPI    C3 9691  13.280  -0.200   5.561  0.0844  0.0688  0.0016
  693PSPI   PO4 9692  13.429   0.139   5.996  0.3326 -0.1968  0.0246
  693PSPI   GL1 9693  13.305   0.303   6.379  0.0999 -0.2332  0.1606
  693PSPI   GL2 9694  13.201  -0.063   6.443 -0.1096 -0.0476  0.1323
  693PSPI   C1A 9695  13.359   0.518   6.806  0.3739  0.0273  0.4270
  693PSPI   C2A 9696  13.612   0.555   7.171 -0.1087  0.1419 -0.1039
  693PSPI   C3A 9697  13.665   0.416   7.520  0.1196  0.0993  0.0965
  693PSPI   C4A 9698  13.912   0.527   7.876  0.1096  0.3339 -0.0700
  693PSPI   C1B 9699  13.155   0.024   6.882 -0.1986  0.2744  0.0254
  693PSPI   C2B 9700  13.427   0.103   7.133 -0.1237  0.1277 -0.0449
  693PSPI   C3B 9701  13.343   0.014   7.526 -0.2955 -0.3138 -0.2797
  693PSPI   C4B 9702  13.381   0.103   7.999 -0.2352  0.1515 -0.0239
  694PSPI    C1 9703   1.786   8.681   5.059  0.2900  0.0566 -0.1514
  694PSPI    C2 9704   1.532   8.483   5.297  0.3987  0.1345  0.0312
  694PSPI    C3 9705   1.716   8.291   4.998 -0.0680  0.1347 -0.2671
  694PSPI   PO4 9706   1.658   8.964   5.150  0.1684 -0.0986  0.0517
  694PSPI   GL1 9707   1.747   9.186   5.583  0.2510  0.0880  0.4201
  694PSPI   GL2 9708   1.567   8.876   5.675 -0.1207  0.0530 -0.0985
  694PSPI   C1A 9709   1.859   9.206   6.049 -0.1828  0.1314 -0.0044
  694PSPI   C2A 9710   1.876   9.142   6.358 -0.1215 -0.2106 -0.2140
  694PSPI   C3A 9711   1.967   9.475   6.695  0.1176 -0.0361  0.1308
  694PSPI   C4A 9712   1.729   9.710   6.997  0.0845  0.0442 -0.0004
  694PSPI   C1B 9713   1.507   8.899   5.993  0.0651 -0.1489 -0.0960
  694PSPI   C2B 9714   1.510   8.718   6.438  0.2104 -0.1096 -0.1165
  694PSPI   C3B 9715   1.485   8.596   6.800 -0.3652 -0.1372 -0.4465
  694PSPI   C4B 9716   1.585   8.210   7.056  0.0234  0.0946 -0.1344
  695POPI    C1 9717   1.072   0.272   5.744 -0.2499 -0.1455 -0.0199
  695POPI    C2 9718   0.680   0.324   5.681 -0.1882  0.2276 -0.1191
  695POPI    C3 9719   0.946   0.560   5.497  0.0726  0.1557  0.1573
  695POPI   PO4 9720   1.050   0.246   6.028  0.0102  0.0760 -0.0380
  695POPI   GL1 9721   1.015   0.434   6.447 -0.3017  0.2236  0.1863
  695POPI   GL2 9722   1.044   0.798   6.491  0.1532 -0.3165 -0.2579
  695POPI   C1A 9723   1.117   0.212   6.793 -0.1483  0.2948  0.3438
  695POPI   D2A 9724   1.107   0.038   7.198 -0.1980  0.3202 -0.1061
  695POPI   C3A 9725   1.430  -0.121   7.453  0.2349  0.1043  0.1317
  695POPI   C4A 9726   1.718  -0.362   7.589 -0.0790  0.1263 -0.1218
  695POPI   C1B 9727   1.030   0.674   6.922  0.1409  0.2580 -0.0404
  695POPI   C2B 9728   1.158   0.539   7.246 -0.3469 -0.3016 -0.1077
  695POPI   C3B 9729   1.251   0.545   7.570 -0.2958 -0.0859 -0.1602
  695POPI   C4B 9730   1.376   0.234   7.797  0.1324 -0.2598 -0.1420
  696POPI    C1 9731  14.297   0.865   5.921 -0.1088 -0.1587 -0.0806
  696POPI    C2 9732  13.909   0.806   5.998 -0.1084 -0.0146  0.0378
  696POPI    C3 9733  14.029   0.885   5.625 -0.1651 -0.2792 -0.0384
  696POPI   PO4 9734  14.402   0.993   6.164  0.2207  0.3229 -0.0556
  696POPI   GL1 9735  14.670   1.297   6.320 -0.1926 -0.1160  0.0451
  696POPI   GL2 9736  14.680   1.583   6.356 -0.1587  0.0301 -0.0148
  696POPI   C1A 9737  14.330   1.372   6.662  0.3268 -0.1380 -0.0695
  696POPI   D2A 9738  13.982   1.564   6.739 -0.0208  0.1367 -0.0940
  696POPI   C3A 9739  13.732   1.636   6.944  0.0744  0.1314 -0.2162
  696POPI   C4A 9740  13.464   1.912   6.800  0.1280 -0.2386 -0.3036
  696POPI   C1B 9741  15.079   1.434   6.550 -0.3015  0.1967 -0.1245
  696POPI   C2B 9742  15.205   1.382   6.988 -0.0059  0.0893 -0.2339
  696POPI   C3B 9743  15.247   1.648   7.293  0.1559 -0.1548  0.0200
  696POPI   C4B 9744  15.175   1.873   7.747 -0.0198  0.0044 -0.0735
  697POPI    C1 9745   4.870   5.184   5.532  0.2361 -0.1373 -0.2126
  697POPI    C2 9746   4.527   5.155   5.328  0.1903 -0.0893 -0.1426
  697POPI    C3 9747   4.809   4.875   5.284  0.2598  0.0214 -0.4190
  697POPI   PO4 9748   4.898   5.518   5.719 -0.0385 -0.1221  0.1984
  697POPI   GL1 9749   5.207   5.851   6.083  0.0986  0.1628  0.1072
  697POPI   GL2 9750   4.893   5.772   6.155 -0.3709 -0.0818 -0.1468
  697POPI   C1A 9751   5.336   5.877   6.420 -0.0594  0.1684  0.0263
  697POPI   D2A 9752   5.250   5.964   6.802 -0.0646 -0.2411  0.0876
  697POPI   C3A 9753   5.187   5.904   7.253  0.2509 -0.2711  0.3316
  697POPI   C4A 9754   5.217   5.718   7.653 -0.1901 -0.0011  0.1668
  697POPI   C1B 9755   4.908   5.589   6.516  0.0786 -0.1161 -0.0034
  697POPI   C2B 9756   4.873   5.554   7.002 -0.4348 -0.1228 -0.3218
  697POPI   C3B 9757   4.696   5.712   7.423 -0.1212 -0.0463 -0.0579
  697POPI   C4B 9758   4.480   5.582   7.775 -0.1384 -0.2472 -0.1555
  698POPI    C1 9759   4.652   7.801   5.142 -0.0494 -0.1157 -0.3549
  698POPI    C2 9760   4.896   7.681   4.849  0.1699 -0.2841 -0.1079
  698POPI    C3 9761   4.642   7.422   5.017 -0.1919 -0.1076 -0.3698
  698POPI   PO4 9762   4.921   7.974   5.344 -0.2342 -0.1110 -0.0405
  698POPI   GL1 9763   5.031   7.718   5.804 -0.0091 -0.0122  0.1170
  698POPI   GL2 9764   4.952   7.487   5.888 -0.2757  0.0782  0.0425
  698POPI   C1A 9765   5.262   7.734   6.222 -0.0886 -0.0081  0.0526
  698POPI   D2A 9766   5.325   7.850   6.678 -0.1096  0.1236  0.1109
  698POPI   C3A 9767   5.150   7.725   7.064  0.1035 -0.2137 -0.0481
  698POPI   C4A 9768   5.185   7.405   7.282  0.0042 -0.1897 -0.1093
  698POPI   C1B 9769   4.753   7.656   6.272  0.0265  0.4103  0.2643
  698POPI   C2B 9770   4.807   7.759   6.740  0.0626 -0.1675 -0.1663
  698POPI   C3B 9771   4.556   7.589   7.104  0.3259  0.1655 -0.0480
  698POPI   C4B 9772   4.437   7.619   7.492  0.0887  0.0482 -0.1473
  699POPI    C1 9773   6.706   8.440   5.261  0.1196  0.2372  0.2323
  699POPI    C2 9774   7.067   8.514   5.103  0.0319 -0.0282 -0.1028
  699POPI    C3 9775   6.778   8.790   5.080  0.1957  0.1658  0.1233
  699POPI   PO4 9776   6.666   8.118   5.231  0.0595  0.0824  0.1221
  699POPI   GL1 9777   6.492   7.874   5.642  0.0517 -0.3415  0.0433
  699POPI   GL2 9778   6.378   7.513   5.787  0.2409 -0.0312  0.0497
  699POPI   C1A 9779   6.010   7.832   5.723 -0.0530  0.0466  0.1221
  699POPI   D2A 9780   5.792   7.638   6.009  0.1209 -0.1401 -0.0293
  699POPI   C3A 9781   6.097   7.357   6.208  0.2234 -0.0647  0.3619
  699POPI   C4A 9782   6.478   7.263   6.281 -0.2914  0.0486 -0.0850
  699POPI   C1B 9783   6.330   7.773   6.157  0.3353  0.0547 -0.3231
  699POPI   C2B 9784   6.218   7.718   6.620  0.0307  0.1891  0.0921
  699POPI   C3B 9785   6.211   7.645   7.078  0.1152 -0.1235  0.0376
  699POPI   C4B 9786   6.227   7.533   7.542 -0.1730 -0.0986  0.1465
  700POPI    C1 9787  11.478   4.959   5.786 -0.2367  0.1158 -0.1497
  700POPI    C2 9788  11.787   5.029   5.542 -0.1002 -0.0258 -0.0189
  700POPI    C3 9789  11.538   4.725   5.467 -0.0511 -0.0769  0.0239
  700POPI   PO4 9790  11.588   5.073   5.991  0.0070 -0.3147 -0.1220
  700POPI   GL1 9791  11.824   4.867   6.221  0.2131 -0.2541 -0.0553
  700POPI   GL2 9792  11.950   5.053   6.400  0.1959  0.3760 -0.0678
  700POPI   C1A 9793  11.596   4.814   6.671  0.2661  0.1087  0.0607
  700POPI   D2A 9794  11.565   4.806   7.089 -0.2146  0.1475 -0.2848
  700POPI   C3A 9795  11.305   4.928   7.454  0.1984 -0.0420 -0.2043
  700POPI   C4A 9796  11.197   5.160   7.830  0.0709 -0.1912  0.1277
  700POPI   C1B 9797  12.129   4.891   6.828 -0.0688 -0.0872  0.1682
  700POPI   C2B 9798  12.349   4.915   7.256  0.0930 -0.0594 -0.3737
  700POPI   C3B 9799  12.778   5.084   7.466  0.3982  0.4353  0.0633
  700POPI   C4B 9800  12.918   5.229   7.858 -0.0084  0.0148 -0.0029
  701POPI    C1 9801   3.283  14.834   5.459 -0.1427  0.0517  0.2298
  701POPI    C2 9802   2.947  14.780   5.249  0.0936  0.2508 -0.2156
  701POPI    C3 9803   3.199  15.074   5.149  0.2505  0.3062  0.3126
  701POPI   PO4 9804   3.149  14.897   5.713  0.1678  0.1347  0.1688
  701POPI   GL1 9805   2.915  15.057   6.040  0.3498 -0.1404  0.0516
  701POPI   GL2 9806   2.648  15.072   6.139  0.0933  0.0885  0.0028
  701POPI   C1A 9807   2.956  15.410   6.362 -0.2542  0.0805 -0.1782
  701POPI   D2A 9808   2.957  15.486   6.877 -0.0232  0.4967 -0.0287
  701POPI   C3A 9809   3.276  15.535   7.071  0.0733  0.1218  0.0054
  701POPI   C4A 9810   3.560  15.856   7.170  0.0713  0.5381 -0.0279
  701POPI   C1B 9811   2.577  15.128   6.515  0.0772  0.5356  0.0072
  701POPI   C2B 9812   2.535  15.194   6.905 -0.1351  0.0350  0.0351
  701POPI   C3B 9813   2.248  15.145   7.287  0.0689 -0.1689 -0.0570
  701POPI   C4B 9814   1.932  15.114   7.556  0.0708 -0.0670 -0.0074
  702POPI    C1 9815   9.181  16.379   5.871  0.0801 -0.1957  0.1133
  702POPI    C2 9816   9.576  16.351   5.926  0.1256  0.0951 -0.0429
  702POPI    C3 9817   9.432  16.559   5.617 -0.1529  0.1019  0.0882
  702POPI   PO4 9818   9.121  16.098   6.007  0.0054 -0.3274  0.1747
  702POPI   GL1 9819   9.417  15.905   6.238 -0.0373 -0.2578  0.1758
  702POPI   GL2 9820   9.475  15.656   6.345  0.1357 -0.1964 -0.1022
  702POPI   C1A 9821   9.279  16.071   6.595 -0.0539 -0.2013 -0.1256
  702POPI   D2A 9822   9.361  16.069   6.993  0.0781  0.2142 -0.0183
  702POPI   C3A 9823   9.046  16.176   7.310 -0.1312 -0.3241  0.1487
  702POPI   C4A 9824   8.766  16.219   7.612  0.1890  0.0602 -0.0603
  702POPI   C1B 9825   9.482  15.521   6.775 -0.0889 -0.0174 -0.1515
  702POPI   C2B 9826   9.386  15.612   7.175 -0.2488 -0.1778  0.2291
  702POPI   C3B 9827   9.033  15.734   7.585 -0.2976  0.1354 -0.0608
  702POPI   C4B 9828   8.647  15.815   7.809 -0.0438  0.4004 -0.0517
  703POPI    C1 9829   4.169  13.765   5.467  0.1917  0.0475 -0.0469
  703POPI    C2 9830   4.147  14.123   5.291 -0.0688  0.0606  0.0089
  703POPI    C3 9831   4.255  13.802   5.078  0.0553  0.1524 -0.0678
  703POPI   PO4 9832   4.223  13.882   5.709 -0.1441 -0.0802 -0.0677
  703POPI   GL1 9833   4.326  13.705   6.189  0.2347  0.2350 -0.0803
  703POPI   GL2 9834   4.396  13.438   6.234  0.0022  0.1813  0.0510
  703POPI   C1A 9835   4.066  13.897   6.475  0.0534  0.0147 -0.0039
  703POPI   D2A 9836   3.815  14.264   6.711  0.0238 -0.2225 -0.3323
  703POPI   C3A 9837   3.753  14.144   7.180  0.2441  0.3111  0.3147
  703POPI   C4A 9838   3.731  14.038   7.552  0.1122  0.0780 -0.0596
  703POPI   C1B 9839   4.383  13.058   6.488 -0.0208  0.1291 -0.1079
  703POPI   C2B 9840   4.417  12.624   6.598  0.2580 -0.1688 -0.0854
  703POPI   C3B 9841   4.270  12.178   6.771  0.1331  0.1054  0.1333
  703POPI   C4B 9842   4.148  11.745   7.014 -0.5192  0.0115  0.3665
  704POPI    C1 9843  16.664   3.473   5.395 -0.1558 -0.1222  0.0725
  704POPI    C2 9844  17.005   3.283   5.305 -0.0516 -0.0018  0.2095
  704POPI    C3 9845  16.655   3.094   5.267  0.0095 -0.0446 -0.1772
  704POPI   PO4 9846  16.760   3.566   5.695  0.4250 -0.0828  0.0205
  704POPI   GL1 9847  16.792   3.906   5.865 -0.2161  0.1983 -0.0852
  704POPI   GL2 9848  17.080   3.823   6.198 -0.2496 -0.4411 -0.0602
  704POPI   C1A 9849  16.699   4.125   6.151  0.1969  0.0295  0.1038
  704POPI   D2A 9850  16.634   4.299   6.472  0.0357 -0.0226  0.1663
  704POPI   C3A 9851  16.763   4.120   6.845 -0.2350  0.1432 -0.1269
  704POPI   C4A 9852  16.652   3.899   7.146 -0.1187 -0.2441  0.1280
  704POPI   C1B 9853  17.094   4.152   6.482 -0.1529  0.0343  0.1699
  704POPI   C2B 9854  17.167   4.393   6.763  0.1404 -0.1653  0.1997
  704POPI   C3B 9855  17.102   4.662   7.071  0.0771  0.0439  0.1577
  704POPI   C4B 9856  17.403   4.750   7.409 -0.0829 -0.2597 -0.2167
  705POPI    C1 9857   3.149   5.241   5.212  0.0337 -0.0011  0.0203
  705POPI    C2 9858   2.772   5.109   5.221 -0.0027  0.0860 -0.1737
  705POPI    C3 9859   3.056   4.888   5.049  0.0423  0.0048  0.0027
  705POPI   PO4 9860   3.136   5.441   5.432 -0.1184  0.0958  0.0723
  705POPI   GL1 9861   3.107   5.524   5.871 -0.4596 -0.0530  0.2146
  705POPI   GL2 9862   3.114   5.403   6.104 -0.0972 -0.4255  0.1793
  705POPI   C1A 9863   2.834   5.798   6.132  0.2173  0.2374 -0.1465
  705POPI   D2A 9864   3.043   6.127   6.454  0.1623  0.1288  0.1153
  705POPI   C3A 9865   3.139   6.503   6.230 -0.2320 -0.2456  0.0520
  705POPI   C4A 9866   3.108   6.967   6.320 -0.2035 -0.5099 -0.3429
  705POPI   C1B 9867   2.912   5.526   6.511  0.1909 -0.0092  0.0791
  705POPI   C2B 9868   2.700   5.787   6.778 -0.0053 -0.0911  0.2583
  705POPI   C3B 9869   2.688   6.272   6.749  0.1129 -0.1942  0.2464
  705POPI   C4B 9870   2.543   6.518   7.063 -0.1876 -0.3547 -0.2189
  706POPI    C1 9871  11.261  11.628   5.544  0.0994  0.1092 -0.0198
  706POPI    C2 9872  11.090  11.619   5.182  0.1585  0.1242 -0.0483
  706POPI    C3 9873  11.207  11.967   5.339  0.1591  0.1144 -0.0270
  706POPI   PO4 9874  11.035  11.519   5.666 -0.1733  0.1138  0.1823
  706POPI   GL1 9875  10.899  11.661   6.092  0.3290  0.0566 -0.0508
  706POPI   GL2 9876  10.980  11.258   6.092 -0.3530 -0.1017  0.1730
  706POPI   C1A 9877  10.678  11.718   6.489 -0.2297 -0.0377  0.0951
  706POPI   D2A 9878  10.741  11.722   6.924  0.2098 -0.0056 -0.0774
  706POPI   C3A 9879  10.526  11.605   7.269  0.1145 -0.3864 -0.0412
  706POPI   C4A 9880  10.261  11.599   7.577  0.1387  0.3273 -0.2974
  706POPI   C1B 9881  10.809  11.176   6.487  0.1207  0.1235 -0.0623
  706POPI   C2B 9882  10.554  11.302   6.818 -0.2137 -0.2260  0.0997
  706POPI   C3B 9883  10.371  11.140   7.157  0.3678 -0.2813  0.2005
  706POPI   C4B 9884  10.044  11.145   7.534 -0.0342  0.1872 -0.4493
  707POPI    C1 9885  10.609  12.810   5.499 -0.1789 -0.0467  0.2039
  707POPI    C2 9886  10.225  12.742   5.412 -0.1031 -0.0378 -0.1519
  707POPI    C3 9887  10.471  12.435   5.484 -0.1352 -0.0533 -0.1084
  707POPI   PO4 9888  10.637  13.008   5.735  0.1659  0.0409 -0.2607
  707POPI   GL1 9889  10.756  12.945   6.160  0.2123  0.2553  0.2448
  707POPI   GL2 9890  10.706  12.574   6.080  0.0271  0.1441  0.0554
  707POPI   C1A 9891  10.816  13.101   6.620  0.3041 -0.2046  0.3437
  707POPI   D2A 9892  10.950  13.305   7.002  0.4043 -0.2674 -0.2099
  707POPI   C3A 9893  11.014  13.509   7.407 -0.0236  0.2832 -0.0565
  707POPI   C4A 9894  10.978  13.351   7.805  0.0741 -0.0310  0.2980
  707POPI   C1B 9895  10.855  12.553   6.482  0.2876  0.0467 -0.2103
  707POPI   C2B 9896  10.904  12.678   6.912  0.0044  0.0823  0.0415
  707POPI   C3B 9897  10.796  12.580   7.248  0.0163 -0.0787 -0.2433
  707POPI   C4B 9898  10.849  12.492   7.615  0.0940 -0.3500  0.0892
  708POPI    C1 9899   0.005   4.217   4.880  0.0555  0.2278 -0.0108
  708POPI    C2 9900   0.190   3.862   4.866 -0.0655  0.1607  0.0735
  708POPI    C3 9901   0.357   4.182   4.694  0.0311  0.0570 -0.0268
  708POPI   PO4 9902  -0.111   4.216   5.110 -0.0243 -0.0637  0.0836
  708POPI   GL1 9903  -0.049   4.140   5.501  0.0084 -0.1776 -0.2097
  708POPI   GL2 9904  -0.285   4.216   5.674  0.2002  0.2123 -0.0626
  708POPI   C1A 9905   0.166   4.541   5.809  0.2071 -0.0894 -0.2732
  708POPI   D2A 9906   0.556   4.534   6.074  0.0549  0.1152 -0.2400
  708POPI   C3A 9907   0.491   4.708   6.481  0.2316  0.0358 -0.0715
  708POPI   C4A 9908   0.510   4.802   6.822 -0.1454  0.0067 -0.2691
  708POPI   C1B 9909  -0.558   4.102   5.925  0.0167 -0.1902  0.0242
  708POPI   C2B 9910  -0.513   4.092   6.339  0.2532 -0.1159 -0.2127
  708POPI   C3B 9911  -0.465   4.284   6.708  0.1811 -0.1817  0.0176
  708POPI   C4B 9912  -0.577   4.587   6.973 -0.0696 -0.0398 -0.2396
  709POPI    C1 9913   8.561   5.589   5.948  0.0916  0.2529 -0.1432
  709POPI    C2 9914   8.648   5.977   5.993  0.0863  0.2354  0.0231
  709POPI    C3 9915   8.900   5.738   5.795  0.2981  0.2371  0.2843
  709POPI   PO4 9916   8.482   5.509   6.147  0.1809 -0.0523  0.1199
  709POPI   GL1 9917   8.640   5.622   6.437 -0.1527 -0.2480 -0.0732
  709POPI   GL2 9918   8.938   5.662   6.316  0.0135 -0.1972 -0.3497
  709POPI   C1A 9919   8.744   5.448   6.861 -0.2212 -0.1577 -0.0980
  709POPI   D2A 9920   8.819   5.374   7.344  0.0780 -0.0097  0.2600
  709POPI   C3A 9921   8.569   5.535   7.609 -0.0895 -0.4170  0.0823
  709POPI   C4A 9922   8.262   5.465   7.802  0.2631  0.0664 -0.1127
  709POPI   C1B 9923   8.912   5.983   6.698 -0.1123  0.0393  0.2988
  709POPI   C2B 9924   8.765   6.263   7.038  0.0682  0.2533 -0.0232
  709POPI   C3B 9925   8.637   6.417   7.381  0.1045  0.2109  0.0187
  709POPI   C4B 9926   8.962   6.411   7.686 -0.2662  0.3954  0.2329
  710POPI    C1 9927   3.458   6.487   5.017 -0.0343 -0.0850  0.1659
  710POPI    C2 9928   3.588   6.109   5.044 -0.2123 -0.1717 -0.1442
  710POPI    C3 9929   3.757   6.361   4.783 -0.0815 -0.0287  0.0751
  710POPI   PO4 9930   3.377   6.489   5.343 -0.2088  0.1556  0.0861
  710POPI   GL1 9931   3.122   6.684   5.542  0.1012 -0.3253 -0.0693
  710POPI   GL2 9932   2.840   6.568   5.694 -0.0707 -0.2191  0.2368
  710POPI   C1A 9933   2.989   7.079   5.851  0.0123  0.1763  0.1903
  710POPI   D2A 9934   2.906   7.565   5.750 -0.0984  0.1214  0.2479
  710POPI   C3A 9935   2.495   7.719   5.905  0.0587  0.0268 -0.1200
  710POPI   C4A 9936   2.303   7.620   6.316 -0.0089  0.0215  0.1653
  710POPI   C1B 9937   2.804   6.236   5.906  0.1411 -0.0322 -0.1579
  710POPI   C2B 9938   2.544   6.215   6.205 -0.0434  0.4313 -0.2780
  710POPI   C3B 9939   2.353   5.861   6.441  0.4154  0.3252  0.0292
  710POPI   C4B 9940   2.088   5.763   6.791  0.0432  0.4028  0.0615
  711POPI    C1 9941   0.075  12.817   5.167  0.0400  0.0043 -0.0093
  711POPI    C2 9942  -0.241  12.580   5.231  0.1316 -0.0194  0.3812
  711POPI    C3 9943  -0.132  12.672   4.857 -0.0711 -0.3671  0.2317
  711POPI   PO4 9944   0.240  12.833   5.459  0.1463  0.0133  0.1627
  711POPI   GL1 9945   0.415  12.760   5.940 -0.3017 -0.1747  0.0933
  711POPI   GL2 9946   0.159  12.759   5.903 -0.2846  0.0975  0.2864
  711POPI   C1A 9947   0.489  12.950   6.310  0.1999 -0.1000 -0.0311
  711POPI   D2A 9948   0.534  12.917   6.817  0.2803 -0.0260  0.0484
  711POPI   C3A 9949   0.312  12.664   7.158 -0.2180 -0.1931  0.2172
  711POPI   C4A 9950   0.121  12.321   7.279  0.0613  0.0446 -0.1428
  711POPI   C1B 9951  -0.065  12.965   6.204  0.2089 -0.2708  0.0049
  711POPI   C2B 9952   0.004  13.202   6.556  0.2205  0.0183 -0.1252
  711POPI   C3B 9953   0.008  13.129   6.943  0.1106 -0.1560  0.0009
  711POPI   C4B 9954   0.097  13.223   7.288 -0.1542  0.0502 -0.0759
  712POPI    C1 9955   8.942  13.320   5.013 -0.0564 -0.0584 -0.0961
  712POPI    C2 9956   8.950  13.664   4.810  0.0740 -0.0025  0.0025
  712POPI    C3 9957   9.281  13.532   4.992  0.0231 -0.1778 -0.0307
  712POPI   PO4 9958   8.687  13.360   5.190 -0.1935 -0.0991  0.0690
  712POPI   GL1 9959   8.680  13.311   5.743  0.2234 -0.2678 -0.1665
  712POPI   GL2 9960   8.804  13.206   5.924 -0.1233 -0.2007 -0.1573
  712POPI   C1A 9961   8.289  13.448   6.022  0.1586  0.1629  0.3110
  712POPI   D2A 9962   8.264  13.498   6.499 -0.0707 -0.2045 -0.4396
  712POPI   C3A 9963   8.043  13.560   6.792  0.1399  0.0832 -0.0645
  712POPI   C4A 9964   7.918  13.644   7.227 -0.0324 -0.3514  0.3755
  712POPI   C1B 9965   8.741  13.482   6.263 -0.0435  0.2154 -0.0610
  712POPI   C2B 9966   8.762  13.457   6.573 -0.0431  0.2240  0.0430
  712POPI   C3B 9967   8.574  13.482   6.947  0.2351  0.0762  0.1433
  712POPI   C4B 9968   8.343  13.423   7.292 -0.1244 -0.0142 -0.2993
  713POPI    C1 9969  12.172  10.596   5.515 -0.3014 -0.0243 -0.2550
  713POPI    C2 9970  12.490  10.837   5.537 -0.2601 -0.0995  0.0017
  713POPI    C3 9971  12.252  10.849   5.216 -0.0670  0.0418 -0.1386
  713POPI   PO4 9972  12.011  10.650   5.790 -0.0382  0.2001  0.3551
  713POPI   GL1 9973  11.752  10.409   6.094 -0.0371  0.3171  0.2861
  713POPI   GL2 9974  11.849  10.130   6.304  0.0387 -0.0443  0.1356
  713POPI   C1A 9975  11.554  10.514   6.525 -0.0727  0.1364  0.0830
  713POPI   D2A 9976  11.335  10.502   6.929  0.0335  0.2546 -0.0248
  713POPI   C3A 9977  11.242  10.613   7.345  0.0563  0.4884 -0.1515
  713POPI   C4A 9978  11.196  10.263   7.589  0.3321 -0.0598 -0.1338
  713POPI   C1B 9979  11.956  10.332   6.707  0.0142 -0.2416  0.2499
  713POPI   C2B 9980  12.181  10.401   7.143 -0.1477  0.0458  0.3368
  713POPI   C3B 9981  12.356  10.136   7.519  0.3500  0.1224 -0.1300
  713POPI   C4B 9982  12.659  10.203   7.813 -0.0586 -0.1082  0.0198
  714POPI    C1 9983   9.924  15.382   5.850 -0.1078  0.0405 -0.0087
  714POPI    C2 9984  10.193  15.289   6.130 -0.0943 -0.0477 -0.0505
  714POPI    C3 9985  10.299  15.288   5.744 -0.0900  0.1567 -0.0508
  714POPI   PO4 9986   9.813  15.655   5.977 -0.0536  0.0136  0.1377
  714POPI   GL1 9987   9.891  16.041   6.232 -0.2642  0.0709  0.1105
  714POPI   GL2 9988  10.133  15.757   6.328  0.0652 -0.1108 -0.2479
  714POPI   C1A 9989   9.770  15.903   6.670 -0.1832  0.0181  0.1520
  714POPI   D2A 9990   9.832  15.969   7.106 -0.0623  0.1741 -0.1634
  714POPI   C3A 9991   9.828  16.079   7.411 -0.0501  0.1462 -0.0118
  714POPI   C4A 9992   9.820  16.203   7.946  0.0053  0.0275  0.1786
  714POPI   C1B 9993  10.003  15.468   6.596 -0.0680 -0.1125 -0.0940
  714POPI   C2B 9994  10.196  15.677   6.928  0.4557 -0.1821  0.2299
  714POPI   C3B 9995  10.271  15.652   7.344 -0.1370 -0.1871  0.0003
  714POPI   C4B 9996  10.079  15.786   7.781 -0.0694 -0.1149  0.3153
  715POPI    C1 9997   5.483   2.525   5.565  0.2249 -0.2055  0.0034
  715POPI    C2 9998   5.157   2.321   5.676  0.1046 -0.0175 -0.0008
  715POPI    C3 9999   5.371   2.198   5.361 -0.0666 -0.0389 -0.1108
  715POPI   PO410000   5.496   2.686   5.783  0.2523  0.1207 -0.0318
  715POPI   GL110001   5.234   2.540   6.230  0.1567 -0.0490  0.1828
  715POPI   GL210002   5.369   2.292   6.166 -0.1743  0.1463  0.0084
  715POPI   C1A10003   5.221   2.674   6.651 -0.1367  0.1760 -0.2142
  715POPI   D2A10004   5.113   2.654   7.095 -0.3391  0.1612  0.5781
  715POPI   C3A10005   5.438   2.706   7.454  0.0307 -0.1233  0.0034
  715POPI   C4A10006   5.634   2.914   7.755 -0.1139  0.4951  0.3115
  715POPI   C1B10007   5.539   2.318   6.615  0.0476  0.3670 -0.1060
  715POPI   C2B10008   5.181   2.208   6.850  0.0052 -0.1089 -0.0100
  715POPI   C3B10009   5.124   1.788   7.006 -0.0432  0.1507 -0.0086
  715POPI   C4B10010   4.951   1.524   7.248  0.1552 -0.1679  0.0825
  716POPI    C110011  11.472  12.995   5.602  0.0183  0.1057 -0.0316
  716POPI    C210012  11.530  12.793   5.261 -0.1777 -0.0372  0.0181
  716POPI    C310013  11.163  12.821   5.418 -0.1046  0.1117  0.1663
  716POPI   PO410014  11.720  12.833   5.799 -0.2275  0.2510  0.0596
  716POPI   GL110015  11.668  12.667   6.276  0.1322 -0.3692  0.0335
  716POPI   GL210016  11.526  12.356   6.108 -0.1577 -0.3559 -0.1848
  716POPI   C1A10017  11.990  12.743   6.706 -0.0993  0.3943 -0.1162
  716POPI   D2A10018  12.012  12.894   7.114  0.0397  0.0629 -0.1650
  716POPI   C3A10019  11.815  12.710   7.461  0.0642  0.0597 -0.1246
  716POPI   C4A10020  11.900  12.660   7.950  0.1054  0.2158 -0.0810
  716POPI   C1B10021  11.355  12.453   6.557  0.1707  0.0474  0.0245
  716POPI   C2B10022  11.330  12.512   6.955  0.0086  0.0165 -0.1171
  716POPI   C3B10023  11.295  12.530   7.412 -0.1304 -0.4403  0.0059
  716POPI   C4B10024  11.451  12.532   7.916  0.0295  0.0380  0.0642
  717POPI    C110025  12.046  15.360   6.073 -0.3677 -0.0171 -0.1124
  717POPI    C210026  12.446  15.363   6.054 -0.3495 -0.0527  0.2112
  717POPI    C310027  12.229  15.430   5.724 -0.0772  0.2677  0.0913
  717POPI   PO410028  11.997  15.113   6.162 -0.0016 -0.1700  0.0277
  717POPI   GL110029  12.233  15.070   6.562  0.3355  0.0581 -0.2241
  717POPI   GL210030  12.608  15.050   6.543 -0.3450  0.0147 -0.0280
  717POPI   C1A10031  12.150  15.172   6.952 -0.0833 -0.0547  0.0586
  717POPI   D2A10032  12.075  15.352   7.282  0.0406 -0.2974 -0.2397
  717POPI   C3A10033  12.253  15.375   7.690 -0.1916 -0.3069 -0.0131
  717POPI   C4A10034  12.170  15.296   8.195  0.0593  0.1568 -0.1704
  717POPI   C1B10035  12.620  15.144   6.974 -0.2255  0.2056  0.2027
  717POPI   C2B10036  12.587  15.155   7.400 -0.1899  0.1531 -0.1613
  717POPI   C3B10037  12.804  15.333   7.669 -0.3845 -0.0854 -0.1128
  717POPI   C4B10038  13.041  15.394   8.101 -0.0845  0.2372  0.2971
  718POPI    C110039   8.322  12.241   5.625  0.1231  0.1018  0.2052
  718POPI    C210040   8.681  12.403   5.552  0.1462 -0.0222  0.0362
  718POPI    C310041   8.358  12.637   5.581  0.1653  0.0492 -0.2952
  718POPI   PO410042   8.359  12.085   5.773 -0.1201 -0.2097 -0.2240
  718POPI   GL110043   8.168  12.158   6.082  0.3342  0.1360 -0.2341
  718POPI   GL210044   8.113  12.456   6.072 -0.3457 -0.0405  0.3534
  718POPI   C1A10045   8.027  12.143   6.540  0.0991 -0.3822  0.0489
  718POPI   D2A10046   8.049  12.236   7.004  0.0268  0.0430  0.1175
  718POPI   C3A10047   8.060  12.615   7.199  0.2128 -0.3270 -0.1494
  718POPI   C4A10048   7.946  13.069   7.127  0.1517  0.1533 -0.0156
  718POPI   C1B10049   7.905  12.616   6.371  0.0599  0.1749 -0.1180
  718POPI   C2B10050   7.870  12.670   6.777 -0.3779  0.2010  0.4408
  718POPI   C3B10051   7.515  12.881   7.050 -0.0272  0.0096  0.1729
  718POPI   C4B10052   7.220  12.785   7.164 -0.0384 -0.2428  0.0482
  719POPI    C110053  10.701   0.024   6.228  0.0061 -0.0325  0.0235
  719POPI    C210054  10.454  -0.251   6.073  0.0637  0.0039 -0.1349
  719POPI    C310055  10.362   0.137   6.048  0.1114  0.0144 -0.1469
  719POPI   PO410056  10.817  -0.072   6.560  0.3230 -0.2231 -0.0661
  719POPI   GL110057  10.537  -0.274   6.919 -0.4155  0.0339 -0.2459
  719POPI   GL210058  10.795  -0.101   7.046  0.1558 -0.1985  0.0234
  719POPI   C1A10059  10.365  -0.321   7.304 -0.0981  0.1833 -0.0373
  719POPI   D2A10060   9.937  -0.335   7.375  0.2288  0.1178 -0.1591
  719POPI   C3A10061   9.861  -0.225   7.724 -0.1395 -0.0102 -0.0150
  719POPI   C4A10062   9.995   0.153   7.840  0.0961  0.3501  0.0096
  719POPI   C1B10063  11.088  -0.415   7.207 -0.0468 -0.3094 -0.0604
  719POPI   C2B10064  11.148  -0.590   7.565  0.2097  0.2167  0.1780
  719POPI   C3B10065  11.080  -0.556   7.958 -0.0228  0.2704 -0.1181
  719POPI   C4B10066  10.827  -0.598   8.334  0.3282 -0.1751  0.1751
  720POPI    C110067  16.265  10.134   4.951 -0.0651 -0.0063 -0.0131
  720POPI    C210068  15.868  10.175   4.936 -0.0477  0.1128 -0.1845
  720POPI    C310069  16.063  10.011   4.628  0.0448  0.1281 -0.1344
  720POPI   PO410070  16.394   9.985   5.119 -0.1413 -0.0283  0.0072
  720POPI   GL110071  16.413   9.719   5.573 -0.0063 -0.1128 -0.0128
  720POPI   GL210072  16.281  10.091   5.606 -0.0639 -0.0917  0.2423
  720POPI   C1A10073  16.243   9.831   6.091 -0.5712  0.0037 -0.0280
  720POPI   D2A10074  16.302   9.989   6.464 -0.0022 -0.0534 -0.0180
  720POPI   C3A10075  16.239   9.765   6.852  0.0650 -0.1217 -0.1902
  720POPI   C4A10076  16.273  10.069   7.248 -0.1030 -0.1242 -0.3747
  720POPI   C1B10077  16.605  10.086   5.865 -0.1491  0.2593 -0.3081
  720POPI   C2B10078  16.711  10.001   6.207  0.1376  0.0374  0.0082
  720POPI   C3B10079  16.835   9.890   6.595  0.1424 -0.0114 -0.3371
  720POPI   C4B10080  17.129   9.646   6.829 -0.1922  0.2895 -0.1891
  721POPI    C110081   8.761   1.580   6.163  0.2994  0.0501  0.3459
  721POPI    C210082   8.663   1.193   6.166  0.1613  0.0807  0.0836
  721POPI    C310083   9.048   1.302   6.147  0.2166 -0.0409  0.4336
  721POPI   PO410084   8.384   1.697   6.220 -0.1072  0.0771 -0.2620
  721POPI   GL110085   8.203   1.666   6.578 -0.0936 -0.1975  0.2872
  721POPI   GL210086   8.434   1.275   6.588  0.1248  0.1270  0.3267
  721POPI   C1A10087   8.043   1.826   6.890  0.0143  0.0758 -0.0192
  721POPI   D2A10088   8.176   1.884   7.341 -0.0032 -0.1099  0.0426
  721POPI   C3A10089   8.049   2.214   7.669 -0.0797  0.2265  0.0843
  721POPI   C4A10090   8.069   2.704   7.630 -0.0357  0.0983 -0.1461
  721POPI   C1B10091   8.446   1.047   6.930  0.0136 -0.1924 -0.1326
  721POPI   C2B10092   8.399   0.970   7.291 -0.1170 -0.0858 -0.4817
  721POPI   C3B10093   8.383   0.997   7.748 -0.3213 -0.2809 -0.0134
  721POPI   C4B10094   8.273   0.988   8.226 -0.3970  0.1175  0.0441
  722POPI    C110095   3.903   5.800   5.374 -0.2739 -0.0164 -0.0439
  722POPI    C210096   4.159   5.562   5.180 -0.0520 -0.0746  0.3112
  722POPI    C310097   4.067   5.921   5.030  0.0490 -0.1518  0.0587
  722POPI   PO410098   3.975   5.794   5.629  0.3261  0.0482  0.0960
  722POPI   GL110099   3.643   5.954   5.943 -0.1305 -0.1733 -0.0216
  722POPI   GL210100   3.525   5.828   5.998  0.0612 -0.3891 -0.0401
  722POPI   C1A10101   3.547   6.193   6.342  0.4246  0.1563  0.0218
  722POPI   D2A10102   3.417   6.289   6.807 -0.1311  0.1533 -0.2325
  722POPI   C3A10103   3.113   6.092   7.107 -0.0359  0.1524  0.2977
  722POPI   C4A10104   2.784   6.030   7.201 -0.5591  0.1702 -0.1605
  722POPI   C1B10105   3.430   5.660   6.378  0.1613  0.0511  0.0264
  722POPI   C2B10106   3.256   5.768   6.775 -0.0026  0.1484  0.5088
  722POPI   C3B10107   3.066   5.580   7.082 -0.2832 -0.0827  0.0233
  722POPI   C4B10108   2.882   5.546   7.540 -0.0958  0.1376 -0.2772
  723POPI    C110109   8.838  10.235   5.473 -0.1684 -0.2643 -0.3225
  723POPI    C210110   8.964  10.423   5.143  0.1045 -0.2048 -0.1873
  723POPI    C310111   8.894  10.631   5.478 -0.0644 -0.2800 -0.1749
  723POPI   PO410112   8.574  10.102   5.459 -0.0704  0.0613 -0.0483
  723POPI   GL110113   8.214  10.092   5.759 -0.0258 -0.0210  0.0662
  723POPI   GL210114   8.538  10.107   5.929  0.1241  0.0435 -0.1025
  723POPI   C1A10115   7.994  10.037   6.113  0.5375  0.0682  0.0094
  723POPI   D2A10116   8.253  10.276   6.526 -0.3742  0.1696  0.0140
  723POPI   C3A10117   8.620  10.500   6.292 -0.0370  0.2255  0.1546
  723POPI   C4A10118   8.906  10.498   6.036  0.0154 -0.1595 -0.0030
  723POPI   C1B10119   8.706  10.056   6.300 -0.1425 -0.0327 -0.0662
  723POPI   C2B10120   8.580   9.978   6.660  0.0027  0.0851 -0.0649
  723POPI   C3B10121   8.610   9.913   7.098 -0.0145 -0.3189  0.3086
  723POPI   C4B10122   8.442   9.785   7.487  0.2586 -0.1440  0.1850
  724POPI    C110123  16.042   3.768   5.442  0.0874  0.1475 -0.2618
  724POPI    C210124  16.377   3.961   5.544  0.0129  0.0713  0.1457
  724POPI    C310125  16.106   4.141   5.312  0.2382  0.2112 -0.0133
  724POPI   PO410126  15.942   3.718   5.669 -0.1650 -0.0155  0.0396
  724POPI   GL110127  15.801   4.002   5.988  0.1234  0.2378 -0.2840
  724POPI   GL210128  16.130   4.197   5.937 -0.0807 -0.0000 -0.1797
  724POPI   C1A10129  15.703   4.471   5.784 -0.1325  0.1433  0.1417
  724POPI   D2A10130  15.872   4.827   5.902 -0.0834 -0.0621 -0.0592
  724POPI   C3A10131  15.782   5.006   6.351  0.0299 -0.0111 -0.0349
  724POPI   C4A10132  15.819   5.048   6.795  0.0671  0.0113  0.1574
  724POPI   C1B10133  16.124   4.073   6.433  0.1056 -0.2363  0.0686
  724POPI   C2B10134  16.239   3.853   6.815  0.0261  0.0595  0.2608
  724POPI   C3B10135  16.234   3.381   6.767  0.3086 -0.1863  0.1567
  724POPI   C4B10136  16.183   3.180   6.361 -0.2462  0.3037 -0.2195
  725POPI    C110137  17.375  11.811   5.394  0.0983  0.0923 -0.3346
  725POPI    C210138  17.594  12.075   5.187  0.1608  0.1863 -0.1510
  725POPI    C310139  17.766  11.849   5.469  0.0082  0.3202  0.0535
  725POPI   PO410140  17.222  11.933   5.540  0.1162 -0.0963 -0.0635
  725POPI   GL110141  17.083  12.088   5.962  0.1050 -0.2388  0.0391
  725POPI   GL210142  17.054  11.747   5.990  0.3956  0.2388 -0.1941
  725POPI   C1A10143  17.293  12.058   6.353  0.4269  0.0216  0.2092
  725POPI   D2A10144  17.183  12.170   6.723 -0.1972  0.0933 -0.1026
  725POPI   C3A10145  17.202  12.134   7.092  0.1892  0.3222  0.0274
  725POPI   C4A10146  17.265  11.942   7.466 -0.2864 -0.3967 -0.2517
  725POPI   C1B10147  17.203  11.493   6.340 -0.1196  0.2190 -0.2852
  725POPI   C2B10148  17.263  11.617   6.652 -0.0247  0.1479 -0.2288
  725POPI   C3B10149  17.246  11.645   7.075  0.0959  0.2438 -0.1804
  725POPI   C4B10150  17.320  11.407   7.394 -0.0521 -0.0649  0.4072
  726POPI    C110151   2.449  12.408   4.836  0.0929 -0.0119  0.0984
  726POPI    C210152   2.053  12.391   4.886  0.0724 -0.0555 -0.0732
  726POPI    C310153   2.215  12.281   4.537  0.2245  0.0883 -0.0489
  726POPI   PO410154   2.540  12.265   5.109 -0.0115  0.0262  0.0340
  726POPI   GL110155   2.629  12.147   5.587  0.1442  0.1266  0.2066
  726POPI   GL210156   2.514  12.415   5.666 -0.0874  0.0191 -0.0242
  726POPI   C1A10157   2.859  11.961   5.821 -0.2949 -0.0213  0.1652
  726POPI   D2A10158   2.589  11.637   6.168  0.2415  0.2285 -0.1071
  726POPI   C3A10159   2.606  11.515   6.641 -0.1144 -0.0969 -0.2385
  726POPI   C4A10160   2.444  11.242   6.891  0.2733 -0.0313 -0.0295
  726POPI   C1B10161   2.733  12.536   6.003  0.2969  0.1188  0.0394
  726POPI   C2B10162   2.673  12.468   6.440 -0.0696 -0.1062 -0.1582
  726POPI   C3B10163   2.602  12.330   6.896  0.2359  0.2961 -0.0813
  726POPI   C4B10164   2.472  12.559   7.288  0.2626 -0.0341  0.0352
  727POPI    C110165   6.405  15.101   5.685 -0.1379  0.0009  0.1904
  727POPI    C210166   6.215  15.429   5.560 -0.0771 -0.1199 -0.2349
  727POPI    C310167   6.014  15.086   5.603 -0.0743 -0.1059 -0.1056
  727POPI   PO410168   6.488  15.145   5.867 -0.1311 -0.0076 -0.2197
  727POPI   GL110169   6.522  14.884   6.224 -0.4819 -0.5851 -0.1105
  727POPI   GL210170   6.127  14.880   6.081 -0.2648 -0.0353 -0.1760
  727POPI   C1A10171   6.695  14.818   6.619  0.1069 -0.0829 -0.0645
  727POPI   D2A10172   6.689  14.795   7.046 -0.0952 -0.1397  0.5512
  727POPI   C3A10173   6.696  14.473   7.434  0.1716 -0.0701 -0.1929
  727POPI   C4A10174   6.269  14.541   7.763 -0.2501  0.1254 -0.0131
  727POPI   C1B10175   6.084  14.842   6.561  0.2967  0.0324 -0.2464
  727POPI   C2B10176   6.093  14.956   6.955  0.1948  0.1049 -0.4094
  727POPI   C3B10177   6.331  14.819   7.355  0.0908  0.1140 -0.2558
  727POPI   C4B10178   6.582  14.918   7.705  0.1140  0.3641  0.0139
  728POPI    C110179   4.678   4.547   5.699  0.0049 -0.0146 -0.0946
  728POPI    C210180   4.396   4.276   5.613  0.0742 -0.1076 -0.0318
  728POPI    C310181   4.686   4.354   5.349  0.0880 -0.1378 -0.0255
  728POPI   PO410182   4.524   4.788   5.728 -0.0437  0.1235 -0.2764
  728POPI   GL110183   4.469   5.058   6.085  0.5742 -0.3586 -0.2751
  728POPI   GL210184   4.543   5.376   6.012  0.3517  0.0481  0.0423
  728POPI   C1A10185   4.360   4.870   6.443 -0.0585  0.1779  0.0711
  728POPI   D2A10186   4.390   4.753   6.862 -0.0236  0.3486 -0.1495
  728POPI   C3A10187   4.092   4.842   7.120  0.1554 -0.0843  0.1900
  728POPI   C4A10188   4.178   5.074   7.480  0.0896 -0.0929  0.0716
  728POPI   C1B10189   4.310   5.347   6.414  0.0438 -0.0927  0.5054
  728POPI   C2B10190   4.481   5.328   6.767 -0.0823 -0.3255 -0.1698
  728POPI   C3B10191   4.497   5.165   7.122  0.0181 -0.1408 -0.0862
  728POPI   C4B10192   4.758   4.883   7.274  0.2583  0.0178 -0.0202
  729POPI    C110193   6.458  11.128   5.285 -0.0582  0.2176 -0.0184
  729POPI    C210194   6.185  10.990   5.027  0.1232 -0.0820 -0.0559
  729POPI    C310195   6.543  11.112   4.895  0.1656 -0.1023  0.0391
  729POPI   PO410196   6.391  11.077   5.513  0.1061  0.0512  0.2427
  729POPI   GL110197   6.182  10.987   5.874 -0.2379 -0.0766 -0.0423
  729POPI   GL210198   6.167  11.309   5.944  0.1170  0.1838 -0.1259
  729POPI   C1A10199   6.135  10.973   6.323  0.1867 -0.2277  0.2170
  729POPI   D2A10200   6.033  11.012   6.728 -0.1572 -0.3609  0.0514
  729POPI   C3A10201   5.905  11.223   6.976 -0.2641  0.0548  0.1784
  729POPI   C4A10202   5.681  11.219   7.364 -0.3872 -0.0121 -0.0937
  729POPI   C1B10203   6.262  11.476   6.434 -0.1058  0.0170  0.2424
  729POPI   C2B10204   6.257  11.458   6.795  0.1811  0.0288 -0.2180
  729POPI   C3B10205   6.357  11.494   7.089  0.1951 -0.2122 -0.0100
  729POPI   C4B10206   6.101  11.476   7.494  0.2513 -0.1155  0.1579
  730POPI    C110207   3.267   2.545   5.295  0.1907  0.0529 -0.0253
  730POPI    C210208   2.954   2.530   5.047 -0.0184 -0.0382  0.2397
  730POPI    C310209   3.302   2.367   4.938 -0.0898 -0.0235 -0.0172
  730POPI   PO410210   3.049   2.557   5.513 -0.0432 -0.0010 -0.1195
  730POPI   GL110211   3.006   2.745   5.957 -0.2021  0.1111 -0.1235
  730POPI   GL210212   2.661   2.577   5.933  0.1646 -0.0967  0.2163
  730POPI   C1A10213   2.947   2.648   6.421  0.2051 -0.0398  0.0205
  730POPI   D2A10214   2.886   2.442   6.780 -0.1340 -0.0788 -0.0947
  730POPI   C3A10215   2.763   2.327   7.226  0.2567  0.1144 -0.1684
  730POPI   C4A10216   2.533   2.459   7.459  0.3310 -0.2173 -0.0061
  730POPI   C1B10217   2.630   2.235   6.350 -0.0774  0.1442  0.1560
  730POPI   C2B10218   2.478   2.133   6.789 -0.1396  0.2711 -0.1733
  730POPI   C3B10219   2.331   2.081   7.183 -0.3408 -0.0091 -0.2532
  730POPI   C4B10220   2.296   1.795   7.376  0.0499  0.3430  0.2471
  731POPI    C110221   3.836  14.879   5.719 -0.0676  0.1814  0.0301
  731POPI    C210222   4.003  14.516   5.746 -0.1477  0.1484  0.0823
  731POPI    C310223   3.772  14.608   5.432 -0.0495  0.1868  0.0210
  731POPI   PO410224   3.757  14.914   5.999  0.4436  0.0740  0.0164
  731POPI   GL110225   3.821  14.867   6.551  0.1947 -0.2868  0.4315
  731POPI   GL210226   3.719  14.590   6.380  0.3183  0.0121 -0.0357
  731POPI   C1A10227   3.872  14.769   6.957  0.0100 -0.1925  0.1636
  731POPI   D2A10228   3.702  14.626   7.260  0.0078 -0.1310 -0.2946
  731POPI   C3A10229   3.998  14.514   7.606 -0.0248  0.0386  0.0990
  731POPI   C4A10230   4.413  14.426   7.570 -0.1804 -0.0083 -0.1689
  731POPI   C1B10231   3.426  14.573   6.712  0.0661  0.2620  0.0086
  731POPI   C2B10232   3.338  14.313   6.981 -0.2332 -0.3174  0.0048
  731POPI   C3B10233   3.288  14.288   7.372  0.2316  0.0209  0.0474
  731POPI   C4B10234   3.238  14.601   7.692 -0.1785  0.0965  0.0158
  732POPI    C110235  13.203  12.975   5.667 -0.0384  0.0137  0.1429
  732POPI    C210236  12.965  12.821   5.384 -0.0649  0.0011  0.1720
  732POPI    C310237  13.027  13.216   5.401  0.0141 -0.0073  0.0888
  732POPI   PO410238  13.410  12.855   5.626  0.0975  0.0716 -0.0479
  732POPI   GL110239  13.550  12.547   5.871  0.1692 -0.4744 -0.0686
  732POPI   GL210240  13.316  12.343   6.111  0.0040 -0.3750 -0.0631
  732POPI   C1A10241  13.333  12.792   6.283  0.1161  0.3916 -0.1722
  732POPI   D2A10242  13.099  13.064   6.396 -0.1381  0.1441  0.0993
  732POPI   C3A10243  13.288  13.392   6.662 -0.0908  0.0460  0.3033
  732POPI   C4A10244  13.184  13.557   7.126 -0.0196 -0.0335  0.4097
  732POPI   C1B10245  13.381  12.297   6.501 -0.1004 -0.0124  0.0573
  732POPI   C2B10246  13.354  12.370   6.831 -0.2671  0.2022 -0.0905
  732POPI   C3B10247  13.309  12.348   7.148  0.3108  0.0197  0.1560
  732POPI   C4B10248  13.364  12.409   7.536 -0.1094 -0.0210 -0.0128
  733POPI    C110249   3.048   1.572   5.287  0.1113 -0.0885  0.1533
  733POPI    C210250   2.926   1.194   5.332  0.1189 -0.1102 -0.0030
  733POPI    C310251   2.728   1.441   5.087  0.1623 -0.0362  0.0361
  733POPI   PO410252   3.038   1.671   5.527 -0.1258 -0.0648  0.1433
  733POPI   GL110253   2.969   1.625   6.012 -0.1220  0.1363  0.1322
  733POPI   GL210254   2.945   1.845   6.247 -0.0222  0.1422 -0.2820
  733POPI   C1A10255   3.082   1.318   6.367 -0.1123  0.2043 -0.1101
  733POPI   D2A10256   2.972   1.318   6.828 -0.1700 -0.1474  0.1820
  733POPI   C3A10257   3.145   0.937   7.147  0.2125  0.0189 -0.0074
  733POPI   C4A10258   3.392   0.620   6.932 -0.3374 -0.0725 -0.1890
  733POPI   C1B10259   2.942   1.872   6.709  0.1813  0.0243  0.0848
  733POPI   C2B10260   2.892   1.856   7.058 -0.1464 -0.0721 -0.2053
  733POPI   C3B10261   2.811   1.486   7.270  0.0264 -0.3320 -0.1171
  733POPI   C4B10262   2.692   1.484   7.658  0.1637  0.1643 -0.0525
  734POPI    C110263  13.017   1.540   5.917  0.1240  0.0513 -0.0353
  734POPI    C210264  13.376   1.398   6.022  0.0348 -0.1303  0.0299
  734POPI    C310265  13.072   1.146   5.959 -0.1484  0.0374  0.2262
  734POPI   PO410266  12.981   1.747   6.141 -0.0873 -0.1864 -0.0163
  734POPI   GL110267  13.072   1.947   6.486 -0.3109  0.0824 -0.1846
  734POPI   GL210268  12.942   1.786   6.778  0.0872  0.5413 -0.2268
  734POPI   C1A10269  13.326   2.301   6.507 -0.1921 -0.0325 -0.0183
  734POPI   D2A10270  13.597   2.500   6.853 -0.3798  0.0267 -0.1485
  734POPI   C3A10271  13.944   2.408   7.240 -0.1442 -0.0083  0.1667
  734POPI   C4A10272  14.254   2.510   7.604  0.4075  0.2062  0.0182
  734POPI   C1B10273  13.055   1.845   7.195 -0.0354 -0.1671 -0.0302
  734POPI   C2B10274  13.534   1.940   7.344 -0.3131 -0.0823  0.2030
  734POPI   C3B10275  13.951   1.648   7.388  0.4165 -0.1753 -0.2159
  734POPI   C4B10276  14.296   1.548   7.144  0.0160  0.1589  0.1164
  735POPI    C110277  11.845   7.957   6.031 -0.3526 -0.0111  0.1291
  735POPI    C210278  11.580   7.781   5.789 -0.3210 -0.0282  0.1067
  735POPI    C310279  11.630   8.177   5.776 -0.2285 -0.0428 -0.0049
  735POPI   PO410280  11.769   7.881   6.313 -0.0885  0.0984 -0.3402
  735POPI   GL110281  11.491   7.861   6.635  0.1768 -0.0139  0.1558
  735POPI   GL210282  11.524   7.462   6.517 -0.0234  0.3275  0.0228
  735POPI   C1A10283  11.551   7.622   7.025  0.0318  0.0978 -0.0174
  735POPI   D2A10284  11.814   7.487   7.298 -0.2223 -0.1879  0.3298
  735POPI   C3A10285  12.118   7.279   7.579 -0.1551 -0.0286 -0.0604
  735POPI   C4A10286  12.079   7.270   8.010  0.0728  0.0399 -0.2546
  735POPI   C1B10287  11.809   7.219   6.837 -0.1757 -0.3483  0.1290
  735POPI   C2B10288  11.811   6.981   7.219 -0.1196 -0.2203  0.3195
  735POPI   C3B10289  11.613   7.014   7.580  0.4135 -0.0292  0.0842
  735POPI   C4B10290  11.645   6.947   8.082 -0.4710 -0.1515  0.3350
  736POPI    C110291  14.937   6.469   5.468  0.2886  0.1491 -0.0189
  736POPI    C210292  14.831   6.677   5.142 -0.0269 -0.3520 -0.2480
  736POPI    C310293  15.149   6.434   5.130  0.0700 -0.2328 -0.1224
  736POPI   PO410294  14.723   6.336   5.507  0.5968  0.1652 -0.2783
  736POPI   GL110295  14.628   6.091   5.843  0.4115 -0.0780 -0.2720
  736POPI   GL210296  14.632   6.362   6.014  0.1292 -0.0720  0.0182
  736POPI   C1A10297  14.788   5.902   6.194 -0.0853 -0.1218  0.2466
  736POPI   D2A10298  14.883   5.689   6.588  0.1610  0.1624  0.0836
  736POPI   C3A10299  14.832   5.253   6.903 -0.0036  0.1516  0.1041
  736POPI   C4A10300  14.863   5.113   7.360 -0.3881 -0.0199 -0.1183
  736POPI   C1B10301  14.576   6.368   6.459 -0.3386  0.1619 -0.3904
  736POPI   C2B10302  14.717   6.171   6.827 -0.1643  0.0638 -0.0935
  736POPI   C3B10303  14.795   5.783   7.085 -0.1738 -0.0624  0.0678
  736POPI   C4B10304  15.195   5.484   7.184  0.2612 -0.0331 -0.0031
  737POPI    C110305   9.745   8.536   5.884 -0.1048  0.0860  0.1979
  737POPI    C210306   9.672   8.874   6.084  0.0557  0.2589 -0.0315
  737POPI    C310307   9.527   8.825   5.715 -0.0062  0.0565  0.0183
  737POPI   PO410308   9.904   8.372   6.085  0.0578 -0.2229 -0.0683
  737POPI   GL110309  10.178   8.170   6.395 -0.3095 -0.0491  0.1121
  737POPI   GL210310  10.440   8.350   6.294  0.2748  0.2828  0.1029
  737POPI   C1A10311   9.980   8.198   6.692 -0.0494  0.0221  0.0491
  737POPI   D2A10312   9.842   8.175   7.151 -0.0341 -0.1134 -0.1824
  737POPI   C3A10313  10.162   8.270   7.462 -0.5374 -0.2012 -0.3112
  737POPI   C4A10314  10.328   8.163   7.971  0.0444 -0.0124 -0.1718
  737POPI   C1B10315  10.510   8.361   6.789  0.5490 -0.0394  0.2999
  737POPI   C2B10316  10.608   8.256   7.209 -0.1791  0.2347  0.1149
  737POPI   C3B10317  10.693   8.155   7.632  0.1169  0.0757  0.1601
  737POPI   C4B10318  10.815   8.272   7.975  0.0453  0.1993 -0.1704
  738POPI    C110319  15.457   6.781   5.302 -0.4059  0.0658 -0.1555
  738POPI    C210320  15.446   7.178   5.259 -0.0629  0.1124  0.1448
  738POPI    C310321  15.684   6.958   5.025 -0.0725  0.1090  0.1383
  738POPI   PO410322  15.359   6.779   5.539 -0.0780  0.0479 -0.0733
  738POPI   GL110323  15.213   6.996   5.998 -0.2686  0.2159  0.1619
  738POPI   GL210324  15.465   6.846   6.043 -0.1460 -0.1151  0.0014
  738POPI   C1A10325  15.250   6.945   6.527  0.1289  0.2308  0.1135
  738POPI   D2A10326  15.608   7.118   6.782 -0.1607  0.0974  0.1515
  738POPI   C3A10327  15.566   7.335   7.188  0.1442  0.1752  0.3930
  738POPI   C4A10328  15.492   7.302   7.572 -0.0818 -0.0668  0.2251
  738POPI   C1B10329  15.541   6.556   6.387 -0.3853 -0.0231 -0.1762
  738POPI   C2B10330  15.476   6.489   6.889  0.1533 -0.1608  0.0565
  738POPI   C3B10331  15.338   6.307   7.376 -0.1690  0.1313  0.1748
  738POPI   C4B10332  15.016   6.090   7.438 -0.1052 -0.1063  0.1794
  739POPI    C110333  15.134  12.122   5.752 -0.0067  0.0315 -0.1220
  739POPI    C210334  15.008  11.824   5.517 -0.1892 -0.0470  0.0720
  739POPI    C310335  14.802  12.166   5.534 -0.0593  0.0381 -0.0408
  739POPI   PO410336  15.268  12.037   5.979  0.2180 -0.0482  0.1338
  739POPI   GL110337  15.563  12.018   6.288  0.0119 -0.2035  0.3467
  739POPI   GL210338  15.755  12.206   6.131  0.0967 -0.2600  0.2323
  739POPI   C1A10339  15.761  12.144   6.662  0.1310  0.0991 -0.1132
  739POPI   D2A10340  15.868  12.004   7.061 -0.1379  0.3351 -0.0074
  739POPI   C3A10341  15.921  12.183   7.503  0.0611  0.4376  0.0830
  739POPI   C4A10342  15.901  12.553   7.760  0.1262  0.2058  0.0777
  739POPI   C1B10343  15.779  12.505   6.294 -0.2233 -0.1557  0.5590
  739POPI   C2B10344  15.887  12.754   6.601  0.1869 -0.0745 -0.1429
  739POPI   C3B10345  16.000  12.937   7.005  0.0904 -0.0425  0.3397
  739POPI   C4B10346  16.061  12.841   7.338 -0.2984  0.3247  0.1100
  740POPI    C110347  17.473   2.784   5.274 -0.0937 -0.0012  0.1314
  740POPI    C210348  17.831   2.611   5.318 -0.1242 -0.0700  0.1108
  740POPI    C310349  17.603   2.519   5.003 -0.0715  0.1303  0.0126
  740POPI   PO410350  17.387   2.808   5.499 -0.1616 -0.3353 -0.0607
  740POPI   GL110351  17.526   2.946   5.869 -0.0622 -0.0386  0.1715
  740POPI   GL210352  17.643   2.664   5.905  0.4032 -0.0831 -0.1066
  740POPI   C1A10353  17.390   2.696   6.325  0.1461 -0.0447  0.0085
  740POPI   D2A10354  17.498   2.782   6.811  0.0981 -0.2709  0.0442
  740POPI   C3A10355  17.687   2.472   7.025  0.0083  0.1890 -0.0096
  740POPI   C4A10356  17.629   2.412   7.463  0.0185 -0.1472  0.1488
  740POPI   C1B10357  17.917   2.610   6.151  0.1534  0.2202 -0.3329
  740POPI   C2B10358  17.913   2.329   6.450 -0.1607  0.1773 -0.1925
  740POPI   C3B10359  18.033   1.993   6.593 -0.1274  0.2474 -0.2617
  740POPI   C4B10360  18.129   1.803   6.994 -0.1074 -0.0598  0.1538
  741POPI    C110361   7.129  10.495   5.558  0.1012  0.0575 -0.2524
  741POPI    C210362   6.964  10.332   5.232 -0.1501  0.0461 -0.1218
  741POPI    C310363   7.334  10.483   5.215 -0.0922 -0.1179 -0.3642
  741POPI   PO410364   7.081  10.380   5.710  0.1636  0.0656 -0.0062
  741POPI   GL110365   6.811  10.458   6.107  0.0655 -0.2720  0.2082
  741POPI   GL210366   6.516  10.682   6.140  0.3301 -0.0913 -0.0809
  741POPI   C1A10367   6.909  10.693   6.430 -0.0039 -0.0380  0.2516
  741POPI   D2A10368   6.957  10.665   6.827  0.0637  0.1142  0.3098
  741POPI   C3A10369   6.879  10.715   7.160 -0.0541 -0.0719  0.2193
  741POPI   C4A10370   7.121  10.765   7.519 -0.0308  0.0073  0.0841
  741POPI   C1B10371   6.315  10.550   6.504  0.1515  0.0926 -0.0344
  741POPI   C2B10372   6.341  10.474   6.873 -0.0778 -0.3620 -0.0437
  741POPI   C3B10373   6.181  10.376   7.290  0.0073 -0.1237  0.3751
  741POPI   C4B10374   5.967  10.415   7.662  0.1743 -0.1153  0.1871
  742POPS   CNO10375  13.862   6.294   5.241 -0.1595 -0.0714  0.0786
  742POPS   PO410376  13.902   5.775   5.330  0.0534  0.2762  0.1615
  742POPS   GL110377  14.103   5.586   5.641 -0.1789  0.1118  0.2688
  742POPS   GL210378  14.313   5.662   5.742 -0.1076 -0.0956 -0.3406
  742POPS   C1A10379  14.085   5.245   5.952 -0.0204 -0.1183 -0.0206
  742POPS   D2A10380  13.930   5.114   6.328  0.1608 -0.2509  0.0256
  742POPS   C3A10381  14.009   5.261   6.759 -0.0665 -0.0336  0.1223
  742POPS   C4A10382  14.371   5.143   7.190  0.2470  0.2221 -0.1935
  742POPS   C1B10383  14.324   5.631   6.163 -0.0097  0.1049  0.1673
  742POPS   C2B10384  14.452   5.859   6.538 -0.1074 -0.1955  0.0840
  742POPS   C3B10385  14.275   6.007   6.978 -0.0550 -0.0817  0.3621
  742POPS   C4B10386  14.538   6.160   7.286 -0.2600  0.0598  0.0208
  743POPS   CNO10387   6.542  10.221   5.563  0.1464 -0.0544 -0.0777
  743POPS   PO410388   6.829   9.926   5.751  0.1809  0.4644 -0.1458
  743POPS   GL110389   6.438   9.972   5.986 -0.0385  0.2124  0.1766
  743POPS   GL210390   6.359   9.617   5.916  0.0164  0.3317 -0.0554
  743POPS   C1A10391   6.287   9.975   6.302 -0.2127 -0.2911  0.3995
  743POPS   D2A10392   6.247  10.028   6.807  0.0308  0.1747  0.0719
  743POPS   C3A10393   5.883   9.882   7.074 -0.0339  0.0667  0.1319
  743POPS   C4A10394   5.527  10.107   7.311 -0.1267 -0.1043 -0.0796
  743POPS   C1B10395   6.214   9.490   6.305  0.1745  0.0492  0.1260
  743POPS   C2B10396   6.003   9.084   6.524  0.1291 -0.0087 -0.3814
  743POPS   C3B10397   5.902   8.793   6.842  0.0662  0.0231  0.0067
  743POPS   C4B10398   5.767   8.464   7.236 -0.1285 -0.0968  0.3183
  744POPS   CNO10399   9.970   7.977   5.775  0.0279 -0.0550 -0.0710
  744POPS   PO410400  10.278   7.752   6.115 -0.0643 -0.0489 -0.0850
  744POPS   GL110401  10.222   7.674   6.585 -0.0354  0.1129 -0.4247
  744POPS   GL210402  10.014   7.507   6.525  0.1304  0.4933  0.1027
  744POPS   C1A10403  10.005   7.718   7.022 -0.0229  0.1759 -0.1307
  744POPS   D2A10404   9.747   7.764   7.305 -0.0487  0.0846  0.0220
  744POPS   C3A10405   9.299   7.741   7.573 -0.1911 -0.0760 -0.2482
  744POPS   C4A10406   9.072   7.426   7.814 -0.0841  0.1561  0.0769
  744POPS   C1B10407   9.833   7.288   6.882 -0.2184 -0.2833  0.1667
  744POPS   C2B10408   9.789   7.274   7.312  0.0406  0.2002 -0.3781
  744POPS   C3B10409   9.847   7.425   7.682 -0.4658 -0.1532  0.1924
  744POPS   C4B10410   9.552   7.435   8.046 -0.1701 -0.0934  0.2072
  745POPS   CNO10411   1.577   0.397   5.733 -0.0890  0.0822  0.0971
  745POPS   PO410412   1.776   0.061   5.514  0.0301  0.1138 -0.0197
  745POPS   GL110413   2.144   0.175   5.745  0.3404  0.0747  0.0922
  745POPS   GL210414   2.004  -0.040   6.080  0.1031 -0.0606 -0.1664
  745POPS   C1A10415   2.538  -0.004   5.939  0.1345 -0.0059  0.3358
  745POPS   D2A10416   2.827  -0.075   6.221  0.2701  0.0482  0.1247
  745POPS   C3A10417   2.769  -0.020   6.618  0.2737 -0.0780 -0.1472
  745POPS   C4A10418   2.723   0.073   7.004  0.0976  0.2490  0.1502
  745POPS   C1B10419   2.277  -0.022   6.497  0.0347 -0.0687  0.1700
  745POPS   C2B10420   2.301   0.297   6.833 -0.1756  0.0320  0.2100
  745POPS   C3B10421   2.341   0.360   7.330  0.0922 -0.1025  0.3038
  745POPS   C4B10422   2.319   0.479   7.750 -0.0089  0.0807 -0.0190
  746POPS   CNO10423  14.464  13.190   5.268  0.0825  0.2179  0.2431
  746POPS   PO410424  14.178  13.409   5.254 -0.0077 -0.2279 -0.0174
  746POPS   GL110425  14.091  13.584   5.663  0.0303 -0.0867 -0.0447
  746POPS   GL210426  13.832  13.591   5.650  0.1117  0.1299  0.1206
  746POPS   C1A10427  14.039  13.460   6.121 -0.0753  0.1877  0.1906
  746POPS   D2A10428  13.735  13.415   6.423  0.1266  0.0514 -0.1296
  746POPS   C3A10429  13.658  13.036   6.685  0.0409 -0.1682  0.0038
  746POPS   C4A10430  13.330  12.899   6.802 -0.0192 -0.2516  0.1571
  746POPS   C1B10431  13.721  13.824   6.030 -0.0738 -0.3836  0.1051
  746POPS   C2B10432  13.655  13.903   6.414  0.2427  0.0578  0.1925
  746POPS   C3B10433  13.649  13.779   6.826 -0.3655 -0.1946 -0.0854
  746POPS   C4B10434  13.679  13.517   7.144  0.0803  0.1140 -0.0332
  747POPS   CNO10435   7.660  10.118   5.279  0.3009 -0.4074 -0.0161
  747POPS   PO410436   7.723  10.407   5.580 -0.2758  0.0373 -0.1414
  747POPS   GL110437   7.582  10.552   5.946  0.1655 -0.2385 -0.2511
  747POPS   GL210438   7.441  10.222   5.989  0.1399  0.1517 -0.2314
  747POPS   C1A10439   7.522  10.824   6.283 -0.3077  0.0867  0.1666
  747POPS   D2A10440   7.788  11.118   6.563 -0.1655  0.0068  0.1780
  747POPS   C3A10441   7.640  11.317   6.973  0.2025 -0.0894 -0.2528
  747POPS   C4A10442   7.697  11.186   7.316 -0.1813 -0.1924 -0.0929
  747POPS   C1B10443   7.328  10.324   6.415  0.1234 -0.0410  0.1382
  747POPS   C2B10444   7.234  10.273   6.799 -0.0750  0.0877 -0.1342
  747POPS   C3B10445   7.255  10.391   7.187 -0.3737 -0.0001 -0.3650
  747POPS   C4B10446   7.595  10.681   7.276 -0.2742  0.0167 -0.1682
  748POPS   CNO10447   8.316   2.983   5.981 -0.3270 -0.1482 -0.1434
  748POPS   PO410448   8.595   3.205   6.022  0.1196 -0.3304  0.0560
  748POPS   GL110449   8.672   3.342   6.438 -0.1664 -0.1788 -0.2292
  748POPS   GL210450   8.976   3.456   6.588 -0.1738 -0.1936  0.1888
  748POPS   C1A10451   8.202   3.423   6.620 -0.1387 -0.0760  0.0034
  748POPS   D2A10452   7.848   3.748   6.707  0.0221 -0.1335  0.2651
  748POPS   C3A10453   7.620   3.734   7.122 -0.1456  0.3011 -0.0598
  748POPS   C4A10454   7.370   3.421   7.320  0.1577 -0.1211 -0.0858
  748POPS   C1B10455   8.903   3.638   6.954 -0.4380 -0.3561 -0.2964
  748POPS   C2B10456   8.962   3.687   7.383  0.0626  0.4326  0.0386
  748POPS   C3B10457   9.121   3.635   7.735 -0.4009 -0.0214  0.1193
  748POPS   C4B10458   9.156   3.714   8.178 -0.1697 -0.0631 -0.1339
  749POPS   CNO10459   4.428  12.832   5.440 -0.4675  0.0903  0.1357
  749POPS   PO410460   4.307  12.447   5.391 -0.0530  0.1351 -0.0631
  749POPS   GL110461   4.463  12.392   5.791 -0.0114  0.0762 -0.4258
  749POPS   GL210462   4.560  12.592   6.069 -0.0919 -0.2219  0.3019
  749POPS   C1A10463   4.286  12.154   6.173 -0.3960 -0.2982  0.0359
  749POPS   D2A10464   4.254  11.777   6.374 -0.0908 -0.0457  0.0267
  749POPS   C3A10465   3.934  11.684   6.583  0.0225  0.1295  0.0683
  749POPS   C4A10466   3.646  11.657   7.047 -0.1710  0.1912  0.0695
  749POPS   C1B10467   4.872  12.742   6.367 -0.0504 -0.1540 -0.1663
  749POPS   C2B10468   4.797  13.102   6.704  0.0192  0.1367 -0.1560
  749POPS   C3B10469   4.765  13.323   7.104  0.2280 -0.2668  0.0760
  749POPS   C4B10470   4.644  13.432   7.480 -0.3142 -0.0267 -0.3838
  750POPS   CNO10471   5.918  18.072   5.298 -0.1009 -0.0929  0.0854
  750POPS   PO410472   5.712  18.027   5.737  0.0995  0.1414 -0.1766
  750POPS   GL110473   5.909  18.038   6.267  0.1647 -0.1592 -0.1662
  750POPS   GL210474   6.080  18.408   6.380  0.2051  0.0546  0.0431
  750POPS   C1A10475   5.979  18.070   6.705  0.0797  0.2153 -0.2116
  750POPS   D2A10476   5.820  18.035   7.051 -0.0586 -0.1979  0.0787
  750POPS   C3A10477   6.114  18.018   7.396 -0.1000 -0.2065  0.3940
  750POPS   C4A10478   6.351  18.102   7.738 -0.3886 -0.2078 -0.1713
  750POPS   C1B10479   5.974  18.624   6.835  0.1305  0.0526 -0.1706
  750POPS   C2B10480   5.954  18.491   7.267  0.4010 -0.0293  0.0030
  750POPS   C3B10481   6.076  18.454   7.685 -0.2569 -0.4407 -0.0600
  750POPS   C4B10482   5.752  18.427   8.039 -0.0013  0.3309  0.2509
  751POPS   CNO10483  11.713   8.387   6.208  0.1999  0.3106 -0.1232
  751POPS   PO410484  11.367   8.632   6.258 -0.0646  0.0987 -0.2782
  751POPS   GL110485  11.409   8.578   6.684 -0.0688  0.3212  0.0207
  751POPS   GL210486  11.559   8.363   6.746  0.0403 -0.2902  0.2363
  751POPS   C1A10487  11.394   8.614   7.154  0.2869 -0.0582 -0.0120
  751POPS   D2A10488  11.704   8.472   7.427  0.3604  0.1178  0.1092
  751POPS   C3A10489  11.865   8.869   7.736  0.2213 -0.2049 -0.0399
  751POPS   C4A10490  12.238   8.968   7.881  0.0029  0.0074 -0.1145
  751POPS   C1B10491  11.710   8.092   7.088  0.3438 -0.3140 -0.0758
  751POPS   C2B10492  11.605   7.943   7.402 -0.1644  0.0063 -0.0531
  751POPS   C3B10493  11.650   8.024   7.813  0.0614  0.3847 -0.2284
  751POPS   C4B10494  12.015   8.296   8.063  0.2515 -0.1191  0.1212
  752POPS   CNO10495  17.713  16.163   5.412 -0.1555  0.1824 -0.0207
  752POPS   PO410496  17.665  15.953   5.801 -0.0516  0.1123 -0.0212
  752POPS   GL110497  17.558  15.960   6.181 -0.0737 -0.1052 -0.1097
  752POPS   GL210498  17.431  16.200   6.222 -0.2750 -0.0159  0.0136
  752POPS   C1A10499  17.607  15.690   6.482  0.0393 -0.1201  0.2196
  752POPS   D2A10500  17.583  15.582   6.873  0.1055 -0.1221  0.0290
  752POPS   C3A10501  17.602  15.831   7.117 -0.0118  0.0487 -0.0100
  752POPS   C4A10502  17.375  16.158   7.449  0.1552 -0.1980  0.1944
  752POPS   C1B10503  17.615  16.123   6.701  0.0850 -0.2615 -0.1086
  752POPS   C2B10504  17.513  16.350   7.059 -0.1027  0.2153 -0.1430
  752POPS   C3B10505  17.028  16.413   7.193 -0.2192  0.2036  0.0176
  752POPS   C4B10506  16.671  16.694   7.284  0.1691  0.2225 -0.1126
  753POPS   CNO10507   6.125  10.557   5.477  0.0419  0.0022 -0.0095
  753POPS   PO410508   6.101  10.502   5.890  0.1246 -0.3640 -0.4911
  753POPS   GL110509   5.769  10.709   5.986 -0.1824  0.0639 -0.1363
  753POPS   GL210510   5.554  10.835   5.709  0.1019  0.0202 -0.0679
  753POPS   C1A10511   5.653  10.873   6.401 -0.0710  0.1696 -0.0408
  753POPS   D2A10512   5.504  11.095   6.652  0.1974 -0.0804 -0.0181
  753POPS   C3A10513   5.377  10.994   6.964  0.3205 -0.1356 -0.1901
  753POPS   C4A10514   5.279  10.962   7.393 -0.0512 -0.2547 -0.0645
  753POPS   C1B10515   5.621  11.242   5.972 -0.0211  0.0180 -0.2039
  753POPS   C2B10516   5.817  11.373   6.382 -0.0865  0.1640 -0.0697
  753POPS   C3B10517   5.815  11.640   6.644  0.0288  0.3460  0.1702
  753POPS   C4B10518   5.563  11.960   6.745 -0.3387 -0.1001 -0.1361
  754POPS   CNO10519  12.071   7.423   5.963 -0.0677  0.2803 -0.1332
  754POPS   PO410520  12.296   7.040   5.812 -0.2412 -0.2110  0.1400
  754POPS   GL110521  12.443   7.082   6.242  0.0813  0.0627 -0.0050
  754POPS   GL210522  12.226   7.304   6.419 -0.0640  0.1116  0.2026
  754POPS   C1A10523  12.651   7.034   6.665  0.1272 -0.1047 -0.0252
  754POPS   D2A10524  12.970   6.848   6.855  0.2858  0.2014  0.2047
  754POPS   C3A10525  12.966   6.832   7.244  0.1631 -0.4464  0.0226
  754POPS   C4A10526  12.969   6.974   7.635 -0.2206 -0.1862 -0.1612
  754POPS   C1B10527  12.069   6.897   6.636  0.1664  0.1139  0.1041
  754POPS   C2B10528  12.065   6.552   7.056 -0.1602 -0.0527 -0.0150
  754POPS   C3B10529  11.870   6.127   7.119 -0.1187  0.1329  0.0047
  754POPS   C4B10530  11.775   5.745   7.346  0.1816 -0.2182 -0.3016
  755POPS   CNO10531  13.727  16.043   6.168  0.0122  0.1353 -0.1091
  755POPS   PO410532  14.042  15.887   6.354 -0.1233 -0.2074 -0.4336
  755POPS   GL110533  14.122  15.702   6.688 -0.1865  0.0708  0.0357
  755POPS   GL210534  13.806  15.433   6.787 -0.1266 -0.0708 -0.2318
  755POPS   C1A10535  14.205  15.619   7.090 -0.1897  0.0615  0.1120
  755POPS   D2A10536  14.308  15.579   7.494  0.0057 -0.2869 -0.1425
  755POPS   C3A10537  14.441  15.309   7.785  0.1624 -0.0061 -0.0577
  755POPS   C4A10538  14.804  15.325   7.896  0.1161 -0.0347 -0.2634
  755POPS   C1B10539  13.743  15.419   7.290  0.1257 -0.0074  0.4713
  755POPS   C2B10540  13.899  15.323   7.715  0.0184  0.1436  0.2556
  755POPS   C3B10541  14.064  15.140   8.066  0.2648 -0.1321 -0.3930
  755POPS   C4B10542  13.978  14.650   8.257 -0.1002 -0.0264  0.1281
  756POPS   CNO10543   9.026  15.628   5.566  0.0431  0.3292 -0.3309
  756POPS   PO410544   8.906  15.361   5.869  0.1150 -0.2517  0.1786
  756POPS   GL110545   8.929  15.532   6.223  0.1563 -0.0079  0.2513
  756POPS   GL210546   9.110  15.245   6.478  0.5364  0.0791 -0.0175
  756POPS   C1A10547   8.889  15.689   6.559 -0.1865 -0.3980 -0.2395
  756POPS   D2A10548   8.987  15.739   6.962  0.0865 -0.0959  0.0830
  756POPS   C3A10549   8.799  15.500   7.216  0.0647  0.1762  0.2477
  756POPS   C4A10550   8.703  15.313   7.665 -0.0540  0.4032  0.0453
  756POPS   C1B10551   9.127  15.279   6.939 -0.1855  0.1596 -0.0473
  756POPS   C2B10552   9.229  15.184   7.382  0.1076 -0.2462  0.1970
  756POPS   C3B10553   9.210  15.225   7.822  0.1295 -0.1366  0.2952
  756POPS   C4B10554   9.299  15.485   8.129  0.0909  0.1515 -0.0307
  757POPS   CNO10555  14.410   8.830   5.785  0.0304  0.1504 -0.0079
  757POPS   PO410556  14.029   8.551   5.886  0.0756 -0.0373  0.1009
  757POPS   GL110557  14.285   8.593   6.276  0.0494 -0.0480 -0.1786
  757POPS   GL210558  14.675   8.693   6.271  0.0133 -0.1606 -0.1711
  757POPS   C1A10559  14.560   8.503   6.693  0.0655 -0.0081 -0.2749
  757POPS   D2A10560  14.706   8.604   7.080 -0.0872  0.0764  0.0430
  757POPS   C3A10561  14.706   8.449   7.505 -0.2206 -0.0042  0.1589
  757POPS   C4A10562  15.052   8.453   7.780  0.3272 -0.1217  0.3689
  757POPS   C1B10563  15.053   8.573   6.347  0.1949  0.1019 -0.3768
  757POPS   C2B10564  15.321   8.457   6.673  0.2445 -0.0213 -0.1867
  757POPS   C3B10565  15.573   8.335   7.093  0.1071 -0.0558 -0.0872
  757POPS   C4B10566  15.866   8.048   7.214  0.2888 -0.2248  0.2541
  758POPS   CNO10567   6.509  15.717   5.935 -0.2984  0.3662 -0.2120
  758POPS   PO410568   6.083  15.877   5.815 -0.0948  0.1470  0.5287
  758POPS   GL110569   6.073  15.956   6.198 -0.1024  0.3889 -0.0392
  758POPS   GL210570   5.692  15.983   6.144  0.0186  0.1675  0.1181
  758POPS   C1A10571   5.981  16.108   6.553  0.2676  0.2955  0.0314
  758POPS   D2A10572   5.886  15.965   6.907  0.1497 -0.0029 -0.1449
  758POPS   C3A10573   5.865  15.904   7.308  0.1047  0.0886 -0.2550
  758POPS   C4A10574   5.747  15.858   7.674 -0.1061 -0.1357  0.2412
  758POPS   C1B10575   5.660  15.693   6.454 -0.2842 -0.2344 -0.3065
  758POPS   C2B10576   5.402  15.577   6.883 -0.1312 -0.0853  0.1776
  758POPS   C3B10577   5.177  15.335   7.171 -0.0551 -0.4574 -0.1733
  758POPS   C4B10578   4.973  15.285   7.590 -0.1028 -0.0325 -0.2929
  759POPS   CNO10579   4.680   6.617   5.321 -0.3238  0.2326 -0.1107
  759POPS   PO410580   4.828   6.538   5.692  0.1123 -0.1061 -0.3043
  759POPS   GL110581   4.507   6.461   6.034  0.1189  0.2080  0.2295
  759POPS   GL210582   4.407   6.705   6.236 -0.0021 -0.1310 -0.0574
  759POPS   C1A10583   4.311   6.190   6.342 -0.0818 -0.1322 -0.1125
  759POPS   D2A10584   4.382   5.829   6.562 -0.0729  0.0989 -0.0533
  759POPS   C3A10585   4.321   5.781   6.993 -0.1269  0.3481  0.2356
  759POPS   C4A10586   4.146   5.758   7.378 -0.1978 -0.0652 -0.1294
  759POPS   C1B10587   4.664   6.691   6.582  0.0344  0.1015 -0.0478
  759POPS   C2B10588   4.640   6.737   6.971  0.0642  0.3118  0.0030
  759POPS   C3B10589   4.376   6.587   7.364  0.1694 -0.0689  0.1740
  759POPS   C4B10590   4.404   6.721   7.707 -0.1520  0.0423 -0.1572
  760POPS   CNO10591   7.946   6.567   5.579 -0.1088 -0.1260  0.0553
  760POPS   PO410592   7.484   6.453   5.689 -0.0863  0.2274 -0.0812
  760POPS   GL110593   7.365   6.356   6.169  0.0196  0.1141  0.0555
  760POPS   GL210594   7.225   6.610   6.313 -0.1703 -0.1977  0.2578
  760POPS   C1A10595   7.377   6.199   6.616 -0.0638  0.3497  0.0107
  760POPS   D2A10596   7.315   6.060   6.969 -0.0932  0.0128 -0.1826
  760POPS   C3A10597   7.219   6.199   7.364  0.1603  0.0015  0.0608
  760POPS   C4A10598   7.208   6.104   7.822 -0.3253 -0.0993  0.1174
  760POPS   C1B10599   6.997   6.494   6.587  0.2854 -0.0501 -0.1131
  760POPS   C2B10600   6.851   6.565   7.009  0.1019  0.0680 -0.0790
  760POPS   C3B10601   6.530   6.810   7.260 -0.0289  0.2902  0.1421
  760POPS   C4B10602   6.347   6.658   7.757  0.2023 -0.1725 -0.0917
  761POPS   CNO10603  12.039   4.638   5.435 -0.0502 -0.0058 -0.2498
  761POPS   PO410604  12.240   4.327   5.824  0.0726 -0.2262  0.0108
  761POPS   GL110605  12.346   4.551   6.206 -0.2590 -0.0447 -0.1384
  761POPS   GL210606  12.075   4.473   6.356 -0.3274 -0.0525 -0.2510
  761POPS   C1A10607  12.515   4.808   6.603  0.0290 -0.3591 -0.1790
  761POPS   D2A10608  12.783   4.925   6.905 -0.1609 -0.0179 -0.2133
  761POPS   C3A10609  12.917   4.642   7.124 -0.2883  0.0794 -0.1180
  761POPS   C4A10610  12.976   4.295   7.288  0.1115 -0.2776 -0.1954
  761POPS   C1B10611  11.978   4.358   6.771  0.2853 -0.3555  0.0484
  761POPS   C2B10612  11.995   4.457   7.213 -0.2430  0.0700 -0.1958
  761POPS   C3B10613  12.107   4.567   7.560 -0.2277  0.3043 -0.2692
  761POPS   C4B10614  12.354   4.804   7.947  0.0475 -0.2186  0.2427
  762POPS   CNO10615   9.742  11.022   5.274 -0.0904 -0.0244 -0.0714
  762POPS   PO410616   9.619  10.791   5.604  0.1055  0.3411  0.2674
  762POPS   GL110617   9.682  11.008   6.042 -0.0336 -0.0326  0.1855
  762POPS   GL210618   9.499  10.787   6.102 -0.0132 -0.1004  0.1158
  762POPS   C1A10619   9.674  10.974   6.548  0.0076  0.2053  0.1621
  762POPS   D2A10620   9.969  10.801   6.873  0.2818  0.3642 -0.2104
  762POPS   C3A10621   9.790  10.799   7.284 -0.1292  0.2546 -0.0728
  762POPS   C4A10622   9.745  10.451   7.474 -0.1143 -0.3281  0.2418
  762POPS   C1B10623   9.215  10.563   6.414 -0.0777  0.1038  0.2994
  762POPS   C2B10624   8.951  10.306   6.720  0.1176  0.5204  0.0432
  762POPS   C3B10625   8.772  10.390   7.014  0.1082 -0.0215 -0.2267
  762POPS   C4B10626   8.577  10.542   7.392  0.0794  0.2783 -0.2986
  763POPS   CNO10627   4.301  18.553   5.965  0.1082 -0.1217  0.1647
  763POPS   PO410628   4.714  18.403   5.796 -0.0490  0.1642 -0.0203
  763POPS   GL110629   4.927  18.388   6.200 -0.2311 -0.1332 -0.0126
  763POPS   GL210630   4.713  18.180   6.323  0.3058  0.0177 -0.3007
  763POPS   C1A10631   5.066  18.403   6.614 -0.2022  0.0209 -0.1113
  763POPS   D2A10632   5.054  18.716   6.876 -0.1136  0.0413 -0.1386
  763POPS   C3A10633   4.683  18.705   6.827 -0.3342 -0.0866 -0.0393
  763POPS   C4A10634   4.441  18.475   6.572  0.0402 -0.0743 -0.0099
  763POPS   C1B10635   4.826  17.784   6.754  0.0199 -0.2266 -0.0685
  763POPS   C2B10636   4.886  17.510   7.210  0.0032  0.1475  0.3676
  763POPS   C3B10637   4.978  17.582   7.705  0.0206 -0.0543  0.1378
  763POPS   C4B10638   5.278  17.836   7.943 -0.0744  0.3206 -0.0521
  764POPS   CNO10639  15.999  17.611   5.345  0.1302 -0.1638 -0.4134
  764POPS   PO410640  15.822  17.654   5.777  0.2222  0.1769 -0.1974
  764POPS   GL110641  15.945  17.781   6.235 -0.0367  0.0692 -0.0204
  764POPS   GL210642  16.259  17.820   6.155 -0.1123  0.3777  0.0853
  764POPS   C1A10643  16.001  18.067   6.650  0.1642  0.0837 -0.0610
  764POPS   D2A10644  16.071  18.101   7.145 -0.3014  0.0344 -0.0290
  764POPS   C3A10645  16.563  18.309   7.247 -0.0535  0.0627  0.3111
  764POPS   C4A10646  16.895  18.440   6.950  0.1023 -0.3448 -0.0578
  764POPS   C1B10647  16.293  17.383   6.315  0.1288 -0.1587  0.1036
  764POPS   C2B10648  16.158  17.144   6.606 -0.0143 -0.0391  0.1876
  764POPS   C3B10649  16.350  16.968   6.933 -0.0025  0.0162  0.2410
  764POPS   C4B10650  16.089  16.763   7.325  0.1382  0.0011  0.2006
  765POPS   CNO10651   2.216   7.292   5.320 -0.0307  0.0286  0.1928
  765POPS   PO410652   1.807   7.366   5.349 -0.0908 -0.0078 -0.0670
  765POPS   GL110653   1.584   7.302   5.691  0.2222 -0.2649 -0.0122
  765POPS   GL210654   1.394   7.171   5.554  0.2278 -0.1483  0.3597
  765POPS   C1A10655   1.535   7.189   6.100 -0.0875 -0.1565 -0.0384
  765POPS   D2A10656   1.292   6.750   6.120 -0.3486 -0.1003  0.1898
  765POPS   C3A10657   1.391   6.627   6.442 -0.0282  0.1208 -0.0084
  765POPS   C4A10658   1.130   6.768   6.765 -0.1484  0.3158 -0.0276
  765POPS   C1B10659   1.081   7.208   5.920  0.3771 -0.1316 -0.1049
  765POPS   C2B10660   1.014   7.052   6.348  0.2579 -0.3014 -0.1808
  765POPS   C3B10661   0.855   7.303   6.744 -0.0923  0.1470 -0.0717
  765POPS   C4B10662   0.642   7.156   7.122  0.0461  0.2367  0.1726
  766POPS   CNO10663   1.557   6.836   4.708  0.2438 -0.3110  0.3295
  766POPS   PO410664   1.712   6.453   4.936 -0.3802  0.1449  0.0491
  766POPS   GL110665   1.624   6.300   5.292 -0.3449 -0.0389  0.0364
  766POPS   GL210666   1.369   6.154   5.337 -0.2416 -0.0661  0.0904
  766POPS   C1A10667   1.700   6.113   5.680 -0.3256 -0.1126 -0.0865
  766POPS   D2A10668   1.676   6.236   6.138  0.0030 -0.1500 -0.0810
  766POPS   C3A10669   2.002   6.243   6.331 -0.4171 -0.2672 -0.1394
  766POPS   C4A10670   2.166   6.285   6.649 -0.0509  0.4084  0.1946
  766POPS   C1B10671   1.130   6.260   5.591  0.0261  0.2462 -0.1869
  766POPS   C2B10672   1.216   6.287   5.992  0.4192  0.0466  0.2021
  766POPS   C3B10673   1.298   6.143   6.474  0.1128  0.0538 -0.1933
  766POPS   C4B10674   1.281   6.086   6.926 -0.3969 -0.0565 -0.0590
  767POPS   CNO10675  17.280  17.697   5.735  0.1459  0.0278 -0.0558
  767POPS   PO410676  17.191  17.260   5.839 -0.3200 -0.1872 -0.1029
  767POPS   GL110677  17.392  17.009   6.173  0.3474 -0.0092  0.1765
  767POPS   GL210678  17.475  16.730   6.164 -0.2037  0.0971 -0.1754
  767POPS   C1A10679  17.335  17.222   6.667  0.1337  0.0384  0.2001
  767POPS   D2A10680  17.413  17.259   7.123 -0.0490 -0.1207 -0.1611
  767POPS   C3A10681  17.550  17.263   7.534  0.2895  0.2307  0.1160
  767POPS   C4A10682  17.440  17.055   7.901  0.1438 -0.3321 -0.1809
  767POPS   C1B10683  17.520  16.743   6.626 -0.1989  0.1385 -0.1121
  767POPS   C2B10684  17.227  16.811   6.981 -0.1036  0.2002  0.1235
  767POPS   C3B10685  17.182  16.787   7.459 -0.3240 -0.3926 -0.1355
  767POPS   C4B10686  16.897  16.605   7.729  0.1459  0.0072 -0.3149
  768POPS   CNO10687   9.570   7.326   6.413  0.1385  0.1271  0.0108
  768POPS   PO410688   9.316   7.750   6.179 -0.2487 -0.2641  0.2027
  768POPS   GL110689   9.181   7.601   6.573  0.0678 -0.0841  0.1999
  768POPS   GL210690   8.940   7.570   6.635 -0.0525  0.6206  0.0351
  768POPS   C1A10691   9.300   7.361   6.967  0.0808 -0.2480  0.0776
  768POPS   D2A10692   9.246   7.233   7.323 -0.0512  0.0665 -0.1322
  768POPS   C3A10693   9.464   7.109   7.643 -0.1455 -0.0663  0.3401
  768POPS   C4A10694   9.707   6.956   7.889 -0.1249 -0.0466  0.0391
  768POPS   C1B10695   8.861   7.905   6.967  0.0872  0.1737  0.1598
  768POPS   C2B10696   8.774   8.195   7.342 -0.0411  0.0190  0.1337
  768POPS   C3B10697   8.435   8.045   7.575  0.0677 -0.1998 -0.0050
  768POPS   C4B10698   8.084   8.191   7.937 -0.2221 -0.1112 -0.0366
  769POPS   CNO10699   4.570   7.787   5.708  0.0827  0.0768  0.1916
  769POPS   PO410700   4.573   7.378   5.572  0.1456  0.1769  0.2203
  769POPS   GL110701   4.423   7.377   6.027 -0.1595 -0.0188 -0.3200
  769POPS   GL210702   4.630   7.180   6.204  0.1404 -0.0245 -0.1034
  769POPS   C1A10703   4.179   7.221   6.368 -0.1519 -0.1352 -0.0773
  769POPS   D2A10704   3.901   7.405   6.713  0.1687 -0.1697 -0.0790
  769POPS   C3A10705   3.976   7.451   7.233  0.0014  0.2323 -0.0609
  769POPS   C4A10706   4.114   7.124   7.558 -0.0394 -0.0099  0.3106
  769POPS   C1B10707   4.615   7.172   6.607  0.3463  0.0237  0.1364
  769POPS   C2B10708   4.279   7.152   7.023 -0.1024 -0.0641  0.0477
  769POPS   C3B10709   3.988   6.793   7.169 -0.0665  0.2074  0.2669
  769POPS   C4B10710   3.860   6.386   7.124  0.0365 -0.0144  0.0895
  770POPS   CNO10711  10.016  18.232   6.328 -0.1923  0.2593  0.0014
  770POPS   PO410712  10.045  17.962   6.004  0.1774 -0.0417 -0.0291
  770POPS   GL110713  10.038  17.750   6.475 -0.0657  0.2083  0.0209
  770POPS   GL210714   9.779  17.882   6.637 -0.1911 -0.1612 -0.0654
  770POPS   C1A10715   9.987  17.474   6.896 -0.1479  0.1043  0.0450
  770POPS   D2A10716   9.860  17.320   7.320  0.3570  0.1007  0.0200
  770POPS   C3A10717  10.055  17.208   7.778 -0.3383  0.1732  0.0336
  770POPS   C4A10718  10.074  16.989   8.151  0.2951 -0.0126 -0.0702
  770POPS   C1B10719   9.726  18.004   7.059  0.1369  0.2157 -0.0078
  770POPS   C2B10720   9.607  17.871   7.501 -0.2229  0.0189  0.2124
  770POPS   C3B10721   9.712  17.566   7.860 -0.0400 -0.1123  0.1452
  770POPS   C4B10722  10.056  17.500   8.206  0.2734 -0.0725  0.0380
  771POPS   CNO10723  16.349   5.876   5.162 -0.0972  0.1423  0.2049
  771POPS   PO410724  15.939   6.196   5.181  0.1324  0.1383  0.4976
  771POPS   GL110725  15.882   6.092   5.620  0.0218 -0.2494 -0.1186
  771POPS   GL210726  15.744   6.337   5.845 -0.0349  0.1792 -0.1701
  771POPS   C1A10727  16.229   6.163   5.852 -0.2195 -0.1597  0.0346
  771POPS   D2A10728  16.541   6.375   6.099  0.0888 -0.3255  0.0235
  771POPS   C3A10729  16.661   6.418   6.543  0.0160  0.1614 -0.0298
  771POPS   C4A10730  17.009   6.606   6.813 -0.0635  0.1131 -0.1926
  771POPS   C1B10731  15.696   5.886   5.995 -0.0174 -0.0152 -0.1233
  771POPS   C2B10732  15.722   5.550   6.289  0.1002  0.1884  0.2816
  771POPS   C3B10733  15.460   5.637   6.705  0.0420 -0.0656  0.0849
  771POPS   C4B10734  15.221   5.991   6.955 -0.0537 -0.1923  0.3580
  772POPS   CNO10735  12.102   2.204   6.493 -0.1768 -0.0435  0.1718
  772POPS   PO410736  11.830   1.854   6.492  0.0553  0.1566 -0.2278
  772POPS   GL110737  11.978   1.888   6.868 -0.0618 -0.2365  0.2584
  772POPS   GL210738  12.223   1.766   6.828  0.0846 -0.0086  0.0970
  772POPS   C1A10739  11.971   2.004   7.300  0.0961 -0.4646  0.2990
  772POPS   D2A10740  11.875   2.382   7.555  0.0587  0.1311 -0.3897
  772POPS   C3A10741  11.927   2.265   7.936  0.1298  0.0531 -0.1969
  772POPS   C4A10742  12.205   2.270   8.308 -0.3260 -0.2650 -0.2009
  772POPS   C1B10743  12.431   1.738   7.241 -0.0743 -0.2129  0.1193
  772POPS   C2B10744  12.706   1.887   7.489 -0.0352 -0.0993 -0.3691
  772POPS   C3B10745  12.710   2.239   7.875  0.0741 -0.2566  0.0635
  772POPS   C4B10746  13.138   2.184   8.121  0.1753 -0.2416  0.0270
  773POPS   CNO10747  11.532  13.518   5.508 -0.0263 -0.0462 -0.0998
  773POPS   PO410748  11.191  13.689   5.846  0.1353  0.1558  0.3918
  773POPS   GL110749  11.468  13.382   6.059  0.2836  0.1385  0.4548
  773POPS   GL210750  11.861  13.345   5.964  0.3018  0.1275 -0.0727
  773POPS   C1A10751  11.666  13.221   6.396 -0.0188  0.2060  0.3072
  773POPS   D2A10752  11.872  13.253   6.764  0.1747  0.0142  0.1932
  773POPS   C3A10753  11.869  13.364   7.189  0.0757  0.4004 -0.1058
  773POPS   C4A10754  11.970  13.163   7.514  0.0913 -0.0757 -0.1574
  773POPS   C1B10755  11.854  13.677   6.314 -0.0152 -0.1259 -0.2710
  773POPS   C2B10756  11.985  13.769   6.759 -0.2261 -0.0888 -0.1079
  773POPS   C3B10757  12.047  13.866   7.202 -0.0893 -0.2092 -0.3382
  773POPS   C4B10758  11.991  14.012   7.595 -0.1338 -0.0470 -0.1028
  774POPS   CNO10759  17.356  11.382   5.650 -0.0303  0.1486  0.0424
  774POPS   PO410760  17.737  11.334   5.615 -0.1581  0.2654 -0.0198
  774POPS   GL110761  17.634  11.095   6.021 -0.1016 -0.1267 -0.1604
  774POPS   GL210762  17.860  11.328   6.080 -0.3004  0.0911 -0.2006
  774POPS   C1A10763  17.606  10.635   6.057  0.1369 -0.0838 -0.2098
  774POPS   D2A10764  17.804  10.349   6.360 -0.0022  0.1078 -0.0417
  774POPS   C3A10765  17.859  10.291   6.768  0.0567 -0.1419  0.3605
  774POPS   C4A10766  17.766   9.957   6.992 -0.2102 -0.1021  0.1517
  774POPS   C1B10767  18.213  11.326   6.430 -0.3536  0.0835  0.0458
  774POPS   C2B10768  18.155  11.260   6.793 -0.2396  0.0364 -0.1131
  774POPS   C3B10769  18.097  11.421   7.220 -0.2335 -0.0999 -0.0733
  774POPS   C4B10770  17.825  11.338   7.439 -0.0505 -0.1611 -0.1215
  775POPS   CNO10771  17.478   7.117   4.451  0.0264  0.0803  0.0290
  775POPS   PO410772  17.721   7.139   4.758  0.1226  0.0536 -0.0759
  775POPS   GL110773  17.895   6.993   5.183 -0.1802  0.1491  0.1064
  775POPS   GL210774  18.139   6.788   5.313  0.2170 -0.2207  0.5917
  775POPS   C1A10775  17.682   7.071   5.644  0.4187  0.1262 -0.1072
  775POPS   D2A10776  17.683   7.150   6.049 -0.3088  0.1960  0.1854
  775POPS   C3A10777  17.322   7.176   6.261 -0.0964  0.0374  0.1867
  775POPS   C4A10778  17.050   6.837   6.378 -0.2044 -0.0680 -0.1496
  775POPS   C1B10779  17.988   6.418   5.658 -0.2706  0.0120 -0.1321
  775POPS   C2B10780  17.878   6.473   6.084 -0.0669  0.0447  0.0651
  775POPS   C3B10781  18.100   6.667   6.393  0.3688 -0.0686  0.2432
  775POPS   C4B10782  18.288   6.693   6.791  0.0304  0.0837  0.2798
  776POPS   CNO10783  12.983  16.440   5.775 -0.4934  0.0417  0.2734
  776POPS   PO410784  12.738  16.172   6.093 -0.1309  0.0241  0.0651
  776POPS   GL110785  12.664  16.297   6.549 -0.1977 -0.1003  0.4314
  776POPS   GL210786  12.909  16.555   6.733  0.1794 -0.0000  0.2792
  776POPS   C1A10787  12.605  16.083   6.888  0.0548 -0.1085  0.1504
  776POPS   D2A10788  12.248  15.866   7.259  0.0793  0.2159 -0.1540
  776POPS   C3A10789  12.516  15.800   7.574  0.5109 -0.1570 -0.0560
  776POPS   C4A10790  12.590  15.675   7.978 -0.0543  0.1678  0.1814
  776POPS   C1B10791  12.582  16.715   7.076  0.1330  0.3339 -0.3228
  776POPS   C2B10792  12.497  16.706   7.535  0.1988  0.0621 -0.1579
  776POPS   C3B10793  12.399  16.867   7.917 -0.0746  0.1635  0.0400
  776POPS   C4B10794  12.552  17.120   8.232  0.0193 -0.0922 -0.2905
  777POPS   CNO10795  11.930   5.555   5.227  0.1160 -0.0852  0.2753
  777POPS   PO410796  12.175   5.342   5.665  0.2206 -0.1925 -0.0984
  777POPS   GL110797  12.374   5.312   6.150 -0.3684  0.0021 -0.0243
  777POPS   GL210798  12.637   5.327   6.130 -0.0822 -0.1150 -0.0453
  777POPS   C1A10799  12.311   5.373   6.580  0.3397 -0.1858  0.2809
  777POPS   D2A10800  12.423   5.300   6.933  0.0830  0.0703  0.0405
  777POPS   C3A10801  12.544   5.537   7.240 -0.1510 -0.1850 -0.0899
  777POPS   C4A10802  12.526   5.688   7.755 -0.1290  0.0078 -0.0446
  777POPS   C1B10803  12.807   5.268   6.507 -0.3111  0.0467  0.1200
  777POPS   C2B10804  12.966   5.466   6.992 -0.2754 -0.0764  0.1099
  777POPS   C3B10805  13.123   5.615   7.483  0.1449  0.1481 -0.0708
  777POPS   C4B10806  13.084   5.725   7.947  0.0436 -0.2784  0.1706
  778POPS   CNO10807  16.837  11.931   5.135 -0.2342 -0.0446  0.0736
  778POPS   PO410808  17.140  12.186   5.101 -0.0068 -0.3444  0.3234
  778POPS   GL110809  17.407  12.357   5.565 -0.1379 -0.2148  0.0476
  778POPS   GL210810  17.607  12.223   5.747 -0.3419  0.2864  0.1699
  778POPS   C1A10811  17.455  12.478   6.076 -0.0428 -0.0110  0.1747
  778POPS   D2A10812  17.550  12.498   6.589 -0.0804 -0.0831 -0.2247
  778POPS   C3A10813  17.941  12.397   6.815  0.0367  0.1951 -0.1284
  778POPS   C4A10814  18.103  12.404   7.143 -0.1950 -0.1659  0.2800
  778POPS   C1B10815  17.752  12.102   6.139 -0.0508 -0.0793 -0.0917
  778POPS   C2B10816  18.102  12.011   6.560 -0.0772 -0.1000 -0.1070
  778POPS   C3B10817  18.093  11.811   6.933  0.0192 -0.1968  0.2650
  778POPS   C4B10818  18.211  11.994   7.348  0.1520 -0.0753  0.1078
  779POPS   CNO10819  14.523  10.138   5.613  0.1678  0.1353 -0.2302
  779POPS   PO410820  14.782  10.396   5.598  0.2005  0.0945  0.1181
  779POPS   GL110821  14.740  10.583   6.049  0.1646  0.1159  0.0100
  779POPS   GL210822  14.352  10.435   6.172 -0.1957 -0.0518  0.2283
  779POPS   C1A10823  14.777  10.743   6.369 -0.0454 -0.0139  0.1720
  779POPS   D2A10824  14.866  10.857   6.790  0.1263  0.1612 -0.0551
  779POPS   C3A10825  14.850  11.027   7.215 -0.0504  0.1106 -0.1426
  779POPS   C4A10826  15.059  11.026   7.502  0.1375 -0.2411  0.0084
  779POPS   C1B10827  14.422  10.556   6.586  0.1126  0.0296  0.1400
  779POPS   C2B10828  14.418  10.671   6.991 -0.1739  0.0609  0.0339
  779POPS   C3B10829  14.212  10.424   7.332  0.0775 -0.0095  0.1147
  779POPS   C4B10830  14.059  10.526   7.777  0.3252 -0.0400  0.0099
  780POPS   CNO10831   9.833  13.446   5.849 -0.0668 -0.1100  0.3312
  780POPS   PO410832   9.872  13.037   5.718 -0.0442  0.0128 -0.0110
  780POPS   GL110833   9.810  12.871   6.151 -0.0990  0.1976 -0.1745
  780POPS   GL210834   9.516  12.715   6.097  0.2917 -0.0834 -0.0718
  780POPS   C1A10835   9.874  13.059   6.526 -0.0608 -0.1956 -0.1514
  780POPS   D2A10836   9.768  12.978   7.001 -0.0813  0.1644 -0.2089
  780POPS   C3A10837   9.339  12.903   7.287 -0.1776  0.2180  0.0916
  780POPS   C4A10838   9.161  12.904   7.660 -0.0855 -0.0618  0.1381
  780POPS   C1B10839   9.495  12.701   6.501 -0.3208 -0.2532  0.3648
  780POPS   C2B10840   9.477  12.578   6.838 -0.1468  0.3193 -0.5939
  780POPS   C3B10841   9.408  12.381   7.283 -0.0130  0.0834 -0.0423
  780POPS   C4B10842   9.436  12.179   7.585  0.0574 -0.1254  0.3589
  781POPS   CNO10843   6.674   5.321   5.301  0.1334  0.0306  0.0418
  781POPS   PO410844   6.756   5.550   5.712 -0.1898 -0.1134  0.1186
  781POPS   GL110845   6.915   5.224   6.079 -0.2214 -0.0296  0.0097
  781POPS   GL210846   7.133   5.021   6.117  0.0669  0.0122 -0.2784
  781POPS   C1A10847   6.802   5.131   6.492  0.0537  0.1789 -0.1487
  781POPS   D2A10848   6.861   5.098   6.976 -0.3777  0.0168  0.5361
  781POPS   C3A10849   6.541   5.193   7.261  0.2156  0.1763  0.1689
  781POPS   C4A10850   6.432   5.079   7.718  0.2073 -0.1455 -0.1433
  781POPS   C1B10851   7.307   5.251   6.507  0.1310  0.1258  0.0949
  781POPS   C2B10852   7.386   5.255   6.911  0.3086 -0.0435 -0.1967
  781POPS   C3B10853   7.207   5.564   7.073  0.1037  0.2290 -0.1969
  781POPS   C4B10854   7.146   5.674   7.407  0.3312 -0.0970  0.2060
  782POPS   CNO10855  12.003   2.582   5.962  0.0886  0.0085 -0.1972
  782POPS   PO410856  12.399   2.369   6.045 -0.2240 -0.2034  0.0293
  782POPS   GL110857  12.560   2.451   6.422 -0.1485 -0.0658 -0.1817
  782POPS   GL210858  12.281   2.643   6.617 -0.1355  0.0586  0.3309
  782POPS   C1A10859  12.922   2.335   6.760 -0.1950 -0.0990  0.0503
  782POPS   D2A10860  13.236   2.301   7.099 -0.4185  0.2537 -0.2467
  782POPS   C3A10861  13.184   2.212   7.561  0.2290  0.2056  0.1573
  782POPS   C4A10862  13.174   1.837   7.715 -0.2781 -0.1915 -0.2509
  782POPS   C1B10863  12.322   2.968   7.067 -0.0644  0.3795 -0.1374
  782POPS   C2B10864  12.511   3.049   7.429  0.0524  0.0238 -0.2161
  782POPS   C3B10865  12.784   3.090   7.825 -0.1329  0.0699 -0.1882
  782POPS   C4B10866  13.221   3.104   7.879 -0.3202  0.0548 -0.0123
  783POPS   CNO10867  12.586   5.703   5.779 -0.2057 -0.2708 -0.1446
  783POPS   PO410868  12.972   5.613   5.409  0.3359 -0.1270  0.1347
  783POPS   GL110869  13.110   5.854   5.738 -0.1445 -0.3055 -0.1770
  783POPS   GL210870  12.915   6.110   5.817 -0.3247  0.1602  0.0266
  783POPS   C1A10871  13.364   6.006   6.052  0.2305 -0.0301 -0.0640
  783POPS   D2A10872  13.473   6.227   6.071 -0.1729 -0.0936  0.3708
  783POPS   C3A10873  13.696   6.296   6.450 -0.2362  0.1261  0.0538
  783POPS   C4A10874  14.152   6.356   6.681 -0.1926  0.1602  0.5404
  783POPS   C1B10875  12.934   6.197   6.255 -0.0882 -0.0221  0.2603
  783POPS   C2B10876  13.066   6.381   6.618  0.3414 -0.0021 -0.3520
  783POPS   C3B10877  13.400   6.597   6.860 -0.2637  0.2136 -0.0399
  783POPS   C4B10878  13.763   6.858   6.886 -0.1596 -0.1630  0.0544
  784POPS   CNO10879   1.429  15.968   5.782 -0.2798 -0.2014  0.0150
  784POPS   PO410880   1.397  16.412   5.945  0.1343 -0.0110 -0.2230
  784POPS   GL110881   1.153  16.491   6.285 -0.0507  0.0705 -0.0106
  784POPS   GL210882   0.992  16.203   6.407  0.0755 -0.3132 -0.1770
  784POPS   C1A10883   0.969  16.787   6.595 -0.0815  0.2649  0.0571
  784POPS   D2A10884   0.956  17.031   6.967 -0.2333  0.0993 -0.0946
  784POPS   C3A10885   0.605  16.966   7.295 -0.2282  0.0785  0.0258
  784POPS   C4A10886   0.450  16.651   7.613 -0.0475  0.1434 -0.1943
  784POPS   C1B10887   0.852  16.324   6.839 -0.0012 -0.2317 -0.0569
  784POPS   C2B10888   0.903  16.570   7.275 -0.1022 -0.2636  0.0384
  784POPS   C3B10889   0.957  16.874   7.635 -0.2751  0.2445  0.0251
  784POPS   C4B10890   0.579  17.183   7.839 -0.0620  0.1844  0.0834
  785POPS   CNO10891   9.851   5.369   5.767 -0.0660 -0.0956 -0.0333
  785POPS   PO410892   9.714   5.371   6.113 -0.0581  0.2932  0.0697
  785POPS   GL110893   9.414   5.359   6.449 -0.3119  0.1021 -0.1032
  785POPS   GL210894   9.192   5.225   6.754 -0.0403  0.0651  0.0822
  785POPS   C1A10895   9.316   5.716   6.687  0.1705  0.0944  0.1514
  785POPS   D2A10896   9.231   5.925   7.119 -0.0507  0.0813  0.0587
  785POPS   C3A10897   8.918   5.853   7.456  0.0348  0.0152 -0.0079
  785POPS   C4A10898   8.695   5.994   7.782 -0.2136  0.1563 -0.2737
  785POPS   C1B10899   8.925   5.009   6.990  0.0050 -0.3144 -0.2375
  785POPS   C2B10900   8.589   4.935   7.245  0.0928  0.1169  0.2520
  785POPS   C3B10901   8.418   4.986   7.604 -0.1177 -0.2381 -0.0507
  785POPS   C4B10902   8.406   5.035   8.017 -0.1938  0.1693 -0.1558
  786POPS   CNO10903   5.123   1.124   6.135  0.0038 -0.1095  0.2991
  786POPS   PO410904   4.797   1.204   5.913 -0.3187  0.2514 -0.2824
  786POPS   GL110905   4.637   1.145   6.377  0.0260  0.0044  0.0070
  786POPS   GL210906   4.484   0.909   6.608  0.1838  0.2854 -0.3242
  786POPS   C1A10907   4.801   1.407   6.750 -0.0440 -0.4751 -0.2612
  786POPS   D2A10908   4.702   1.054   7.066 -0.0445 -0.3201  0.0926
  786POPS   C3A10909   4.643   1.254   7.496  0.2329 -0.2194 -0.2283
  786POPS   C4A10910   4.796   1.587   7.773 -0.0177 -0.0513  0.0074
  786POPS   C1B10911   4.427   0.581   6.971  0.0294 -0.0993  0.2209
  786POPS   C2B10912   4.644   0.318   7.292 -0.1709  0.2418 -0.2668
  786POPS   C3B10913   4.947  -0.027   7.362  0.2667  0.6054 -0.4581
  786POPS   C4B10914   5.457   0.017   7.329  0.1854  0.1888 -0.2019
  787POPS   CNO10915  16.220  16.961   6.051 -0.2896 -0.0360  0.0378
  787POPS   PO410916  16.024  16.666   5.750  0.2332 -0.0063  0.1498
  787POPS   GL110917  16.026  16.546   6.218  0.0220 -0.0274 -0.2383
  787POPS   GL210918  15.923  16.706   6.508 -0.1245  0.4115  0.3601
  787POPS   C1A10919  16.167  16.225   6.565  0.0404  0.1102  0.4528
  787POPS   D2A10920  16.007  15.807   6.863  0.1466  0.1153 -0.2367
  787POPS   C3A10921  16.054  15.918   7.279  0.2349  0.2347 -0.3101
  787POPS   C4A10922  16.211  15.864   7.656  0.0192  0.1100 -0.1322
  787POPS   C1B10923  15.857  16.831   6.881  0.0005 -0.0102 -0.0602
  787POPS   C2B10924  15.913  17.206   7.092  0.2209 -0.0728 -0.0657
  787POPS   C3B10925  16.072  17.162   7.598 -0.0299  0.1898 -0.0163
  787POPS   C4B10926  15.598  17.042   7.819 -0.3415  0.1279 -0.0876
  788POPS   CNO10927  15.119   2.174   5.012  0.0199  0.3792  0.2054
  788POPS   PO410928  14.947   1.915   5.303  0.0490  0.0965 -0.0351
  788POPS   GL110929  15.003   2.038   5.791 -0.3347  0.0334 -0.2704
  788POPS   GL210930  15.148   2.334   5.958  0.1711  0.0049  0.3940
  788POPS   C1A10931  15.073   1.807   6.143 -0.2060 -0.1647  0.0558
  788POPS   D2A10932  15.437   1.708   6.357  0.3188 -0.2011 -0.3328
  788POPS   C3A10933  15.446   1.721   6.765 -0.3318 -0.0528  0.2611
  788POPS   C4A10934  15.757   1.612   7.067 -0.0803 -0.2911 -0.1304
  788POPS   C1B10935  15.354   2.231   6.309  0.2463 -0.3433 -0.0635
  788POPS   C2B10936  15.402   2.323   6.802  0.1206  0.1508 -0.0690
  788POPS   C3B10937  15.572   2.097   7.093  0.0612 -0.4051 -0.3290
  788POPS   C4B10938  15.551   2.189   7.554 -0.2105  0.1025 -0.1088
  789POPS   CNO10939  13.175   2.482   5.373 -0.4491 -0.0333 -0.0998
  789POPS   PO410940  13.293   2.578   5.818  0.1006 -0.0797 -0.3679
  789POPS   GL110941  13.150   2.757   6.273  0.2804 -0.3038  0.3436
  789POPS   GL210942  12.862   2.847   6.467 -0.0345  0.0761  0.1783
  789POPS   C1A10943  13.295   2.900   6.651 -0.0743 -0.0478  0.2228
  789POPS   D2A10944  13.281   2.909   6.981  0.1489 -0.2468  0.0573
  789POPS   C3A10945  13.432   2.739   7.311  0.0579 -0.2228 -0.2646
  789POPS   C4A10946  13.641   2.468   7.623  0.1614 -0.0988  0.0232
  789POPS   C1B10947  12.756   2.752   6.895  0.0150 -0.2691 -0.2461
  789POPS   C2B10948  12.935   2.591   7.304 -0.0534 -0.1243 -0.1418
  789POPS   C3B10949  13.031   2.671   7.712  0.1725  0.2411 -0.2473
  789POPS   C4B10950  13.409   2.649   8.004  0.1038  0.1730 -0.0516
  790POPS   CNO10951   4.187   0.479   5.549  0.4945 -0.1043  0.1047
  790POPS   PO410952   4.049   0.213   5.630  0.0854  0.3576 -0.1253
  790POPS   GL110953   3.928   0.414   5.976 -0.1305  0.2274  0.1262
  790POPS   GL210954   3.921   0.714   5.877  0.0153  0.3899  0.0145
  790POPS   C1A10955   3.532   0.521   6.118 -0.2713 -0.2505  0.1314
  790POPS   D2A10956   3.238   0.532   6.461  0.0049  0.1110 -0.1767
  790POPS   C3A10957   3.051   0.845   6.633 -0.3487 -0.0345 -0.0255
  790POPS   C4A10958   2.678   0.990   6.627 -0.0241 -0.0683 -0.1165
  790POPS   C1B10959   4.085   1.052   6.296 -0.0650  0.0740 -0.0776
  790POPS   C2B10960   4.009   1.099   6.709 -0.1351  0.2511 -0.1608
  790POPS   C3B10961   4.185   1.049   7.123 -0.0200  0.0486  0.1524
  790POPS   C4B10962   4.001   1.125   7.583  0.0033 -0.3232  0.2250
  791POPS   CNO10963   7.985  11.351   5.022 -0.2485  0.3594 -0.1262
  791POPS   PO410964   7.776  11.253   5.447  0.1495 -0.0943 -0.0049
  791POPS   GL110965   7.721  11.097   5.908  0.0759  0.4317  0.0444
  791POPS   GL210966   7.751  11.362   6.138 -0.0400  0.1304  0.1912
  791POPS   C1A10967   7.975  10.908   6.137  0.1061 -0.0593  0.0842
  791POPS   D2A10968   8.220  10.829   6.611  0.1571  0.0907  0.0152
  791POPS   C3A10969   8.213  10.463   6.959 -0.0403 -0.0241 -0.0444
  791POPS   C4A10970   8.045  10.321   7.493  0.1507  0.1036  0.4897
  791POPS   C1B10971   8.107  11.431   6.468  0.0032 -0.1719  0.2273
  791POPS   C2B10972   8.149  11.401   6.853  0.3363  0.0745  0.3199
  791POPS   C3B10973   8.262  11.368   7.298  0.2058 -0.1112  0.5654
  791POPS   C4B10974   8.000  11.536   7.645 -0.3425  0.0564 -0.0815
  792POPS   CNO10975  15.708  12.345   5.172 -0.2597  0.0069  0.0986
  792POPS   PO410976  15.589  12.818   5.383  0.2207 -0.0570  0.1430
  792POPS   GL110977  15.772  12.860   5.760 -0.1431 -0.0684  0.3070
  792POPS   GL210978  15.972  12.686   5.900 -0.2402 -0.0717  0.0760
  792POPS   C1A10979  15.757  13.049   6.223 -0.0156 -0.0036 -0.0484
  792POPS   D2A10980  15.991  13.216   6.565 -0.1327 -0.2263  0.2366
  792POPS   C3A10981  16.339  13.271   6.855 -0.1828  0.1711  0.0003
  792POPS   C4A10982  16.638  13.560   6.887  0.1539 -0.0686 -0.1612
  792POPS   C1B10983  16.220  12.635   6.232 -0.0428  0.6543 -0.1073
  792POPS   C2B10984  16.491  12.616   6.576  0.1191  0.3691 -0.0854
  792POPS   C3B10985  16.470  12.772   6.895  0.1404 -0.0205 -0.2434
  792POPS   C4B10986  16.639  13.076   7.289 -0.0611  0.1416  0.3503
  793POPS   CNO10987  12.802   3.209   6.099  0.0428  0.2190  0.1272
  793POPS   PO410988  12.439   3.527   5.988  0.1551  0.1309 -0.2476
  793POPS   GL110989  12.529   3.453   6.462  0.0527 -0.2225 -0.3319
  793POPS   GL210990  12.718   3.247   6.699  0.3986 -0.1035  0.1718
  793POPS   C1A10991  12.451   3.650   6.879 -0.1375  0.2795  0.0566
  793POPS   D2A10992  12.357   3.442   7.184  0.0108  0.1834  0.2466
  793POPS   C3A10993  12.473   3.708   7.573 -0.1786 -0.2416 -0.0257
  793POPS   C4A10994  12.662   3.571   7.932 -0.1931 -0.0574  0.1670
  793POPS   C1B10995  12.872   3.280   7.097 -0.1252  0.0099  0.0252
  793POPS   C2B10996  13.016   3.105   7.383 -0.1997  0.2476  0.1764
  793POPS   C3B10997  13.417   3.202   7.432  0.2235 -0.0846  0.0309
  793POPS   C4B10998  13.750   3.348   7.503 -0.0592 -0.2840  0.2554
  794POPS   CNO10999  14.558   3.923   5.542  0.0784  0.2497  0.1310
  794POPS   PO411000  14.237   3.732   5.940 -0.2087 -0.1770  0.1074
  794POPS   GL111001  14.324   3.758   6.391 -0.3087 -0.0404 -0.0926
  794POPS   GL211002  14.170   3.606   6.603 -0.0937 -0.0078  0.4774
  794POPS   C1A11003  14.296   4.041   6.835 -0.1656 -0.0336 -0.0105
  794POPS   D2A11004  14.407   4.178   7.280  0.0258 -0.0873 -0.2421
  794POPS   C3A11005  14.173   4.102   7.604  0.0498 -0.0514 -0.1605
  794POPS   C4A11006  13.809   3.849   7.733  0.0986 -0.2972  0.2975
  794POPS   C1B11007  13.943   3.395   6.912  0.1617  0.4202 -0.0416
  794POPS   C2B11008  13.742   3.088   7.057  0.3366 -0.0900 -0.0438
  794POPS   C3B11009  13.895   2.903   7.480  0.2141  0.0715  0.0542
  794POPS   C4B11010  13.743   2.976   7.813  0.2321  0.0351 -0.1502
  795POPS   CNO11011   3.170   4.991   5.776 -0.0189 -0.1636 -0.1634
  795POPS   PO411012   2.829   4.694   5.542  0.0288 -0.0864  0.3029
  795POPS   GL111013   2.923   4.612   5.942  0.0262 -0.0640  0.1884
  795POPS   GL211014   2.846   4.937   6.137  0.1578 -0.2553 -0.3950
  795POPS   C1A11015   2.751   4.514   6.285 -0.0631  0.0209  0.3801
  795POPS   D2A11016   2.664   4.414   6.705 -0.0579 -0.0419 -0.0542
  795POPS   C3A11017   2.664   3.996   6.917  0.0554 -0.0900  0.4077
  795POPS   C4A11018   2.883   3.770   7.213 -0.0702  0.0495 -0.0783
  795POPS   C1B11019   2.846   5.021   6.537 -0.1045 -0.2261  0.0694
  795POPS   C2B11020   2.801   5.122   6.892 -0.0521 -0.2192 -0.0271
  795POPS   C3B11021   3.087   5.078   7.234  0.2142 -0.0657  0.0495
  795POPS   C4B11022   3.347   5.043   7.628 -0.3787 -0.2221  0.0690
  796POPS   CNO11023  14.934  13.939   5.406  0.1594 -0.1240 -0.0869
  796POPS   PO411024  14.867  13.894   5.878 -0.0404 -0.0528  0.0697
  796POPS   GL111025  15.116  14.154   6.197 -0.0946 -0.0722  0.0944
  796POPS   GL211026  15.031  14.370   6.128  0.0872  0.0760  0.3547
  796POPS   C1A11027  15.304  14.062   6.530 -0.0774  0.1401  0.0125
  796POPS   D2A11028  15.308  13.863   6.873 -0.1080  0.1236  0.1853
  796POPS   C3A11029  15.244  13.493   6.988  0.0114  0.0387 -0.1128
  796POPS   C4A11030  14.992  13.233   6.855  0.1193 -0.0168  0.0949
  796POPS   C1B11031  15.138  14.535   6.457 -0.2088 -0.1156  0.0946
  796POPS   C2B11032  15.107  14.435   6.857  0.0132 -0.2631  0.2651
  796POPS   C3B11033  14.919  14.317   7.243 -0.0610  0.0322  0.0711
  796POPS   C4B11034  14.916  14.081   7.626 -0.3886 -0.1565 -0.0350
  797POPS   CNO11035   2.353  11.211   5.417  0.1919 -0.1975 -0.0897
  797POPS   PO411036   2.687  11.389   5.176 -0.1918  0.0072  0.0616
  797POPS   GL111037   2.707  11.523   5.648  0.0630  0.0933 -0.2872
  797POPS   GL211038   2.397  11.704   5.708 -0.0045  0.0714  0.1260
  797POPS   C1A11039   3.105  11.551   5.979  0.2554  0.2677 -0.1585
  797POPS   D2A11040   3.425  11.330   6.156 -0.1552 -0.1785 -0.2671
  797POPS   C3A11041   3.696  11.667   6.125  0.0685  0.0328  0.3103
  797POPS   C4A11042   4.052  11.744   5.955  0.1027 -0.0372  0.2551
  797POPS   C1B11043   2.055  11.649   6.019  0.0322  0.0797 -0.0777
  797POPS   C2B11044   1.931  12.004   6.353  0.0919 -0.2110 -0.0129
  797POPS   C3B11045   2.054  12.290   6.635  0.0575  0.2141  0.0156
  797POPS   C4B11046   1.864  12.568   6.532  0.0023  0.1427  0.2384
  798POPS   CNO11047  16.197   2.291   5.751  0.0784  0.3342  0.1988
  798POPS   PO411048  16.034   1.877   5.840  0.1288  0.3255 -0.1080
  798POPS   GL111049  16.220   2.054   6.225  0.1063  0.1625 -0.0875
  798POPS   GL211050  16.369   1.751   6.297 -0.1898  0.0588  0.2254
  798POPS   C1A11051  16.272   2.100   6.645 -0.0339 -0.2496 -0.0474
  798POPS   D2A11052  16.049   2.291   6.943  0.0291  0.1582 -0.2600
  798POPS   C3A11053  15.736   2.564   7.104  0.0120  0.0453 -0.0458
  798POPS   C4A11054  15.653   2.680   7.535 -0.0304 -0.1695  0.2447
  798POPS   C1B11055  16.569   1.584   6.662  0.1825  0.1305  0.1104
  798POPS   C2B11056  16.440   1.757   7.027 -0.1781  0.0372  0.0548
  798POPS   C3B11057  16.037   1.859   7.353  0.2377 -0.1333  0.0541
  798POPS   C4B11058  15.727   1.653   7.663 -0.2468  0.1501 -0.2035
  799POPS   CNO11059   2.722   4.432   5.112 -0.2991 -0.2504 -0.2104
  799POPS   PO411060   2.554   4.160   5.150  0.2860  0.0080  0.0195
  799POPS   GL111061   2.308   4.251   5.454 -0.1345 -0.0933 -0.1186
  799POPS   GL211062   2.580   4.280   5.621 -0.0305  0.0444 -0.0687
  799POPS   C1A11063   2.092   4.343   5.910  0.3538  0.0117  0.1749
  799POPS   D2A11064   1.925   4.470   6.171  0.1158 -0.1222 -0.1078
  799POPS   C3A11065   1.636   4.368   6.358  0.0412 -0.1284  0.2037
  799POPS   C4A11066   1.456   4.369   6.715  0.0363 -0.2002  0.3846
  799POPS   C1B11067   2.498   4.141   5.988 -0.2570  0.3323  0.1225
  799POPS   C2B11068   2.342   4.217   6.327 -0.1932 -0.2749 -0.0444
  799POPS   C3B11069   2.140   4.383   6.650 -0.2200  0.0805  0.0415
  799POPS   C4B11070   2.271   4.253   7.111  0.1843 -0.0322 -0.1425
  800POPS   CNO11071  17.093   9.828   5.115  0.3134 -0.1646 -0.0449
  800POPS   PO411072  16.751   9.455   5.242  0.1618 -0.1443  0.0352
  800POPS   GL111073  16.877   9.614   5.697 -0.0682 -0.3476 -0.0835
  800POPS   GL211074  16.737   9.585   5.912  0.3608 -0.1017 -0.2270
  800POPS   C1A11075  17.199   9.785   5.884 -0.0592  0.2167 -0.1848
  800POPS   D2A11076  17.301   9.841   6.394 -0.1885  0.1511 -0.1658
  800POPS   C3A11077  17.600   9.589   6.659 -0.3096 -0.2450  0.0796
  800POPS   C4A11078  17.592   9.486   7.075  0.1472 -0.2725 -0.3287
  800POPS   C1B11079  16.645   9.451   6.286  0.2006 -0.0097 -0.0981
  800POPS   C2B11080  16.592   9.306   6.724  0.2028  0.3511  0.2748
  800POPS   C3B11081  16.672   8.854   6.988 -0.0037 -0.2941  0.0633
  800POPS   C4B11082  16.786   8.383   6.967  0.0361  0.1184 -0.0430
  801POPS   CNO11083  10.828   1.163   6.593  0.0587  0.0095 -0.2156
  801POPS   PO411084  10.765   0.836   6.237  0.2862 -0.1775 -0.1377
  801POPS   GL111085  10.702   0.714   6.737 -0.0952  0.1745 -0.0140
  801POPS   GL211086  10.504   0.915   6.907  0.1524  0.0801 -0.1496
  801POPS   C1A11087  10.660   0.589   7.232 -0.2444  0.1589  0.1123
  801POPS   D2A11088  10.474   0.344   7.507  0.4484  0.3744  0.1212
  801POPS   C3A11089  10.134   0.202   7.377  0.0248 -0.2216  0.0599
  801POPS   C4A11090  10.068   0.056   7.091 -0.2643  0.3733  0.0180
  801POPS   C1B11091  10.555   1.100   7.233 -0.0173  0.0039 -0.0365
  801POPS   C2B11092  10.393   0.803   7.586 -0.0999 -0.0366  0.0521
  801POPS   C3B11093  10.475   0.928   8.060  0.1084 -0.0410 -0.1886
  801POPS   C4B11094  10.547   0.649   8.499 -0.0116  0.1094  0.2565
  802POPS   CNO11095   1.368  15.059   5.501  0.0729 -0.1612  0.2998
  802POPS   PO411096   1.620  15.192   5.886  0.2645 -0.2789 -0.0108
  802POPS   GL111097   1.393  15.298   6.286 -0.0201 -0.1803  0.0158
  802POPS   GL211098   1.021  15.478   6.288  0.1114 -0.0292 -0.2286
  802POPS   C1A11099   1.559  15.102   6.625 -0.0004  0.0430 -0.0889
  802POPS   D2A11100   1.329  14.757   6.777  0.0719 -0.1224 -0.1876
  802POPS   C3A11101   1.177  14.883   7.134  0.0604  0.0312 -0.1209
  802POPS   C4A11102   1.456  15.105   7.458 -0.0119 -0.2236  0.1730
  802POPS   C1B11103   1.051  15.235   6.697  0.2069 -0.1213  0.0901
  802POPS   C2B11104   1.247  15.355   7.048 -0.0746 -0.4034  0.0991
  802POPS   C3B11105   1.169  15.487   7.443 -0.1257  0.0390 -0.1766
  802POPS   C4B11106   1.299  15.883   7.656  0.0515 -0.0140 -0.3179
  803POPS   CNO11107  10.058  10.427   5.372 -0.0044  0.2538 -0.0531
  803POPS   PO411108  10.209  10.225   5.754 -0.0522  0.2003 -0.0184
  803POPS   GL111109  10.086   9.920   6.152 -0.0302  0.3549  0.0348
  803POPS   GL211110  10.227   9.898   6.346 -0.0527  0.0622 -0.1043
  803POPS   C1A11111   9.703   9.740   6.482  0.2746 -0.0253  0.0053
  803POPS   D2A11112   9.486   9.524   6.742  0.1531 -0.1764  0.1796
  803POPS   C3A11113   9.533   9.469   7.094  0.1671 -0.1400 -0.0791
  803POPS   C4A11114   9.371   9.567   7.471 -0.1338 -0.1286 -0.3585
  803POPS   C1B11115  10.093   9.595   6.703  0.1978  0.0865 -0.3375
  803POPS   C2B11116  10.085   9.700   7.140  0.0587  0.2540 -0.1087
  803POPS   C3B11117  10.089   9.988   7.544  0.2305 -0.0578 -0.1917
  803POPS   C4B11118   9.755  10.230   7.896 -0.5551 -0.2242  0.0951
  804POPS   CNO11119  12.472   8.770   5.503 -0.0308 -0.2420 -0.1724
  804POPS   PO411120  12.218   9.169   5.682  0.1254 -0.0758  0.1134
  804POPS   GL111121  12.302   9.294   6.108 -0.1782  0.1583 -0.0712
  804POPS   GL211122  12.078   9.135   6.209 -0.1624 -0.0996 -0.2642
  804POPS   C1A11123  12.539   9.328   6.552 -0.1335 -0.0342 -0.2411
  804POPS   D2A11124  12.658   9.664   6.871 -0.2656  0.4673  0.1792
  804POPS   C3A11125  12.723   9.502   7.307 -0.1195  0.1557 -0.1159
  804POPS   C4A11126  12.925   9.319   7.697  0.0637  0.0011 -0.1261
  804POPS   C1B11127  12.029   9.325   6.598  0.0495 -0.1660  0.0464
  804POPS   C2B11128  12.228   9.402   6.986  0.1826  0.2971 -0.0403
  804POPS   C3B11129  12.262   9.596   7.386  0.0638 -0.2012 -0.0040
  804POPS   C4B11130  12.363   9.587   7.785  0.3118  0.1922 -0.0132
  805POPS   CNO11131   3.140   3.015   4.972  0.3820 -0.3252 -0.2469
  805POPS   PO411132   3.252   3.073   5.306  0.1951 -0.0509  0.0113
  805POPS   GL111133   3.303   3.097   5.760  0.0815  0.0472 -0.1418
  805POPS   GL211134   3.011   3.223   5.798 -0.2281 -0.2907 -0.0307
  805POPS   C1A11135   3.357   3.065   6.161 -0.1743  0.0929  0.1252
  805POPS   D2A11136   3.225   3.145   6.561 -0.1342  0.2935  0.0894
  805POPS   C3A11137   3.032   2.959   6.790  0.1298 -0.3951  0.0910
  805POPS   C4A11138   2.996   2.763   7.127  0.1659 -0.0577 -0.1577
  805POPS   C1B11139   2.825   3.112   6.216 -0.2227  0.0314 -0.0792
  805POPS   C2B11140   2.557   3.280   6.593  0.3207  0.0190 -0.3463
  805POPS   C3B11141   2.409   3.493   6.950  0.5709 -0.1972 -0.2502
  805POPS   C4B11142   2.423   3.751   7.384  0.0362  0.2395  0.1786
  806POPS   CNO11143  10.292   2.763   6.348  0.3580  0.2322  0.0302
  806POPS   PO411144  10.128   3.196   6.324 -0.1954  0.2549  0.1326
  806POPS   GL111145  10.369   3.210   6.665 -0.0475 -0.2300 -0.1127
  806POPS   GL211146  10.357   2.973   6.756  0.0578 -0.1826  0.1026
  806POPS   C1A11147  10.703   3.460   6.807 -0.2471  0.2889 -0.0308
  806POPS   D2A11148  10.814   3.737   7.016  0.0550 -0.0164 -0.0142
  806POPS   C3A11149  10.877   3.745   7.522 -0.0665 -0.0032 -0.1045
  806POPS   C4A11150  10.702   3.759   7.943  0.0881  0.0702  0.1470
  806POPS   C1B11151  10.143   2.948   7.137  0.1381 -0.3354 -0.2047
  806POPS   C2B11152   9.933   2.904   7.524 -0.2051  0.1753 -0.1716
  806POPS   C3B11153   9.700   3.030   7.944 -0.0250  0.1845  0.0123
  806POPS   C4B11154   9.503   3.062   8.369  0.0371  0.0962 -0.2052
  807POPS   CNO11155   6.768   6.823   5.377  0.0470 -0.0304  0.0624
  807POPS   PO411156   6.367   7.030   5.536  0.2385 -0.1723  0.1924
  807POPS   GL111157   6.121   6.920   5.945 -0.0613 -0.0887  0.1101
  807POPS   GL211158   5.800   6.821   6.068 -0.0398  0.1935 -0.1293
  807POPS   C1A11159   6.066   6.959   6.473 -0.3337 -0.0847 -0.0778
  807POPS   D2A11160   6.088   7.153   6.911  0.1408  0.2439 -0.3150
  807POPS   C3A11161   6.047   7.032   7.331  0.1560 -0.3324 -0.4325
  807POPS   C4A11162   5.938   6.942   7.648 -0.4197  0.0217 -0.0992
  807POPS   C1B11163   5.527   7.008   6.356 -0.0736 -0.1969  0.2980
  807POPS   C2B11164   5.529   6.987   6.846  0.0366 -0.1428  0.0441
  807POPS   C3B11165   5.494   6.903   7.286 -0.0557 -0.2810  0.2541
  807POPS   C4B11166   5.253   6.995   7.620  0.1677  0.1794  0.2207
  808POPS   CNO11167   8.030   7.136   5.796  0.0136 -0.0645 -0.2412
  808POPS   PO411168   7.793   7.323   5.986  0.1864  0.1580  0.1609
  808POPS   GL111169   7.637   7.313   6.354 -0.1635 -0.3211  0.2745
  808POPS   GL211170   7.603   6.980   6.433  0.2771 -0.1952  0.0070
  808POPS   C1A11171   7.507   7.320   6.760 -0.0235  0.1859 -0.1340
  808POPS   D2A11172   7.509   7.118   7.217  0.3079  0.0166 -0.2003
  808POPS   C3A11173   7.259   7.278   7.545  0.1140  0.1936 -0.0066
  808POPS   C4A11174   7.267   7.532   7.977  0.3468 -0.3635  0.0193
  808POPS   C1B11175   7.322   6.856   6.772 -0.0486  0.2879  0.0278
  808POPS   C2B11176   7.434   6.573   7.111 -0.1691 -0.2938 -0.4240
  808POPS   C3B11177   7.799   6.313   7.079 -0.2037 -0.0089 -0.0829
  808POPS   C4B11178   7.905   6.083   6.840  0.2133 -0.1377  0.1179
  809POPS   CNO11179   6.977  10.910   5.285  0.1196 -0.1213  0.0360
  809POPS   PO411180   6.980  11.168   5.570  0.2196  0.1535 -0.0045
  809POPS   GL111181   7.316  11.364   5.720 -0.0084  0.0370 -0.0268
  809POPS   GL211182   7.525  11.679   5.770  0.1926 -0.0940 -0.3017
  809POPS   C1A11183   7.268  11.382   6.121  0.2111  0.3689 -0.0619
  809POPS   D2A11184   7.322  11.257   6.535 -0.0792 -0.0299  0.3615
  809POPS   C3A11185   7.169  11.460   6.871 -0.0395  0.3538 -0.1293
  809POPS   C4A11186   7.329  11.503   7.406 -0.1163  0.0469 -0.0927
  809POPS   C1B11187   7.323  11.925   6.098  0.0393  0.4626  0.3208
  809POPS   C2B11188   7.112  11.746   6.434 -0.0467 -0.2635  0.0405
  809POPS   C3B11189   7.123  11.954   6.781  0.1064  0.1869  0.1895
  809POPS   C4B11190   7.160  12.298   7.128  0.2207  0.5354  0.2295
  810POPS   CNO11191   4.148   5.227   5.717  0.4792 -0.0385 -0.0512
  810POPS   PO411192   4.077   4.693   5.608 -0.2909  0.1882  0.0808
  810POPS   GL111193   4.127   4.637   6.055 -0.4585  0.0534 -0.1764
  810POPS   GL211194   3.946   4.223   6.057 -0.0913 -0.0773  0.1892
  810POPS   C1A11195   3.745   4.617   6.323 -0.0417  0.2760 -0.2216
  810POPS   D2A11196   3.929   4.749   6.644 -0.0280 -0.1651  0.2290
  810POPS   C3A11197   3.905   5.168   6.716  0.1088  0.1831  0.1968
  810POPS   C4A11198   4.010   5.426   7.018 -0.3024 -0.0735 -0.1276
  810POPS   C1B11199   3.936   3.825   6.246 -0.3980  0.1039 -0.0014
  810POPS   C2B11200   3.929   3.679   6.690  0.0327 -0.0072 -0.0269
  810POPS   C3B11201   3.698   3.740   7.083  0.1888  0.1341  0.3418
  810POPS   C4B11202   3.340   3.907   7.414  0.0823  0.1439  0.2223
  811POPS   CNO11203  16.666  11.132   5.080  0.5300  0.1120  0.0982
  811POPS   PO411204  16.796  11.014   5.531  0.1500 -0.1884  0.2974
  811POPS   GL111205  16.770  10.932   5.966 -0.0564  0.3784 -0.0323
  811POPS   GL211206  17.082  11.036   5.947  0.0085  0.4865 -0.2007
  811POPS   C1A11207  16.579  10.774   6.251  0.2109  0.0424  0.1811
  811POPS   D2A11208  16.638  10.444   6.448  0.1558 -0.0731  0.0968
  811POPS   C3A11209  16.832  10.402   6.796  0.4063  0.1336 -0.0125
  811POPS   C4A11210  17.100  10.563   7.152  0.2523  0.1038 -0.0260
  811POPS   C1B11211  17.284  10.967   6.308 -0.1907 -0.2228 -0.1444
  811POPS   C2B11212  17.580  11.179   6.554  0.1623 -0.1208  0.0644
  811POPS   C3B11213  17.784  11.581   6.516 -0.1303  0.2076  0.2794
  811POPS   C4B11214  17.635  11.936   6.716  0.3704  0.1155 -0.1314
  812YOPS   CNO11215  10.604   6.418   6.090 -0.1511  0.3395  0.2121
  812YOPS   PO411216  10.546   6.864   6.103 -0.0635 -0.1872 -0.0198
  812YOPS   GL111217  10.602   6.792   6.505 -0.0597  0.1808  0.0170
  812YOPS   GL211218  10.560   7.004   6.706 -0.0067  0.0826  0.1087
  812YOPS   C1A11219  11.000   6.667   6.897 -0.2114  0.4231  0.1364
  812YOPS   D2A11220  11.177   6.764   7.288  0.3287 -0.1742 -0.2195
  812YOPS   C3A11221  11.201   6.662   7.705  0.0058 -0.0319 -0.1869
  812YOPS   C4A11222  11.419   6.414   7.943 -0.3272 -0.4423 -0.2544
  812YOPS   C1B11223  10.427   7.403   7.022  0.2566  0.1342  0.0189
  812YOPS   C2B11224  10.378   7.247   7.491  0.2375  0.1552  0.4083
  812YOPS   D3B11225  10.263   7.033   7.757  0.1029  0.1054 -0.2810
  812YOPS   C4B11226  10.202   6.624   7.948 -0.0133 -0.0145 -0.2830
  813YOPS   CNO11227   0.067  14.564   5.563 -0.2294  0.1213 -0.1002
  813YOPS   PO411228   0.510  14.429   5.413 -0.0294  0.0502  0.2169
  813YOPS   GL111229   0.719  14.433   5.678 -0.2134  0.2362 -0.1248
  813YOPS   GL211230   0.559  14.128   5.810 -0.0851  0.0924  0.1596
  813YOPS   C1A11231   0.597  14.484   6.162 -0.1001 -0.1753 -0.0481
  813YOPS   D2A11232   0.676  14.263   6.576  0.1900 -0.1429 -0.0359
  813YOPS   C3A11233   0.703  14.165   6.951 -0.0611  0.0452 -0.0263
  813YOPS   C4A11234   0.795  13.725   6.974  0.1447 -0.0845 -0.1076
  813YOPS   C1B11235   0.143  14.127   5.894 -0.2753  0.4070 -0.2314
  813YOPS   C2B11236   0.063  14.218   6.399 -0.1973  0.3294  0.0485
  813YOPS   D3B11237  -0.172  14.476   6.659  0.2278 -0.2480 -0.1892
  813YOPS   C4B11238  -0.234  14.473   7.030  0.1497 -0.1059 -0.1523
  814YOPS   CNO11239  14.267  11.349   5.934  0.1536  0.0030  0.1979
  814YOPS   PO411240  14.588  11.437   6.040 -0.0796 -0.1938  0.0944
  814YOPS   GL111241  14.649  11.546   6.433  0.2684 -0.3085 -0.1941
  814YOPS   GL211242  14.859  11.318   6.480  0.1255  0.2196 -0.1928
  814YOPS   C1A11243  14.696  11.805   6.744 -0.0032  0.3560  0.0751
  814YOPS   D2A11244  14.707  11.801   7.142 -0.1210 -0.3528  0.1319
  814YOPS   C3A11245  14.671  11.611   7.528 -0.2951 -0.5631 -0.2370
  814YOPS   C4A11246  14.652  11.230   7.621  0.4236 -0.2082 -0.3085
  814YOPS   C1B11247  14.965  11.451   6.916 -0.2531  0.2463  0.2701
  814YOPS   C2B11248  15.126  11.468   7.289 -0.3050 -0.0145 -0.1347
  814YOPS   D3B11249  15.177  11.609   7.723 -0.1539  0.1426 -0.3340
  814YOPS   C4B11250  15.198  11.259   8.006 -0.2772 -0.2107 -0.1287
  815YOPS   CNO11251  12.021  17.398   5.930  0.2071 -0.0107  0.2547
  815YOPS   PO411252  12.408  17.108   5.920  0.0963 -0.2009 -0.0238
  815YOPS   GL111253  12.366  17.113   6.337 -0.1142  0.2356 -0.0515
  815YOPS   GL211254  12.380  16.783   6.510  0.3713 -0.2056 -0.3755
  815YOPS   C1A11255  12.452  17.165   6.801 -0.0364 -0.2232  0.0100
  815YOPS   D2A11256  12.639  17.174   7.205  0.1471 -0.2137 -0.3216
  815YOPS   C3A11257  12.651  17.252   7.649  0.0081 -0.1690  0.5122
  815YOPS   C4A11258  12.328  17.460   7.841  0.1838 -0.1906  0.1561
  815YOPS   C1B11259  12.093  16.472   6.754  0.2201 -0.2211 -0.0191
  815YOPS   C2B11260  12.127  16.010   6.829  0.2424  0.1020  0.0443
  815YOPS   D3B11261  12.401  15.565   6.848  0.4499  0.0400  0.1438
  815YOPS   C4B11262  12.725  15.602   7.174 -0.2047 -0.1738  0.2234
  816YOPS   CNO11263   7.263  12.696   5.631 -0.2886 -0.0688  0.0495
  816YOPS   PO411264   7.157  13.055   5.489  0.1265 -0.1276 -0.3380
  816YOPS   GL111265   6.856  13.190   5.921 -0.3045 -0.4370  0.0251
  816YOPS   GL211266   6.493  13.002   5.950  0.0370  0.1463  0.1582
  816YOPS   C1A11267   6.781  13.195   6.339  0.0224 -0.1072 -0.0395
  816YOPS   D2A11268   6.840  13.207   6.809  0.0072  0.1315 -0.0864
  816YOPS   C3A11269   6.934  13.300   7.267 -0.3019  0.0296  0.1449
  816YOPS   C4A11270   7.024  13.003   7.615  0.0074  0.1763  0.0721
  816YOPS   C1B11271   6.255  13.096   6.302  0.0338 -0.1033  0.0537
  816YOPS   C2B11272   6.341  13.038   6.754 -0.1291  0.0401 -0.1763
  816YOPS   D3B11273   6.429  13.065   7.153 -0.0781 -0.3108  0.4232
  816YOPS   C4B11274   6.096  12.863   7.213 -0.2338 -0.0358  0.1684
  817YOPS   CNO11275   1.423   5.672   4.796  0.0598  0.1913 -0.1886
  817YOPS   PO411276   1.171   5.759   5.006 -0.0768 -0.0429  0.0510
  817YOPS   GL111277   0.947   5.816   5.326 -0.0845 -0.1849  0.2384
  817YOPS   GL211278   0.862   5.525   5.406 -0.1204  0.0495  0.0804
  817YOPS   C1A11279   0.679   6.100   5.537  0.1658 -0.0731  0.0546
  817YOPS   D2A11280   0.745   6.107   5.920 -0.1222 -0.0491 -0.0431
  817YOPS   C3A11281   0.762   6.056   6.336 -0.2465  0.1077 -0.1853
  817YOPS   C4A11282   0.597   5.861   6.617 -0.0520  0.1389 -0.0698
  817YOPS   C1B11283   0.839   5.490   5.831  0.0589  0.0229 -0.0100
  817YOPS   C2B11284   0.780   5.516   6.258 -0.4750 -0.1382 -0.2351
  817YOPS   D3B11285   0.635   5.213   6.556  0.0510  0.2074 -0.0316
  817YOPS   C4B11286   0.917   5.003   6.653  0.0327 -0.0184 -0.0598
  818YOPS   CNO11287   5.426  17.169   5.869  0.0982 -0.0141 -0.0731
  818YOPS   PO411288   5.243  16.875   5.818 -0.1190  0.0320  0.1035
  818YOPS   GL111289   5.219  16.824   6.247 -0.1072  0.3920 -0.0587
  818YOPS   GL211290   5.037  16.582   6.367 -0.2761  0.2912  0.0211
  818YOPS   C1A11291   5.222  16.870   6.697 -0.0251 -0.0481 -0.1115
  818YOPS   D2A11292   5.323  16.657   7.119 -0.0027  0.2487 -0.0451
  818YOPS   C3A11293   5.276  16.514   7.551 -0.1000  0.3528  0.2739
  818YOPS   C4A11294   5.334  16.191   7.828  0.2388 -0.1309  0.2199
  818YOPS   C1B11295   5.042  16.417   6.664  0.0441  0.0355 -0.3717
  818YOPS   C2B11296   5.335  16.117   6.963  0.2110  0.1210  0.1124
  818YOPS   D3B11297   5.375  16.019   7.344 -0.5339 -0.0415 -0.0867
  818YOPS   C4B11298   5.153  15.780   7.518  0.1045 -0.0338 -0.1153
  819YOPS   CNO11299  13.091   2.983   5.628  0.1444  0.2520  0.0617
  819YOPS   PO411300  13.282   3.148   5.992 -0.0836  0.0217  0.2547
  819YOPS   GL111301  13.645   3.111   6.282  0.0283 -0.0950 -0.0074
  819YOPS   GL211302  13.720   3.385   6.431 -0.1237  0.0247 -0.4130
  819YOPS   C1A11303  13.850   2.778   6.562  0.1367 -0.2476  0.3521
  819YOPS   D2A11304  14.173   2.914   6.853  0.1907  0.1408 -0.3436
  819YOPS   C3A11305  14.309   3.157   7.147  0.2419 -0.1358 -0.0351
  819YOPS   C4A11306  14.405   2.962   7.453 -0.1174 -0.1066 -0.0105
  819YOPS   C1B11307  13.712   3.726   6.572  0.3543 -0.1541 -0.0677
  819YOPS   C2B11308  13.737   4.041   6.870  0.0176  0.1796  0.0226
  819YOPS   D3B11309  13.936   4.280   7.166 -0.4811 -0.1017  0.1795
  819YOPS   C4B11310  14.220   4.637   7.046  0.1609 -0.1013 -0.3974
  820YOPS   CNO11311  11.196   7.053   5.586  0.1494  0.1693 -0.0672
  820YOPS   PO411312  11.024   7.066   5.862  0.0996 -0.1327 -0.1525
  820YOPS   GL111313  10.927   7.082   6.236 -0.1954  0.0706 -0.1584
  820YOPS   GL211314  11.023   6.684   6.253  0.0382 -0.3868  0.0104
  820YOPS   C1A11315  11.115   7.048   6.631  0.2445  0.0806 -0.0757
  820YOPS   D2A11316  11.331   7.110   6.973  0.0477 -0.1293 -0.0106
  820YOPS   C3A11317  11.256   7.353   7.364 -0.0778 -0.2283 -0.1122
  820YOPS   C4A11318  10.837   7.472   7.483 -0.0437  0.0594  0.1306
  820YOPS   C1B11319  11.080   6.302   6.521 -0.2222 -0.0679 -0.1232
  820YOPS   C2B11320  11.083   5.888   6.708  0.1111 -0.0411  0.1180
  820YOPS   D3B11321  11.032   5.458   6.815 -0.0397  0.2582  0.0805
  820YOPS   C4B11322  11.262   5.156   6.933 -0.0793  0.3450 -0.0763
  821YOPS   CNO11323  10.377   1.348   6.740 -0.2388 -0.0319  0.0608
  821YOPS   PO411324  10.576   1.587   6.579  0.1960  0.1458 -0.0420
  821YOPS   GL111325  10.873   1.694   6.889  0.1153  0.1886  0.0083
  821YOPS   GL211326  10.893   1.367   7.044  0.0575  0.0769  0.0431
  821YOPS   C1A11327  10.980   1.802   7.279 -0.2351  0.1651  0.5433
  821YOPS   D2A11328  11.005   1.803   7.745 -0.1044  0.1451  0.0021
  821YOPS   C3A11329  11.027   1.592   8.097  0.0310  0.1795  0.0650
  821YOPS   C4A11330  11.244   1.466   8.463 -0.0270 -0.3464  0.0393
  821YOPS   C1B11331  11.221   1.397   7.318  0.0333  0.0723  0.0884
  821YOPS   C2B11332  11.391   1.370   7.769 -0.0857  0.0300 -0.2201
  821YOPS   D3B11333  11.697   1.024   7.931 -0.2838  0.0189  0.3627
  821YOPS   C4B11334  12.036   1.135   8.075  0.0852  0.0237 -0.2142
  822YOPS   CNO11335  13.338  10.531   5.287 -0.2667 -0.1393  0.1860
  822YOPS   PO411336  12.974  10.340   5.455  0.1587 -0.1870  0.4135
  822YOPS   GL111337  12.568  10.200   5.641  0.2355 -0.0797  0.0666
  822YOPS   GL211338  12.471  10.438   5.842 -0.1026 -0.1272 -0.1267
  822YOPS   C1A11339  12.603  10.069   6.031 -0.2108  0.1172 -0.0144
  822YOPS   D2A11340  12.862   9.901   6.453  0.1925 -0.0885  0.1261
  822YOPS   C3A11341  13.088   9.536   6.592  0.2131  0.1663  0.4708
  822YOPS   C4A11342  13.157   9.651   7.043  0.0832 -0.0037  0.0720
  822YOPS   C1B11343  12.337  10.323   6.338 -0.2163  0.2301 -0.0588
  822YOPS   C2B11344  12.415  10.141   6.685 -0.0896  0.0027  0.0294
  822YOPS   D3B11345  12.418   9.968   7.089 -0.1279  0.1534  0.0122
  822YOPS   C4B11346  12.776  10.027   7.209  0.0177  0.0332 -0.1413
  823YOPS   CNO11347   8.345   6.245   6.272  0.0852 -0.2197 -0.2717
  823YOPS   PO411348   7.888   6.231   6.161 -0.2475 -0.2124 -0.0623
  823YOPS   GL111349   7.800   6.515   6.430 -0.0173  0.0785  0.0889
  823YOPS   GL211350   8.052   6.633   6.532 -0.0595  0.0505  0.1645
  823YOPS   C1A11351   7.857   6.812   6.925 -0.0172 -0.2904 -0.1288
  823YOPS   D2A11352   7.860   6.727   7.373  0.1021 -0.0799 -0.2358
  823YOPS   C3A11353   7.629   6.307   7.632  0.0324 -0.2840  0.0889
  823YOPS   C4A11354   7.597   5.880   7.382 -0.5013  0.1152 -0.0452
  823YOPS   C1B11355   8.235   6.457   7.017 -0.2786 -0.1764 -0.2445
  823YOPS   C2B11356   8.157   6.372   7.515 -0.0763 -0.0323  0.5322
  823YOPS   D3B11357   8.081   6.258   7.907  0.0964 -0.2642 -0.4528
  823YOPS   C4B11358   8.366   5.924   8.161 -0.1111  0.1555 -0.0822
  824YOPS   CNO11359  18.032  12.257   5.384  0.2081 -0.2416 -0.0146
  824YOPS   PO411360  18.544  12.121   5.503  0.1058  0.0258 -0.1903
  824YOPS   GL111361  18.564  11.893   5.897 -0.3677  0.0593 -0.1249
  824YOPS   GL211362  18.896  11.889   5.876  0.1859  0.1663 -0.0340
  824YOPS   C1A11363  18.435  11.759   6.284  0.0460 -0.0488 -0.1917
  824YOPS   D2A11364  18.543  11.671   6.642 -0.0158 -0.0899 -0.1096
  824YOPS   C3A11365  18.551  11.492   7.126 -0.0974 -0.0122  0.1893
  824YOPS   C4A11366  18.682  11.751   7.341  0.0105 -0.1639 -0.1990
  824YOPS   C1B11367  18.957  11.912   6.328  0.2113  0.4314 -0.0465
  824YOPS   C2B11368  19.026  11.880   6.844  0.1372 -0.0145  0.1189
  824YOPS   D3B11369  19.272  12.148   7.218 -0.1992  0.0731 -0.0375
  824YOPS   C4B11370  19.303  12.059   7.685  0.0819 -0.0839 -0.1773
  825YOPS   CNO11371  11.609   4.470   5.891 -0.0328  0.3896 -0.0652
  825YOPS   PO411372  11.837   4.094   6.071 -0.2616  0.0740  0.1057
  825YOPS   GL111373  11.777   3.934   6.417  0.0419 -0.1446 -0.6366
  825YOPS   GL211374  12.007   3.798   6.732 -0.2080  0.0889  0.0880
  825YOPS   C1A11375  11.572   3.851   6.904 -0.0010 -0.2005  0.1317
  825YOPS   D2A11376  11.531   3.959   7.411 -0.4983  0.1506  0.0453
  825YOPS   C3A11377  11.615   4.103   7.807 -0.2529 -0.0058  0.0839
  825YOPS   C4A11378  11.851   4.415   7.900 -0.2870  0.1162 -0.1127
  825YOPS   C1B11379  12.014   3.949   7.109 -0.0007 -0.1720  0.0287
  825YOPS   C2B11380  11.991   4.026   7.513  0.1524  0.1032 -0.2840
  825YOPS   D3B11381  12.297   4.196   7.810 -0.2431 -0.0739 -0.0079
  825YOPS   C4B11382  12.489   3.925   8.240 -0.2581  0.2250 -0.0122
  826YOPS   CNO11383  13.518  16.454   5.905 -0.0685 -0.2518 -0.1190
  826YOPS   PO411384  13.645  16.625   6.242  0.0143  0.1367 -0.0297
  826YOPS   GL111385  13.677  16.694   6.679  0.3494  0.3097  0.0029
  826YOPS   GL211386  13.909  16.791   6.793 -0.0106  0.1457  0.1650
  826YOPS   C1A11387  13.293  16.614   6.970 -0.1021 -0.0529  0.0477
  826YOPS   D2A11388  13.061  16.507   7.213  0.0533 -0.0356 -0.0637
  826YOPS   C3A11389  12.682  16.244   7.375  0.1943 -0.0778  0.0332
  826YOPS   C4A11390  12.608  16.186   7.791 -0.1239  0.1338 -0.1820
  826YOPS   C1B11391  13.940  16.696   7.230 -0.0916  0.0616  0.3358
  826YOPS   C2B11392  14.070  16.366   7.413 -0.0400  0.1174  0.0051
  826YOPS   D3B11393  14.247  16.080   7.743  0.2098  0.1241  0.2179
  826YOPS   C4B11394  14.042  15.745   8.003  0.0734 -0.0334  0.2955
  827YOPS   CNO11395   6.387   0.743   5.735 -0.4051  0.0253 -0.2348
  827YOPS   PO411396   6.693   1.155   5.785 -0.0655  0.2502 -0.2565
  827YOPS   GL111397   6.509   1.124   6.155  0.2086  0.0751 -0.3736
  827YOPS   GL211398   6.390   1.431   6.407 -0.3268 -0.0628 -0.2904
  827YOPS   C1A11399   6.669   1.052   6.627  0.0881 -0.2292  0.0926
  827YOPS   D2A11400   6.636   1.313   7.000  0.2007  0.2678 -0.0659
  827YOPS   C3A11401   6.694   1.368   7.399  0.2661  0.1347  0.1074
  827YOPS   C4A11402   6.817   1.763   7.621  0.1664  0.1020 -0.2934
  827YOPS   C1B11403   6.233   1.705   6.815  0.0962  0.1409 -0.2139
  827YOPS   C2B11404   6.347   1.742   7.213 -0.2816  0.0860 -0.0362
  827YOPS   D3B11405   6.255   1.763   7.709 -0.0890  0.1814  0.4704
  827YOPS   C4B11406   6.512   1.822   8.093 -0.0540 -0.2301 -0.1320
  828YOPS   CNO11407  16.370   4.802   5.048  0.0902  0.0908  0.0060
  828YOPS   PO411408  15.973   4.872   5.249  0.0409 -0.1874  0.2300
  828YOPS   GL111409  16.236   5.055   5.525 -0.2007 -0.1368 -0.0743
  828YOPS   GL211410  16.504   4.978   5.521 -0.1193 -0.4279 -0.0952
  828YOPS   C1A11411  16.208   5.191   5.952 -0.2732  0.0107 -0.2255
  828YOPS   D2A11412  16.167   5.356   6.428 -0.1553  0.0977 -0.0687
  828YOPS   C3A11413  16.009   5.581   6.826 -0.2710 -0.1907 -0.2482
  828YOPS   C4A11414  16.192   5.501   7.231 -0.0917 -0.0581 -0.0957
  828YOPS   C1B11415  16.664   4.897   5.828  0.0551 -0.1075 -0.0257
  828YOPS   C2B11416  16.458   4.618   6.060  0.2611 -0.1240 -0.2756
  828YOPS   D3B11417  16.225   4.740   6.365  0.4960 -0.1026  0.2726
  828YOPS   C4B11418  16.112   4.476   6.755 -0.1497 -0.0046 -0.2855
  829YOPS   CNO11419  14.442   1.974   5.442  0.0947 -0.1713  0.2746
  829YOPS   PO411420  14.016   1.834   5.626  0.1470 -0.0135  0.1363
  829YOPS   GL111421  13.905   1.997   5.980  0.0819  0.0056 -0.0333
  829YOPS   GL211422  13.966   1.731   6.110 -0.0478  0.0941  0.4188
  829YOPS   C1A11423  13.824   2.058   6.498  0.2145 -0.0498 -0.0366
  829YOPS   D2A11424  14.067   2.030   6.894 -0.3048 -0.0149  0.0936
  829YOPS   C3A11425  14.457   2.004   7.220  0.0046 -0.1951 -0.0393
  829YOPS   C4A11426  14.538   1.935   7.727  0.2108 -0.2797  0.1373
  829YOPS   C1B11427  14.257   1.836   6.452 -0.1296 -0.2902 -0.1628
  829YOPS   C2B11428  14.523   1.866   6.743 -0.1679 -0.0447 -0.2544
  829YOPS   D3B11429  14.758   1.536   6.943  0.0254 -0.1856  0.1666
  829YOPS   C4B11430  14.788   1.539   7.383  0.0716  0.2447  0.2556
  830YOPS   CNO11431  14.919  15.635   5.860 -0.0173  0.1851  0.3030
  830YOPS   PO411432  15.332  15.747   5.950  0.3164  0.2729 -0.1082
  830YOPS   GL111433  15.470  15.808   6.345 -0.1369  0.0936 -0.0634
  830YOPS   GL211434  15.726  16.113   6.420 -0.0165  0.0425  0.1958
  830YOPS   C1A11435  15.480  15.713   6.777  0.0387  0.0940  0.2586
  830YOPS   D2A11436  15.534  15.574   7.187  0.0050  0.3902  0.1979
  830YOPS   C3A11437  15.694  15.701   7.524 -0.0423  0.2444 -0.0942
  830YOPS   C4A11438  15.657  15.621   7.947 -0.2695 -0.3740  0.0511
  830YOPS   C1B11439  15.690  16.288   6.848 -0.0523 -0.1779 -0.0359
  830YOPS   C2B11440  15.738  16.443   7.286  0.0957 -0.1634 -0.1078
  830YOPS   D3B11441  16.142  16.350   7.595 -0.0781 -0.2699  0.2700
  830YOPS   C4B11442  16.274  16.700   7.815  0.2137 -0.2895 -0.0118
  831YOPS   CNO11443   5.807  12.027   5.655 -0.1119  0.3058  0.2181
  831YOPS   PO411444   5.797  12.410   5.464  0.0329 -0.0587  0.1000
  831YOPS   GL111445   5.748  12.489   5.944  0.0115  0.1134  0.2119
  831YOPS   GL211446   5.708  12.276   6.157 -0.1040 -0.2000  0.0178
  831YOPS   C1A11447   5.877  12.768   6.286  0.5224 -0.2321  0.1009
  831YOPS   D2A11448   5.787  13.023   6.720  0.0264  0.3881  0.1676
  831YOPS   C3A11449   5.614  12.844   7.125  0.0671  0.0302  0.0961
  831YOPS   C4A11450   5.583  12.371   7.062  0.1645  0.1558 -0.2514
  831YOPS   C1B11451   5.675  12.366   6.558  0.1514 -0.2939  0.0475
  831YOPS   C2B11452   5.990  12.533   6.855 -0.0906  0.3717  0.0406
  831YOPS   D3B11453   6.126  12.382   7.258 -0.4227  0.2757  0.0785
  831YOPS   C4B11454   6.260  11.956   7.311  0.3488 -0.0180 -0.0343
  832YOPS   CNO11455   7.850  12.043   5.605  0.3927  0.4184 -0.2007
  832YOPS   PO411456   7.675  12.409   5.521  0.1785 -0.3613  0.2859
  832YOPS   GL111457   7.676  12.465   5.874  0.1640 -0.3263  0.1230
  832YOPS   GL211458   7.663  12.237   6.025  0.1278  0.0894  0.2199
  832YOPS   C1A11459   7.471  12.668   6.123 -0.2453 -0.1019 -0.0871
  832YOPS   D2A11460   6.982  12.733   6.153 -0.0365 -0.4104  0.1745
  832YOPS   C3A11461   6.575  12.735   6.403  0.0484  0.0802  0.4840
  832YOPS   C4A11462   6.240  12.523   6.451  0.0046 -0.0368 -0.1528
  832YOPS   C1B11463   7.454  12.250   6.439 -0.0463  0.1354 -0.1645
  832YOPS   C2B11464   7.518  12.389   6.864 -0.1847  0.0114  0.2683
  832YOPS   D3B11465   7.581  12.435   7.297  0.0088 -0.0658  0.0670
  832YOPS   C4B11466   7.717  12.811   7.512  0.1289  0.2300  0.1997
  833YOPS   CNO11467   7.264  13.462   5.039  0.1046  0.0151 -0.0939
  833YOPS   PO411468   7.702  13.597   5.147  0.3329  0.3817  0.2836
  833YOPS   GL111469   7.837  13.447   5.590 -0.3467  0.0132 -0.0176
  833YOPS   GL211470   7.965  13.610   5.681  0.0107  0.0768  0.1902
  833YOPS   C1A11471   7.469  13.502   5.952 -0.1720 -0.2946 -0.0201
  833YOPS   D2A11472   7.226  13.260   6.253 -0.4019 -0.2219  0.2080
  833YOPS   C3A11473   7.238  12.882   6.594  0.1237  0.0849 -0.4436
  833YOPS   C4A11474   6.993  12.721   6.734  0.2337  0.1297 -0.2086
  833YOPS   C1B11475   7.850  13.727   6.144 -0.0715 -0.2974 -0.0466
  833YOPS   C2B11476   7.505  13.768   6.469  0.0543 -0.2014  0.1862
  833YOPS   D3B11477   7.567  13.789   6.849 -0.0601  0.1587 -0.1723
  833YOPS   C4B11478   7.795  14.084   6.954  0.1359 -0.1541  0.1507
  834YOPS   CNO11479   0.915   2.284   5.135 -0.0860  0.1781 -0.4011
  834YOPS   PO411480   1.178   2.191   5.297 -0.2443  0.0165  0.0924
  834YOPS   GL111481   1.302   2.551   5.553 -0.2982 -0.0555 -0.3166
  834YOPS   GL211482   1.300   2.900   5.573  0.0743 -0.0447 -0.1993
  834YOPS   C1A11483   1.269   2.613   6.034 -0.2391 -0.0930 -0.0649
  834YOPS   D2A11484   1.160   2.559   6.437  0.0223  0.3482 -0.0636
  834YOPS   C3A11485   1.204   2.425   6.825 -0.0221 -0.0928  0.1186
  834YOPS   C4A11486   1.561   2.529   7.024  0.1519 -0.1559 -0.4763
  834YOPS   C1B11487   1.382   3.199   5.901  0.2389 -0.0931  0.0480
  834YOPS   C2B11488   1.523   3.627   6.049 -0.0971  0.2431  0.1841
  834YOPS   D3B11489   1.532   3.850   6.245  0.1634  0.0286 -0.0010
  834YOPS   C4B11490   1.541   3.780   6.678  0.1008 -0.0820 -0.0799
  835YOPS   CNO11491   1.313  17.271   5.293  0.0345  0.2225  0.1207
  835YOPS   PO411492   1.577  17.233   5.672  0.1565 -0.1441 -0.2052
  835YOPS   GL111493   1.630  17.333   6.133 -0.0229 -0.0449  0.1551
  835YOPS   GL211494   1.854  17.616   6.270  0.0447 -0.2323  0.0769
  835YOPS   C1A11495   1.745  17.292   6.666 -0.2140 -0.2583 -0.0014
  835YOPS   D2A11496   1.743  17.374   7.072 -0.1393 -0.1308 -0.0357
  835YOPS   C3A11497   1.760  17.647   7.359  0.3829  0.0976  0.1204
  835YOPS   C4A11498   2.014  17.956   7.346 -0.0280 -0.0759 -0.1128
  835YOPS   C1B11499   1.945  17.792   6.791 -0.5237 -0.0341  0.0565
  835YOPS   C2B11500   2.342  17.861   6.991 -0.0720 -0.1354  0.0640
  835YOPS   D3B11501   2.572  18.042   7.342  0.0456  0.1087  0.0942
  835YOPS   C4B11502   2.451  18.481   7.384  0.0386  0.0061  0.1149
  836YOPS   CNO11503   6.592  11.538   5.552  0.0331  0.2200 -0.1793
  836YOPS   PO411504   6.653  11.939   5.378 -0.1387 -0.0913 -0.0919
  836YOPS   GL111505   6.850  11.965   5.811  0.2555  0.1456 -0.7447
  836YOPS   GL211506   6.950  11.742   5.925 -0.1555  0.1082 -0.0572
  836YOPS   C1A11507   6.989  12.222   6.141 -0.1221  0.1555 -0.1079
  836YOPS   D2A11508   6.745  12.207   6.510  0.1389  0.0107 -0.1551
  836YOPS   C3A11509   6.492  12.167   6.823  0.0899  0.2021 -0.0360
  836YOPS   C4A11510   6.679  12.214   7.214 -0.0813  0.0506  0.1203
  836YOPS   C1B11511   6.613  11.763   6.261  0.1826  0.1012  0.0795
  836YOPS   C2B11512   6.636  11.715   6.701  0.0158  0.2342  0.1918
  836YOPS   D3B11513   6.802  11.722   7.138  0.3809  0.0783  0.0789
  836YOPS   C4B11514   7.096  11.947   7.462 -0.1458  0.3330  0.3416
  837YOPS   CNO11515  10.445  16.713   5.787  0.1166  0.0173 -0.1783
  837YOPS   PO411516  10.694  17.019   5.928 -0.0828 -0.1247  0.0704
  837YOPS   GL111517  10.771  16.913   6.351  0.1464 -0.0406  0.1412
  837YOPS   GL211518  11.044  16.986   6.533 -0.3780 -0.0643 -0.1600
  837YOPS   C1A11519  10.612  17.253   6.734 -0.1571  0.1616  0.5060
  837YOPS   D2A11520  10.578  17.428   7.130  0.1307  0.3530 -0.2300
  837YOPS   C3A11521  10.355  17.467   7.531 -0.1356  0.2780  0.2536
  837YOPS   C4A11522  10.562  17.305   7.932  0.2272  0.1396  0.1133
  837YOPS   C1B11523  10.974  17.091   7.041  0.2226  0.4565 -0.2539
  837YOPS   C2B11524  10.955  16.953   7.495 -0.0453 -0.0187 -0.0153
  837YOPS   D3B11525  10.957  16.973   7.954  0.1745 -0.1301 -0.0596
  837YOPS   C4B11526  11.103  16.713   8.333  0.0853 -0.0111 -0.0905
  838YOPS   CNO11527  14.319  12.158   5.934 -0.2417  0.0816 -0.0533
  838YOPS   PO411528  14.159  11.827   6.000 -0.0845  0.2598  0.0859
  838YOPS   GL111529  14.206  11.926   6.426 -0.1515  0.1294  0.0730
  838YOPS   GL211530  14.417  12.132   6.468 -0.3223 -0.0582 -0.0330
  838YOPS   C1A11531  14.271  12.053   6.910  0.0209  0.3108 -0.1718
  838YOPS   D2A11532  14.206  11.914   7.358  0.2702 -0.4932 -0.0940
  838YOPS   C3A11533  14.333  11.908   7.693  0.1160 -0.1220 -0.0755
  838YOPS   C4A11534  14.125  12.174   8.072  0.0186 -0.1346 -0.4100
  838YOPS   C1B11535  14.793  12.317   6.650 -0.3235  0.2966  0.1344
  838YOPS   C2B11536  14.880  12.345   7.134  0.0257 -0.1336  0.1016
  838YOPS   D3B11537  15.016  12.642   7.421 -0.0427 -0.1303 -0.2461
  838YOPS   C4B11538  14.905  12.685   7.849  0.3251  0.2408  0.1737
  839YOPS   CNO11539   6.035   4.256   5.836  0.2617  0.0121  0.0730
  839YOPS   PO411540   5.922   4.522   5.616 -0.6351 -0.0146  0.0477
  839YOPS   GL111541   6.169   4.696   5.904 -0.4970  0.1723 -0.3902
  839YOPS   GL211542   6.088   4.906   5.907 -0.0765 -0.1758  0.1160
  839YOPS   C1A11543   6.527   4.821   6.133  0.0756  0.0359  0.1358
  839YOPS   D2A11544   6.783   4.550   6.367 -0.1603 -0.1594 -0.0107
  839YOPS   C3A11545   6.949   4.604   6.695 -0.0140  0.3276  0.0699
  839YOPS   C4A11546   7.261   4.313   6.649  0.2960 -0.2248 -0.0954
  839YOPS   C1B11547   5.922   5.000   6.258  0.1351 -0.1852  0.3124
  839YOPS   C2B11548   5.871   5.337   6.397  0.1144  0.0664 -0.3574
  839YOPS   D3B11549   5.901   5.873   6.529  0.0306 -0.0888  0.1907
  839YOPS   C4B11550   6.217   6.187   6.312  0.0709  0.1695  0.0508
  840YOPS   CNO11551   6.510   8.839   5.531 -0.0176 -0.2052 -0.0267
  840YOPS   PO411552   6.920   8.893   5.533  0.2496  0.0984 -0.0988
  840YOPS   GL111553   6.998   8.815   5.906  0.1585  0.0845  0.3117
  840YOPS   GL211554   7.083   9.085   6.116  0.2108 -0.3878  0.0786
  840YOPS   C1A11555   6.752   8.714   6.345 -0.0890 -0.0846 -0.0876
  840YOPS   D2A11556   6.825   8.698   6.788 -0.3391 -0.1527  0.1833
  840YOPS   C3A11557   6.714   8.315   7.058 -0.3477  0.0666  0.2216
  840YOPS   C4A11558   6.968   8.283   7.498  0.0544 -0.3159 -0.1648
  840YOPS   C1B11559   7.247   8.924   6.536  0.3581  0.4131 -0.1867
  840YOPS   C2B11560   7.080   9.243   6.898  0.3984  0.2071 -0.4293
  840YOPS   D3B11561   7.223   9.289   7.263  0.1764  0.2167 -0.2071
  840YOPS   C4B11562   6.963   9.179   7.663  0.0545 -0.0145 -0.0749
  841YOPS   CNO11563   4.763  15.713   6.029  0.0372  0.0461  0.1733
  841YOPS   PO411564   5.208  15.884   5.801 -0.0089 -0.1214  0.1883
  841YOPS   GL111565   5.104  16.030   6.202  0.0431  0.2453  0.1677
  841YOPS   GL211566   5.231  15.954   6.480 -0.0132  0.4026 -0.1463
  841YOPS   C1A11567   4.779  16.010   6.563 -0.0672  0.2149 -0.1505
  841YOPS   D2A11568   4.352  15.915   6.706 -0.0081  0.2431  0.1095
  841YOPS   C3A11569   3.952  15.830   6.806 -0.0670  0.1603 -0.0131
  841YOPS   C4A11570   3.746  15.466   6.958 -0.3192  0.0515  0.5214
  841YOPS   C1B11571   5.072  15.538   6.458  0.0009 -0.2727  0.0835
  841YOPS   C2B11572   5.016  15.249   6.721 -0.0991  0.3021  0.3181
  841YOPS   D3B11573   4.660  15.029   6.944 -0.1668  0.0583  0.1528
  841YOPS   C4B11574   4.316  14.806   7.206  0.0736  0.0534  0.0969
  842POPE   NH311575   8.540   7.891   6.368 -0.1881  0.1532  0.1009
  842POPE   PO411576   8.517   8.062   5.989 -0.1089 -0.2536  0.0749
  842POPE   GL111577   8.653   8.517   6.329 -0.0104 -0.0659  0.4018
  842POPE   GL211578   8.842   8.692   6.186 -0.1082  0.1158  0.2560
  842POPE   C1A11579   8.460   8.786   6.769 -0.0411  0.1179  0.0446
  842POPE   D2A11580   8.132   9.045   6.995  0.2423 -0.0348 -0.0522
  842POPE   C3A11581   8.228   8.972   7.467  0.2329  0.1529  0.1952
  842POPE   C4A11582   8.302   9.051   7.923  0.5524  0.1318 -0.1027
  842POPE   C1B11583   8.811   9.049   6.489 -0.2826  0.1551  0.1394
  842POPE   C2B11584   8.918   9.087   6.852  0.4342  0.0639 -0.1879
  842POPE   C3B11585   8.947   9.482   7.184 -0.0570 -0.2300  0.3064
  842POPE   C4B11586   8.903   9.703   7.661 -0.0488  0.0156 -0.1963
  843POPE   NH311587  14.254   8.047   5.933 -0.0074  0.1472  0.1213
  843POPE   PO411588  14.624   8.344   5.876 -0.2490  0.2433 -0.0016
  843POPE   GL111589  14.701   8.160   6.275 -0.0796 -0.2976  0.1086
  843POPE   GL211590  14.826   7.854   6.304 -0.1862 -0.0720  0.0662
  843POPE   C1A11591  14.868   8.153   6.694  0.0491  0.1436 -0.0588
  843POPE   D2A11592  14.831   8.079   7.093 -0.1312 -0.0790 -0.0134
  843POPE   C3A11593  15.093   8.356   7.265  0.3403 -0.0854  0.3792
  843POPE   C4A11594  15.259   8.694   7.097  0.2844 -0.0727  0.1419
  843POPE   C1B11595  14.832   7.672   6.631 -0.0980  0.1810  0.0151
  843POPE   C2B11596  14.726   7.577   7.147  0.1526  0.1579 -0.0234
  843POPE   C3B11597  14.710   7.783   7.514 -0.2200 -0.0059 -0.0161
  843POPE   C4B11598  14.998   7.979   7.724 -0.2296  0.0051 -0.3298
  844POPE   NH311599   9.982  13.754   5.499  0.0352  0.2216 -0.0127
  844POPE   PO411600  10.241  14.075   5.594 -0.3477  0.3146 -0.2858
  844POPE   GL111601  10.272  14.240   5.967  0.1286 -0.1219  0.0175
  844POPE   GL211602  10.019  14.482   6.188  0.2136 -0.1291  0.2137
  844POPE   C1A11603  10.082  14.038   6.349 -0.1007 -0.1522  0.0234
  844POPE   D2A11604   9.976  14.024   6.746 -0.2311 -0.1200  0.0479
  844POPE   C3A11605  10.094  13.864   7.071 -0.1726 -0.3388 -0.0138
  844POPE   C4A11606  10.073  13.826   7.425  0.2190 -0.0557 -0.1479
  844POPE   C1B11607  10.081  14.496   6.561  0.3937 -0.3217  0.0081
  844POPE   C2B11608  10.136  14.460   6.955 -0.2340  0.3033 -0.1164
  844POPE   C3B11609  10.169  14.482   7.328 -0.1615 -0.0853  0.2613
  844POPE   C4B11610  10.228  14.405   7.732  0.2357  0.0450  0.3634
  845POPE   NH311611  17.612  18.589   5.805 -0.0131 -0.0285  0.0867
  845POPE   PO411612  17.547  18.106   5.915  0.1290 -0.2605  0.0724
  845POPE   GL111613  17.580  18.130   6.390 -0.1195  0.0262  0.1818
  845POPE   GL211614  17.549  17.822   6.508 -0.0890 -0.2556 -0.3228
  845POPE   C1A11615  17.520  18.281   6.733  0.1614 -0.2488  0.1559
  845POPE   D2A11616  17.398  18.217   7.080  0.2318 -0.3136 -0.2865
  845POPE   C3A11617  17.356  18.275   7.567  0.0924  0.2477  0.2022
  845POPE   C4A11618  17.301  18.625   7.853  0.3825 -0.2701  0.2292
  845POPE   C1B11619  17.586  17.718   6.934  0.0347 -0.2551 -0.1991
  845POPE   C2B11620  17.396  17.775   7.261  0.4059  0.0406  0.3305
  845POPE   C3B11621  17.137  17.722   7.777 -0.1259 -0.2943 -0.4135
  845POPE   C4B11622  17.477  17.621   8.177 -0.1907  0.2595  0.0908
  846POPE   NH311623   4.732   8.313   5.662 -0.0514  0.2441  0.1693
  846POPE   PO411624   4.451   8.643   5.660 -0.1233 -0.0316  0.1923
  846POPE   GL111625   4.648   8.722   5.997  0.0123 -0.2753 -0.1784
  846POPE   GL211626   4.958   8.621   5.941  0.2432 -0.0767  0.0122
  846POPE   C1A11627   4.809   8.844   6.422 -0.0962  0.0292  0.1862
  846POPE   D2A11628   4.942   9.015   6.816  0.2036  0.1622  0.0989
  846POPE   C3A11629   4.823   8.799   7.163 -0.0909 -0.0048 -0.1324
  846POPE   C4A11630   4.743   8.615   7.513  0.1117  0.0538  0.0824
  846POPE   C1B11631   5.333   8.663   6.132 -0.0928  0.3905 -0.1378
  846POPE   C2B11632   5.381   8.798   6.627 -0.2742 -0.0768  0.0887
  846POPE   C3B11633   5.436   8.864   7.014 -0.2516  0.0807 -0.3404
  846POPE   C4B11634   5.348   8.832   7.386 -0.1323  0.1198  0.2014
  847POPE   NH311635   5.662   4.967   5.548 -0.1820  0.1219 -0.0939
  847POPE   PO411636   5.336   5.271   5.608 -0.0371 -0.0760  0.3383
  847POPE   GL111637   5.397   5.258   5.955  0.3770 -0.2955  0.0341
  847POPE   GL211638   5.450   4.950   6.088 -0.0017  0.1043 -0.1760
  847POPE   C1A11639   5.410   5.352   6.391 -0.1208 -0.1999 -0.2527
  847POPE   D2A11640   5.515   5.579   6.743 -0.1808  0.1462  0.3432
  847POPE   C3A11641   5.460   5.543   7.110 -0.0339 -0.1287 -0.1584
  847POPE   C4A11642   5.673   5.469   7.419 -0.1904 -0.1773  0.0948
  847POPE   C1B11643   5.481   4.660   6.429  0.1732 -0.2800 -0.3275
  847POPE   C2B11644   5.470   4.596   6.876 -0.0804  0.1524 -0.1245
  847POPE   C3B11645   5.567   4.767   7.311  0.0918 -0.0536  0.3359
  847POPE   C4B11646   5.683   5.050   7.712 -0.2558  0.1897 -0.2228
  848POPE   NH311647   4.984   2.790   5.712  0.0025  0.0426 -0.0633
  848POPE   PO411648   5.176   3.194   5.704 -0.3094 -0.0262  0.0426
  848POPE   GL111649   5.071   3.489   5.982 -0.0324  0.2689 -0.2345
  848POPE   GL211650   4.708   3.444   6.035  0.0759  0.0885  0.1933
  848POPE   C1A11651   5.303   3.663   6.365  0.0360  0.1098  0.1581
  848POPE   D2A11652   5.482   3.722   6.751  0.0748  0.1071 -0.0579
  848POPE   C3A11653   5.292   3.723   7.080  0.0442 -0.2523  0.0937
  848POPE   C4A11654   4.942   3.841   7.357 -0.1940 -0.2894  0.0393
  848POPE   C1B11655   4.854   3.432   6.435 -0.1639  0.0212  0.1428
  848POPE   C2B11656   4.979   3.483   6.762 -0.2733 -0.1759  0.0738
  848POPE   C3B11657   4.933   3.350   7.195  0.0549  0.0235  0.1313
  848POPE   C4B11658   4.593   3.271   7.556  0.2304  0.1826  0.0451
  849POPE   NH311659  12.555  17.553   6.160 -0.0731 -0.2953  0.0342
  849POPE   PO411660  13.023  17.460   6.043 -0.0195  0.0130 -0.1433
  849POPE   GL111661  12.981  17.313   6.438 -0.1177 -0.0878  0.1190
  849POPE   GL211662  12.825  17.022   6.403  0.0814  0.1878  0.1112
  849POPE   C1A11663  12.995  17.475   6.933  0.0137  0.0038 -0.2430
  849POPE   D2A11664  12.974  17.545   7.419  0.0803 -0.1143  0.0532
  849POPE   C3A11665  13.339  17.309   7.662  0.1512 -0.0254 -0.1786
  849POPE   C4A11666  13.460  17.289   8.028 -0.1240 -0.0210  0.0917
  849POPE   C1B11667  13.000  17.017   6.873  0.1454 -0.0580 -0.0225
  849POPE   C2B11668  13.184  17.049   7.299 -0.0317  0.2885  0.5057
  849POPE   C3B11669  13.412  16.849   7.587  0.0620  0.1144 -0.1608
  849POPE   C4B11670  13.767  16.571   7.853  0.2057 -0.1796 -0.2082
  850POPE   NH311671   5.061   9.481   5.548 -0.0457  0.1393 -0.1395
  850POPE   PO411672   5.388   9.738   5.630  0.0866  0.1378 -0.0666
  850POPE   GL111673   5.545   9.867   6.069 -0.0478 -0.0446  0.0583
  850POPE   GL211674   5.847  10.032   6.045 -0.2467  0.1792  0.0043
  850POPE   C1A11675   5.822   9.796   6.468  0.0212 -0.0963 -0.1338
  850POPE   D2A11676   6.099   9.563   6.813  0.1499  0.1685 -0.2045
  850POPE   C3A11677   6.208   9.512   7.232  0.4228  0.2460  0.2411
  850POPE   C4A11678   6.475   9.242   7.575 -0.2484 -0.0048  0.1499
  850POPE   C1B11679   5.914  10.268   6.502  0.2391  0.0683 -0.1126
  850POPE   C2B11680   5.752  10.641   6.845  0.0828  0.2683  0.0496
  850POPE   C3B11681   5.766  10.746   7.244  0.3972 -0.0823  0.0325
  850POPE   C4B11682   5.919  10.981   7.692  0.2558  0.1424  0.0832
  851POPE   NH311683   1.873   0.489   5.268 -0.1404 -0.4708  0.2511
  851POPE   PO411684   1.635   0.811   5.453  0.0273  0.0698 -0.1961
  851POPE   GL111685   1.647   0.878   6.000 -0.1441 -0.4033  0.1350
  851POPE   GL211686   1.470   0.973   6.183 -0.1141  0.0299 -0.1226
  851POPE   C1A11687   1.909   0.950   6.366  0.3551  0.0557 -0.3618
  851POPE   D2A11688   2.199   0.802   6.677  0.0124  0.0862 -0.1874
  851POPE   C3A11689   2.266   0.913   6.953 -0.1718 -0.2666  0.1284
  851POPE   C4A11690   2.621   1.015   7.169  0.1748  0.0837 -0.1140
  851POPE   C1B11691   1.407   0.999   6.709  0.0426  0.1431 -0.0987
  851POPE   C2B11692   1.382   1.035   7.206 -0.1050  0.1204  0.2483
  851POPE   C3B11693   1.122   1.071   7.635 -0.0098  0.0676  0.0968
  851POPE   C4B11694   0.733   1.118   7.843  0.1497  0.3643 -0.1017
  852POPE   NH311695   0.455   0.781   5.664  0.0267  0.0104  0.2060
  852POPE   PO411696   0.035   0.793   5.769 -0.2603  0.0922  0.2309
  852POPE   GL111697   0.205   0.681   6.079 -0.0867  0.0298 -0.0596
  852POPE   GL211698   0.107   0.481   6.328  0.2140  0.0389 -0.2115
  852POPE   C1A11699   0.509   0.823   6.461  0.1076  0.0975  0.0037
  852POPE   D2A11700   0.583   0.914   6.856 -0.1649  0.0140 -0.1010
  852POPE   C3A11701   0.956   1.167   6.927  0.1044 -0.2066 -0.1043
  852POPE   C4A11702   1.050   1.368   7.288  0.1089  0.2672 -0.1015
  852POPE   C1B11703   0.022   0.255   6.656  0.1430 -0.3413 -0.0787
  852POPE   C2B11704   0.077   0.157   7.047  0.1137  0.1643 -0.0721
  852POPE   C3B11705   0.212   0.379   7.392  0.0801 -0.0732  0.1023
  852POPE   C4B11706   0.331   0.802   7.628 -0.1095  0.1178 -0.1627
  853POPE   NH311707  17.872   2.110   5.652  0.2322  0.3141  0.0598
  853POPE   PO411708  18.162   2.019   5.897  0.1448 -0.2423 -0.2210
  853POPE   GL111709  18.361   2.242   6.173  0.3031 -0.3616 -0.2208
  853POPE   GL211710  18.565   2.483   6.098  0.0979  0.1046  0.1499
  853POPE   C1A11711  18.431   2.394   6.582  0.0959  0.1432 -0.1179
  853POPE   D2A11712  18.128   2.294   6.940  0.0213  0.3023  0.3347
  853POPE   C3A11713  18.106   2.535   7.335 -0.2029  0.2139 -0.0263
  853POPE   C4A11714  18.324   2.510   7.570  0.1757  0.0471 -0.0356
  853POPE   C1B11715  18.323   2.814   6.357  0.0090  0.0470  0.1945
  853POPE   C2B11716  18.034   2.734   6.755  0.0601  0.0425  0.1480
  853POPE   C3B11717  17.864   2.945   7.189 -0.3095 -0.1081  0.0039
  853POPE   C4B11718  17.679   3.244   7.429 -0.0354  0.0211  0.0786
  854POPE   NH311719   1.209   8.917   5.340 -0.1994 -0.2172  0.2094
  854POPE   PO411720   0.976   8.566   5.285  0.2486  0.2888  0.0917
  854POPE   GL111721   0.961   8.610   5.676 -0.2918 -0.4855  0.2527
  854POPE   GL211722   0.771   8.362   5.818 -0.3592  0.0241  0.1900
  854POPE   C1A11723   1.058   8.526   6.154  0.0923 -0.0690  0.1607
  854POPE   D2A11724   1.064   8.477   6.572 -0.0716 -0.3049  0.4401
  854POPE   C3A11725   1.122   8.175   6.840 -0.0813 -0.2984 -0.1171
  854POPE   C4A11726   1.113   7.681   6.857  0.0747  0.0515 -0.1621
  854POPE   C1B11727   0.356   8.119   5.914  0.1858 -0.2619 -0.0044
  854POPE   C2B11728   0.177   7.816   6.197 -0.0342  0.0113  0.1525
  854POPE   C3B11729  -0.000   7.670   6.621 -0.1839 -0.2739  0.2424
  854POPE   C4B11730  -0.161   7.807   7.006 -0.1372 -0.2546  0.2310
  855POPE   NH311731   9.370  12.953   5.611 -0.4350 -0.0020 -0.0542
  855POPE   PO411732   9.173  12.539   5.652  0.0668  0.3533  0.2507
  855POPE   GL111733   9.176  12.315   6.025 -0.0810  0.0575  0.1238
  855POPE   GL211734   9.373  12.018   6.003 -0.2465 -0.1043  0.0936
  855POPE   C1A11735   9.162  12.301   6.512 -0.1896  0.1300 -0.1109
  855POPE   D2A11736   8.999  12.309   6.909 -0.0966  0.1289 -0.0126
  855POPE   C3A11737   9.020  12.041   7.296 -0.1026 -0.1049  0.0489
  855POPE   C4A11738   8.835  12.017   7.669 -0.0427  0.5069  0.1664
  855POPE   C1B11739   9.149  11.860   6.364  0.0271 -0.0453 -0.0503
  855POPE   C2B11740   9.052  11.668   6.700 -0.1181  0.1173 -0.1767
  855POPE   C3B11741   9.155  11.499   7.043  0.0455  0.0772 -0.0752
  855POPE   C4B11742   9.070  11.128   7.213  0.0940 -0.0115 -0.2116
  856POPE   NH311743   9.815   5.833   5.959  0.1189 -0.0865 -0.1589
  856POPE   PO411744   9.673   6.221   6.070 -0.2580  0.1131 -0.3231
  856POPE   GL111745   9.355   6.372   6.365  0.0763  0.0115 -0.1917
  856POPE   GL211746   9.717   6.432   6.615  0.3287  0.0319  0.0481
  856POPE   C1A11747   9.075   6.594   6.785  0.1260 -0.1846  0.1614
  856POPE   D2A11748   8.829   6.786   7.067 -0.0385 -0.0535  0.1561
  856POPE   C3A11749   8.803   7.183   7.243 -0.0434  0.2773 -0.4350
  856POPE   C4A11750   8.894   7.551   7.324 -0.0585  0.1222  0.0064
  856POPE   C1B11751   9.463   6.306   6.858  0.2059  0.0750  0.0557
  856POPE   C2B11752   9.224   6.410   7.205 -0.0515  0.1390 -0.1026
  856POPE   C3B11753   9.153   6.791   7.461  0.3034  0.2229 -0.2966
  856POPE   C4B11754   9.016   6.908   7.820  0.1999 -0.0452 -0.2229
  857POPE   NH311755   6.035   1.609   6.093 -0.4857 -0.4038 -0.0240
  857POPE   PO411756   5.770   1.526   5.957 -0.1004  0.2117  0.0445
  857POPE   GL111757   5.667   1.392   6.354 -0.2846  0.0404 -0.0491
  857POPE   GL211758   5.830   1.535   6.529 -0.0080  0.3433  0.0053
  857POPE   C1A11759   5.251   1.419   6.557  0.0918 -0.0540  0.0577
  857POPE   D2A11760   5.194   1.157   6.881 -0.1681  0.2455  0.0407
  857POPE   C3A11761   5.175   1.064   7.360 -0.1581  0.2571 -0.3820
  857POPE   C4A11762   4.860   0.720   7.529 -0.1308  0.0092 -0.5051
  857POPE   C1B11763   5.704   1.335   6.905  0.2518 -0.1416 -0.1567
  857POPE   C2B11764   5.574   1.361   7.286  0.1238 -0.0714  0.0397
  857POPE   C3B11765   5.360   1.452   7.690  0.3584 -0.0614  0.2023
  857POPE   C4B11766   5.019   1.206   7.860  0.0348 -0.1429 -0.1283
  858POPE   NH311767  11.657   0.976   6.467 -0.1955  0.0119 -0.2259
  858POPE   PO411768  11.318   1.169   6.668 -0.2507  0.0821  0.1551
  858POPE   GL111769  11.355   0.956   7.016  0.0873  0.3882  0.0256
  858POPE   GL211770  11.039   0.883   7.056 -0.0397 -0.0610  0.0478
  858POPE   C1A11771  11.411   0.942   7.449  0.4249 -0.1407  0.3873
  858POPE   D2A11772  11.278   0.793   7.821 -0.1363  0.0725  0.2275
  858POPE   C3A11773  10.850   0.580   7.770  0.0987 -0.3721  0.0595
  858POPE   C4A11774  10.615   0.273   7.981  0.2813 -0.0214  0.0527
  858POPE   C1B11775  10.933   0.979   7.501 -0.3857 -0.2740  0.0591
  858POPE   C2B11776  10.935   1.090   8.017 -0.1245 -0.1694  0.0854
  858POPE   C3B11777  10.817   1.208   8.434 -0.0941 -0.1795  0.0990
  858POPE   C4B11778  10.744   1.628   8.567  0.2000  0.2455 -0.0198
  859POPE   NH311779   2.936   7.971   4.878  0.2783  0.3221  0.0143
  859POPE   PO411780   3.355   7.913   5.080 -0.1067 -0.2177 -0.1238
  859POPE   GL111781   3.208   7.767   5.430  0.2759  0.1926  0.2230
  859POPE   GL211782   2.952   8.001   5.406  0.0160  0.0238 -0.0753
  859POPE   C1A11783   3.280   7.863   5.863  0.0460 -0.1543 -0.0394
  859POPE   D2A11784   3.308   7.962   6.199 -0.0873  0.2014 -0.0554
  859POPE   C3A11785   3.247   7.827   6.633 -0.0581 -0.0605 -0.1106
  859POPE   C4A11786   3.110   7.759   6.989  0.1436 -0.1235 -0.1911
  859POPE   C1B11787   2.871   8.127   5.929  0.0963  0.3324 -0.0629
  859POPE   C2B11788   2.691   7.966   6.372  0.3042 -0.1142  0.0071
  859POPE   C3B11789   2.644   7.710   6.673 -0.0747 -0.1111  0.1905
  859POPE   C4B11790   2.605   7.472   7.069  0.1486 -0.1707  0.2555
  860POPE   NH311791  15.974  16.170   5.895  0.0270  0.0010 -0.2427
  860POPE   PO411792  16.209  15.770   5.793  0.0953 -0.1999 -0.2000
  860POPE   GL111793  16.539  15.692   6.135 -0.0918 -0.0501 -0.1974
  860POPE   GL211794  16.267  15.731   6.327  0.1901 -0.0363  0.2599
  860POPE   C1A11795  16.623  15.495   6.592  0.3525  0.1219  0.1566
  860POPE   D2A11796  16.318  15.371   6.794  0.0465  0.0789  0.0214
  860POPE   C3A11797  16.229  15.444   7.240  0.1782 -0.1346  0.1007
  860POPE   C4A11798  16.014  15.321   7.668 -0.0420 -0.0202  0.4073
  860POPE   C1B11799  15.878  15.455   6.496 -0.0300 -0.0969 -0.1031
  860POPE   C2B11800  15.839  15.303   6.886  0.0533  0.2315 -0.1477
  860POPE   C3B11801  15.805  15.099   7.281 -0.0722  0.0859 -0.0308
  860POPE   C4B11802  15.946  14.848   7.660  0.1007 -0.0627 -0.3047
  861POPE   NH311803   8.150   7.096   6.322  0.0355 -0.1207  0.2774
  861POPE   PO411804   8.512   7.363   6.488  0.3269  0.2090  0.1509
  861POPE   GL111805   8.485   7.591   6.846  0.2161  0.1683 -0.1130
  861POPE   GL211806   8.229   7.871   6.736 -0.0397 -0.1756  0.1075
  861POPE   C1A11807   8.381   7.679   7.206  0.2664  0.0928 -0.0512
  861POPE   D2A11808   8.494   7.443   7.582 -0.1342  0.0504 -0.0121
  861POPE   C3A11809   8.614   7.439   8.072 -0.1703 -0.0547 -0.5508
  861POPE   C4A11810   8.634   7.713   8.492  0.2899 -0.3503  0.2404
  861POPE   C1B11811   7.771   7.738   6.905 -0.0660  0.2682  0.2561
  861POPE   C2B11812   7.504   7.630   7.268 -0.1367 -0.1271 -0.0909
  861POPE   C3B11813   7.536   7.825   7.651 -0.0605 -0.2421  0.2690
  861POPE   C4B11814   7.736   7.861   8.043 -0.0257  0.1059 -0.2663
  862POPE   NH311815   0.845  17.893   5.904 -0.2087 -0.0347  0.0913
  862POPE   PO411816   0.594  18.228   6.113 -0.3156 -0.0834  0.0599
  862POPE   GL111817   0.603  18.195   6.527 -0.3108  0.0191 -0.1037
  862POPE   GL211818   0.622  17.931   6.760 -0.0905 -0.0760 -0.1791
  862POPE   C1A11819   0.841  18.361   6.871 -0.1640  0.1362 -0.0345
  862POPE   D2A11820   0.999  18.271   7.468 -0.0035 -0.2122  0.0239
  862POPE   C3A11821   1.312  17.961   7.502 -0.1869  0.0543  0.1514
  862POPE   C4A11822   1.438  17.672   7.734  0.0682  0.2168  0.0807
  862POPE   C1B11823   0.881  17.825   7.104 -0.0702 -0.4631 -0.1040
  862POPE   C2B11824   0.774  17.814   7.497 -0.1269  0.2597 -0.1104
  862POPE   C3B11825   0.919  17.961   7.846  0.0533 -0.0052 -0.2417
  862POPE   C4B11826   1.092  17.847   8.231 -0.1304  0.1213  0.0840
  863POPE   NH311827   0.714  12.877   5.249 -0.2215 -0.1613  0.1575
  863POPE   PO411828   0.825  12.654   5.621  0.3183 -0.0283  0.0484
  863POPE   GL111829   0.846  12.522   5.988  0.1205 -0.1817 -0.0334
  863POPE   GL211830   0.994  12.367   6.036 -0.1429 -0.2935  0.1732
  863POPE   C1A11831   0.508  12.401   6.231  0.0068  0.0971  0.1337
  863POPE   D2A11832   0.102  12.309   6.060 -0.3715  0.1126  0.0761
  863POPE   C3A11833  -0.107  12.231   6.474 -0.0260  0.1556 -0.1507
  863POPE   C4A11834  -0.118  12.156   6.903 -0.2544 -0.0244 -0.0005
  863POPE   C1B11835   1.227  12.437   6.355  0.2123  0.5401 -0.1016
  863POPE   C2B11836   1.528  12.193   6.630 -0.0605 -0.1120  0.2671
  863POPE   C3B11837   1.708  12.061   7.043 -0.1354 -0.0169  0.0251
  863POPE   C4B11838   1.753  11.663   7.165  0.0233 -0.0624  0.2849
  864POPE   NH311839   8.725   6.594   5.949 -0.0704  0.1751  0.5545
  864POPE   PO411840   8.558   6.727   6.386 -0.3002  0.1097 -0.1377
  864POPE   GL111841   8.339   6.921   6.808 -0.1797  0.1120 -0.0772
  864POPE   GL211842   8.059   7.251   6.770  0.0436 -0.1143 -0.2257
  864POPE   C1A11843   8.380   6.858   7.244 -0.2266  0.0671 -0.2646
  864POPE   D2A11844   8.557   6.914   7.630  0.0535 -0.0723 -0.1084
  864POPE   C3A11845   8.515   6.598   7.855 -0.1677 -0.1302  0.3846
  864POPE   C4A11846   8.446   6.435   8.241  0.3226  0.1353 -0.0923
  864POPE   C1B11847   8.058   7.238   7.217  0.1338  0.3560 -0.0050
  864POPE   C2B11848   7.809   7.298   7.598 -0.2673 -0.0607 -0.0325
  864POPE   C3B11849   7.772   7.365   7.949  0.2682  0.0598 -0.2931
  864POPE   C4B11850   7.777   7.036   8.389  0.0695  0.1148  0.1066
  865POPE   NH311851   8.320   1.494   5.778  0.1458 -0.0176 -0.0993
  865POPE   PO411852   8.254   1.101   5.896  0.1120  0.1998  0.3434
  865POPE   GL111853   8.289   0.830   6.319 -0.0200 -0.1351  0.0928
  865POPE   GL211854   8.555   0.764   6.484  0.0468 -0.2838  0.1472
  865POPE   C1A11855   8.031   0.842   6.774  0.0147 -0.1350 -0.0128
  865POPE   D2A11856   7.929   0.710   7.155 -0.1556  0.2637 -0.1326
  865POPE   C3A11857   7.944   1.003   7.506  0.0528 -0.0062  0.1198
  865POPE   C4A11858   7.974   1.269   7.951  0.3498 -0.1174 -0.1197
  865POPE   C1B11859   8.338   0.476   6.693  0.0766 -0.0972  0.2952
  865POPE   C2B11860   8.258   0.378   7.097  0.0963  0.1092 -0.1849
  865POPE   C3B11861   8.264   0.432   7.571 -0.2521  0.1163 -0.0337
  865POPE   C4B11862   8.501   0.509   7.942 -0.1546 -0.1321 -0.1467
  866POPE   NH311863   0.154  18.415   5.814  0.1361  0.0337 -0.0908
  866POPE   PO411864  -0.183  18.565   5.780  0.2015  0.2705  0.0796
  866POPE   GL111865  -0.180  18.677   6.215 -0.2434  0.0706 -0.2187
  866POPE   GL211866   0.164  18.521   6.325 -0.1196  0.3060  0.2740
  866POPE   C1A11867  -0.376  18.858   6.477  0.0155 -0.0339 -0.1710
  866POPE   D2A11868  -0.496  19.065   6.817  0.2301  0.0525  0.0406
  866POPE   C3A11869  -0.210  19.147   7.135  0.0013  0.0537  0.2505
  866POPE   C4A11870  -0.190  19.161   7.606 -0.0436 -0.1761 -0.0432
  866POPE   C1B11871   0.311  18.489   6.750 -0.2623  0.1604 -0.1058
  866POPE   C2B11872   0.464  18.416   7.168 -0.0256  0.1403  0.0448
  866POPE   C3B11873   0.559  18.333   7.669 -0.3703  0.1351 -0.2586
  866POPE   C4B11874   0.368  18.398   8.008 -0.0609  0.0062 -0.1112
  867POPE   NH311875  16.041   2.766   5.899 -0.4305 -0.4580 -0.0556
  867POPE   PO411876  16.378   2.761   5.572 -0.1052 -0.0245  0.0073
  867POPE   GL111877  16.650   2.923   5.889  0.0440  0.4116  0.2932
  867POPE   GL211878  16.950   3.068   5.731 -0.2144  0.0357 -0.1513
  867POPE   C1A11879  16.641   3.033   6.337  0.1274 -0.1072 -0.1352
  867POPE   D2A11880  16.768   3.067   6.768  0.1244  0.1317  0.0849
  867POPE   C3A11881  16.603   3.298   7.092  0.0859 -0.1588 -0.1590
  867POPE   C4A11882  16.574   3.503   7.483 -0.2772  0.2803 -0.1312
  867POPE   C1B11883  17.059   3.142   6.153  0.0301 -0.1276 -0.0586
  867POPE   C2B11884  17.271   3.125   6.512  0.0123  0.3265 -0.0204
  867POPE   C3B11885  17.261   3.220   6.978  0.0830  0.4356  0.1048
  867POPE   C4B11886  17.306   2.831   7.303  0.0348 -0.1266 -0.1791
  868POPE   NH311887  12.212  11.289   5.512 -0.1366  0.0280  0.0622
  868POPE   PO411888  12.716  11.297   5.738 -0.2202 -0.0752 -0.0600
  868POPE   GL111889  12.787  11.110   6.102 -0.0672 -0.0287 -0.0301
  868POPE   GL211890  13.083  10.874   6.197  0.0817 -0.1339 -0.0454
  868POPE   C1A11891  12.581  10.796   6.336 -0.1274  0.0343 -0.1420
  868POPE   D2A11892  12.458  10.687   6.774 -0.1481  0.0721 -0.0485
  868POPE   C3A11893  12.461  10.955   7.033 -0.0966 -0.1523 -0.3501
  868POPE   C4A11894  12.266  10.942   7.393 -0.0199 -0.1851 -0.1349
  868POPE   C1B11895  12.890  11.013   6.618 -0.0855  0.0194 -0.0789
  868POPE   C2B11896  12.979  10.959   7.015  0.0723 -0.1561  0.0997
  868POPE   C3B11897  13.050  10.784   7.373  0.1893  0.0298 -0.0009
  868POPE   C4B11898  13.103  10.545   7.635  0.0618 -0.2849  0.0057
  869POPE   NH311899  16.546   9.315   4.833  0.0029 -0.1463  0.2758
  869POPE   PO411900  16.368   8.975   5.068  0.0630 -0.2325  0.2424
  869POPE   GL111901  16.433   8.656   5.350  0.1322  0.2326 -0.0255
  869POPE   GL211902  16.833   8.708   5.451 -0.0572 -0.2699 -0.1273
  869POPE   C1A11903  16.339   8.543   5.773  0.0243 -0.0236  0.0323
  869POPE   D2A11904  16.325   8.363   6.140 -0.3352  0.1675 -0.0197
  869POPE   C3A11905  16.267   8.539   6.530 -0.2731  0.1147  0.0249
  869POPE   C4A11906  16.218   8.948   6.807 -0.1872 -0.0652 -0.1333
  869POPE   C1B11907  17.182   8.570   5.676  0.2965 -0.2393  0.0178
  869POPE   C2B11908  17.249   8.723   6.046  0.1866  0.0482 -0.1107
  869POPE   C3B11909  17.437   8.804   6.407 -0.1540  0.0554 -0.2714
  869POPE   C4B11910  17.902   8.824   6.317 -0.0701  0.0443 -0.0231
  870POPE   NH311911  13.710   7.391   5.583  0.0275 -0.2065  0.2067
  870POPE   PO411912  13.907   7.677   5.741 -0.0675  0.0179 -0.1176
  870POPE   GL111913  14.072   7.700   6.278 -0.0837  0.0383 -0.1798
  870POPE   GL211914  14.389   7.564   6.269  0.1400  0.1836 -0.1408
  870POPE   C1A11915  14.076   7.461   6.639 -0.2600  0.1580 -0.0459
  870POPE   D2A11916  14.224   7.167   6.925 -0.3181  0.3042  0.2168
  870POPE   C3A11917  14.534   7.115   7.138  0.0252 -0.3615  0.0250
  870POPE   C4A11918  14.676   6.865   7.496 -0.1284  0.0590  0.1412
  870POPE   C1B11919  14.109   7.226   6.160 -0.1757  0.3613  0.1068
  870POPE   C2B11920  14.193   6.856   5.989  0.0149  0.1170  0.0762
  870POPE   C3B11921  14.152   6.481   6.143  0.1107  0.2928 -0.0569
  870POPE   C4B11922  14.127   6.068   6.229 -0.2046  0.1024  0.1695
  871POPE   NH311923   8.575   3.724   6.085 -0.0434 -0.1381 -0.3547
  871POPE   PO411924   8.285   3.963   5.994 -0.0453  0.1742 -0.0703
  871POPE   GL111925   8.542   4.164   6.410 -0.0532  0.1662  0.0508
  871POPE   GL211926   8.553   3.851   6.559 -0.0093  0.0037 -0.4208
  871POPE   C1A11927   8.521   4.495   6.753 -0.2760  0.2339 -0.0553
  871POPE   D2A11928   8.491   4.470   7.145  0.4162 -0.0403  0.2616
  871POPE   C3A11929   8.175   4.602   7.338  0.1911 -0.0598  0.0073
  871POPE   C4A11930   7.911   4.575   7.436  0.2502 -0.1351 -0.3169
  871POPE   C1B11931   8.259   4.069   6.856  0.0194 -0.2108  0.0445
  871POPE   C2B11932   8.108   4.054   7.203 -0.1001 -0.2657 -0.0401
  871POPE   C3B11933   8.212   4.150   7.605 -0.2488 -0.0687  0.1608
  871POPE   C4B11934   8.185   4.039   8.010  0.0394  0.1854 -0.0513
  872YOPE   NH311935   3.742   9.648   5.150  0.0812 -0.4274 -0.0843
  872YOPE   PO411936   4.029   9.420   5.152  0.0548  0.1593 -0.2655
  872YOPE   GL111937   3.860   9.353   5.568  0.2221  0.0124  0.0964
  872YOPE   GL211938   3.627   9.611   5.631  0.2045  0.3845  0.1728
  872YOPE   C1A11939   3.974   9.467   6.038 -0.1623 -0.0564 -0.0739
  872YOPE   D2A11940   3.702   9.399   6.416 -0.0872 -0.1054 -0.5201
  872YOPE   C3A11941   3.794   9.388   6.856 -0.0216  0.0776  0.1299
  872YOPE   C4A11942   3.723   9.605   7.193  0.3108  0.1425  0.4019
  872YOPE   C1B11943   3.413   9.610   6.019 -0.1442 -0.2689 -0.0063
  872YOPE   C2B11944   3.170   9.622   6.440 -0.2876  0.0168  0.1607
  872YOPE   D3B11945   2.987   9.557   6.877  0.1458 -0.0686 -0.1014
  872YOPE   C4B11946   2.910   9.568   7.322 -0.0346 -0.2828 -0.0943
  873YOPE   NH311947   7.001   1.583   5.795 -0.0604  0.3097 -0.2756
  873YOPE   PO411948   7.081   2.043   5.732  0.0325  0.1223  0.0502
  873YOPE   GL111949   7.134   1.929   6.172 -0.2333 -0.2147  0.1665
  873YOPE   GL211950   7.405   2.219   6.323  0.0265 -0.1273  0.0528
  873YOPE   C1A11951   7.335   1.617   6.497 -0.0199  0.0649  0.1137
  873YOPE   D2A11952   7.602   1.639   6.812  0.0243 -0.3618  0.0574
  873YOPE   C3A11953   7.659   1.655   7.235 -0.2548 -0.3377 -0.1065
  873YOPE   C4A11954   7.665   1.463   7.602  0.3455 -0.2675  0.2643
  873YOPE   C1B11955   7.326   2.084   6.679  0.1153  0.1558 -0.1141
  873YOPE   C2B11956   7.160   2.210   6.973 -0.1133  0.3433  0.0440
  873YOPE   D3B11957   6.783   2.185   7.234 -0.1232 -0.1083  0.2846
  873YOPE   C4B11958   6.550   2.238   7.648  0.2531  0.0386 -0.0388
  874YOPE   NH311959   0.734  11.151   5.143  0.0568  0.0139 -0.0008
  874YOPE   PO411960   0.434  11.402   5.186 -0.2109 -0.0198  0.2127
  874YOPE   GL111961   0.497  11.308   5.628  0.1645 -0.3466 -0.0587
  874YOPE   GL211962   0.621  11.529   5.656  0.1194  0.0792  0.0220
  874YOPE   C1A11963   0.497  11.060   5.959 -0.0048 -0.4466  0.0365
  874YOPE   D2A11964   0.472  10.715   6.229  0.0718  0.0413  0.0545
  874YOPE   C3A11965   0.629  10.751   6.713 -0.0641  0.3600  0.0268
  874YOPE   C4A11966   0.918  11.131   6.963 -0.0995  0.0827 -0.1051
  874YOPE   C1B11967   0.732  11.463   6.190 -0.2949 -0.0902  0.0514
  874YOPE   C2B11968   0.880  11.504   6.568 -0.0146  0.0516 -0.1011
  874YOPE   D3B11969   0.987  11.652   7.002  0.0854  0.0956 -0.0066
  874YOPE   C4B11970   1.202  11.946   7.206 -0.0637 -0.1345 -0.2471
  875YOPE   NH311971  12.553  14.259   6.031 -0.0330 -0.0819 -0.3533
  875YOPE   PO411972  12.836  14.620   5.952 -0.0147  0.2491 -0.3054
  875YOPE   GL111973  12.820  14.671   6.320  0.0206  0.1939 -0.4168
  875YOPE   GL211974  13.047  14.714   6.540 -0.1699  0.5049 -0.2129
  875YOPE   C1A11975  12.859  14.295   6.735  0.0357 -0.1808  0.3533
  875YOPE   D2A11976  13.142  13.983   6.862 -0.0297 -0.0021 -0.1797
  875YOPE   C3A11977  13.390  14.051   7.170  0.0236  0.1452  0.2505
  875YOPE   C4A11978  13.590  13.839   7.488 -0.2705  0.4477 -0.3143
  875YOPE   C1B11979  13.169  14.617   6.950  0.1417 -0.3314 -0.0405
  875YOPE   C2B11980  13.148  14.523   7.433 -0.2799 -0.0104  0.0778
  875YOPE   D3B11981  13.295  14.330   7.811 -0.3213 -0.0435  0.2739
  875YOPE   C4B11982  12.970  14.065   8.075  0.0016 -0.0337 -0.1045
  876YOPE   NH311983  12.781   7.758   5.465 -0.2433 -0.1898  0.3754
  876YOPE   PO411984  12.814   7.910   5.901 -0.1597 -0.0047 -0.0962
  876YOPE   GL111985  12.764   7.710   6.309 -0.0157  0.0716  0.0534
  876YOPE   GL211986  12.821   7.398   6.290  0.0261 -0.0541  0.1127
  876YOPE   C1A11987  12.797   7.856   6.667  0.1814  0.1848 -0.2108
  876YOPE   D2A11988  12.894   8.039   6.935  0.2568 -0.2249  0.4694
  876YOPE   C3A11989  12.963   7.831   7.178 -0.0892 -0.0358  0.2853
  876YOPE   C4A11990  13.124   7.847   7.585 -0.1332  0.0550  0.1372
  876YOPE   C1B11991  13.001   7.387   6.698 -0.2516 -0.0192 -0.0417
  876YOPE   C2B11992  12.962   7.330   7.108 -0.1214  0.1979  0.0849
  876YOPE   D3B11993  12.756   7.409   7.534 -0.1199 -0.0246 -0.0146
  876YOPE   C4B11994  12.515   7.511   7.862 -0.1884  0.0136  0.2947
  877YOPE   NH311995   2.884  18.132   5.245  0.2458 -0.2004  0.1160
  877YOPE   PO411996   2.557  18.008   5.548  0.0607  0.1185 -0.0182
  877YOPE   GL111997   2.675  17.830   5.960 -0.0000 -0.1766 -0.1384
  877YOPE   GL211998   2.883  17.443   6.114 -0.2551  0.2023  0.1976
  877YOPE   C1A11999   2.362  17.527   6.207  0.0980  0.1058 -0.0704
  877YOPE   D2A12000   2.246  17.442   6.559  0.0430  0.0426  0.1726
  877YOPE   C3A12001   2.204  17.322   7.055 -0.0123  0.1613 -0.0095
  877YOPE   C4A12002   2.459  17.497   7.338  0.1948  0.3105 -0.0042
  877YOPE   C1B12003   2.893  17.491   6.545 -0.3280  0.1219 -0.1279
  877YOPE   C2B12004   3.012  17.522   6.899  0.1458 -0.3989 -0.1443
  877YOPE   D3B12005   3.075  17.848   7.215  0.1486 -0.1795  0.1261
  877YOPE   C4B12006   3.465  18.025   7.343  0.2001  0.5774 -0.1476
  878YOPE   NH312007   1.123   8.166   5.505 -0.0938 -0.0665 -0.1626
  878YOPE   PO412008   1.642   8.045   5.456  0.2057  0.1592  0.1673
  878YOPE   GL112009   1.604   7.862   5.799  0.0951 -0.0761  0.0515
  878YOPE   GL212010   1.952   7.762   5.978  0.1469 -0.1896  0.1136
  878YOPE   C1A12011   1.410   7.671   6.040  0.1258 -0.2240  0.0286
  878YOPE   D2A12012   1.165   7.616   6.341 -0.0760  0.1059  0.1644
  878YOPE   C3A12013   1.397   7.382   6.542  0.0975 -0.1643 -0.0013
  878YOPE   C4A12014   1.506   7.046   6.611  0.0040  0.3397 -0.1123
  878YOPE   C1B12015   1.830   7.587   6.253  0.1769  0.2039 -0.3837
  878YOPE   C2B12016   1.984   7.376   6.607  0.1719 -0.5579  0.0552
  878YOPE   D3B12017   2.017   7.047   6.879  0.2303 -0.3591 -0.0505
  878YOPE   C4B12018   2.050   6.639   7.217  0.3458  0.0394  0.0532
  879YOPE   NH312019  15.085  11.617   5.947  0.1063  0.3923 -0.0104
  879YOPE   PO412020  15.457  11.510   6.163 -0.1179 -0.0450  0.0936
  879YOPE   GL112021  15.685  11.225   6.337 -0.1178  0.0104  0.3500
  879YOPE   GL212022  15.439  10.914   6.386  0.0926  0.2085  0.1863
  879YOPE   C1A12023  15.865  11.014   6.591 -0.1193  0.0782 -0.0934
  879YOPE   D2A12024  16.018  10.921   6.979  0.3122  0.0839 -0.1067
  879YOPE   C3A12025  16.211  11.297   7.159 -0.2808 -0.0128  0.2413
  879YOPE   C4A12026  16.149  11.694   7.410  0.1901  0.2027  0.0428
  879YOPE   C1B12027  15.278  10.579   6.722 -0.0943  0.1902  0.1597
  879YOPE   C2B12028  15.382  10.289   7.115 -0.1710 -0.0859  0.0605
  879YOPE   D3B12029  15.406  10.196   7.522 -0.0672  0.0608  0.3193
  879YOPE   C4B12030  15.467  10.089   7.910  0.2510 -0.2392  0.3361
  880YOPE   NH312031   9.475   0.504   6.153 -0.1343 -0.0504  0.0188
  880YOPE   PO412032   9.449   0.888   6.492  0.3868 -0.0294 -0.1685
  880YOPE   GL112033   9.451   0.816   6.962  0.0919 -0.1329  0.0054
  880YOPE   GL212034   9.567   1.134   7.019 -0.0320 -0.5118 -0.4221
  880YOPE   C1A12035   9.249   0.814   7.333  0.0776 -0.3095  0.3657
  880YOPE   D2A12036   9.243   0.753   7.817 -0.1475  0.1804  0.3143
  880YOPE   C3A12037   9.387   0.416   8.178 -0.1278  0.2098 -0.0478
  880YOPE   C4A12038   9.713   0.232   8.276  0.0679 -0.4284 -0.2427
  880YOPE   C1B12039   9.523   1.226   7.373  0.0781 -0.1263  0.0307
  880YOPE   C2B12040   9.435   1.258   7.757  0.1707  0.2534  0.1967
  880YOPE   D3B12041   9.314   1.118   8.208  0.0712  0.1429  0.0766
  880YOPE   C4B12042   9.167   0.847   8.362  0.5724 -0.0649  0.2728
  881YOPE   NH312043   8.221   5.343   5.643 -0.0755 -0.1312 -0.1867
  881YOPE   PO412044   8.426   5.045   5.964  0.1681 -0.0285 -0.2402
  881YOPE   GL112045   8.417   5.118   6.408  0.0694  0.1082  0.0678
  881YOPE   GL212046   8.596   5.008   6.648  0.0869 -0.1050 -0.1999
  881YOPE   C1A12047   8.286   5.417   6.785  0.1750 -0.0911  0.0721
  881YOPE   D2A12048   8.296   5.332   7.164  0.0371  0.0894  0.2393
  881YOPE   C3A12049   8.018   5.188   7.395 -0.1565  0.0149 -0.0747
  881YOPE   C4A12050   7.940   4.971   7.712 -0.1252 -0.2435 -0.0891
  881YOPE   C1B12051   8.175   4.900   6.916 -0.4613  0.3115 -0.2117
  881YOPE   C2B12052   7.751   4.891   7.102  0.1821 -0.0640 -0.1014
  881YOPE   D3B12053   7.495   4.771   7.528 -0.1190 -0.1678 -0.0659
  881YOPE   C4B12054   7.318   4.541   7.556 -0.1304  0.0327 -0.2090
  882YOPE   NH312055   2.731   7.172   5.228 -0.0220 -0.2372 -0.0006
  882YOPE   PO412056   2.514   6.843   5.222  0.1203 -0.0448 -0.1473
  882YOPE   GL112057   2.478   6.958   5.644 -0.0491  0.0187 -0.0845
  882YOPE   GL212058   2.522   7.235   5.713  0.0964  0.1689 -0.1946
  882YOPE   C1A12059   2.589   6.830   6.067 -0.0928 -0.2411 -0.1909
  882YOPE   D2A12060   2.565   6.670   6.410  0.0034  0.2789 -0.0155
  882YOPE   C3A12061   2.991   6.673   6.660 -0.2448  0.2008 -0.2540
  882YOPE   C4A12062   3.117   6.576   7.092 -0.1595  0.4049 -0.0531
  882YOPE   C1B12063   2.630   7.310   6.100 -0.1576  0.1595 -0.0781
  882YOPE   C2B12064   2.609   7.146   6.475  0.0077 -0.0850 -0.0142
  882YOPE   D3B12065   2.562   6.933   6.800 -0.0655  0.2180  0.0767
  882YOPE   C4B12066   2.405   6.968   7.230  0.0994  0.1082  0.0262
  883YOPE   NH312067   4.240   2.117   5.605  0.1134 -0.0523  0.0593
  883YOPE   PO412068   4.065   2.513   5.711  0.0221 -0.0322  0.1572
  883YOPE   GL112069   4.216   2.274   6.110  0.1135 -0.0015  0.0528
  883YOPE   GL212070   4.299   1.919   6.132 -0.0000 -0.0514  0.0092
  883YOPE   C1A12071   4.229   2.121   6.587  0.2665 -0.1126 -0.2881
  883YOPE   D2A12072   4.230   1.990   6.993 -0.0524  0.1961 -0.2081
  883YOPE   C3A12073   4.354   2.243   7.371 -0.3637  0.3476 -0.1324
  883YOPE   C4A12074   4.493   2.499   7.699  0.3577  0.1131 -0.0228
  883YOPE   C1B12075   4.296   1.595   6.550 -0.0668 -0.1369  0.0797
  883YOPE   C2B12076   4.377   1.514   7.028 -0.2316 -0.0149  0.1775
  883YOPE   D3B12077   4.504   1.724   7.368  0.3513  0.0885 -0.0138
  883YOPE   C4B12078   4.720   2.071   7.748 -0.1596  0.3892 -0.1578
  884YOPE   NH312079  11.568  14.892   6.021  0.0589 -0.2260 -0.1904
  884YOPE   PO412080  11.235  15.211   5.923 -0.1042  0.1441 -0.0419
  884YOPE   GL112081  11.340  15.419   6.315 -0.0188  0.0999  0.2730
  884YOPE   GL212082  11.574  15.663   6.135  0.1965 -0.1597 -0.3222
  884YOPE   C1A12083  11.465  15.571   6.687 -0.3133  0.0176 -0.0206
  884YOPE   D2A12084  11.801  15.703   6.941 -0.0339  0.0285  0.1585
  884YOPE   C3A12085  11.792  15.917   7.214  0.0365  0.2182 -0.2175
  884YOPE   C4A12086  12.108  16.313   7.313 -0.0555  0.0902  0.3969
  884YOPE   C1B12087  11.744  15.945   6.477 -0.1902  0.2850 -0.2781
  884YOPE   C2B12088  11.574  16.322   6.649 -0.3322 -0.1296  0.0054
  884YOPE   D3B12089  11.654  16.449   7.106 -0.0603 -0.0360 -0.0464
  884YOPE   C4B12090  11.636  16.354   7.543 -0.0226  0.1376 -0.1794
  885YOPE   NH312091  18.526   9.287   4.922  0.1554  0.0291  0.3353
  885YOPE   PO412092  18.774   8.904   5.277 -0.0713 -0.4600 -0.2216
  885YOPE   GL112093  18.675   8.904   5.734  0.1314  0.0180  0.0780
  885YOPE   GL212094  19.005   9.027   5.721 -0.3480 -0.1628  0.0876
  885YOPE   C1A12095  18.602   8.626   5.996  0.2536  0.2071 -0.0481
  885YOPE   D2A12096  18.754   8.304   6.283 -0.1280  0.1926  0.0666
  885YOPE   C3A12097  18.832   8.223   6.653  0.0228 -0.0035 -0.0078
  885YOPE   C4A12098  18.791   8.262   7.058  0.2423  0.1026  0.2987
  885YOPE   C1B12099  19.098   8.653   6.052  0.2463 -0.2186 -0.3815
  885YOPE   C2B12100  19.237   8.421   6.388 -0.0953  0.1332  0.1572
  885YOPE   D3B12101  19.252   8.470   6.883 -0.1120  0.2098 -0.3401
  885YOPE   C4B12102  19.075   8.672   7.211  0.0538  0.1132 -0.0743
  886YOPE   NH312103  14.233  14.596   5.665 -0.3017  0.0610  0.1653
  886YOPE   PO412104  14.732  14.766   5.791 -0.1176 -0.0280  0.0755
  886YOPE   GL112105  14.727  14.799   6.241 -0.0790  0.0135  0.3586
  886YOPE   GL212106  14.490  14.810   6.442 -0.0981  0.0672  0.1711
  886YOPE   C1A12107  14.959  15.049   6.523 -0.0623 -0.4643 -0.1608
  886YOPE   D2A12108  15.202  15.331   6.725  0.0663 -0.0645 -0.4684
  886YOPE   C3A12109  15.197  15.204   7.047 -0.1470  0.0304 -0.3616
  886YOPE   C4A12110  15.070  14.826   7.134  0.0847 -0.1709  0.1925
  886YOPE   C1B12111  14.638  14.716   6.836 -0.1637 -0.1326 -0.2382
  886YOPE   C2B12112  14.577  14.710   7.320 -0.0872  0.2212 -0.0961
  886YOPE   D3B12113  14.532  14.362   7.711 -0.0994  0.1009 -0.2007
  886YOPE   C4B12114  14.294  14.266   8.091 -0.1837 -0.1404 -0.2639
  887YOPE   NH312115   3.841  12.430   5.431 -0.0802  0.0829 -0.0312
  887YOPE   PO412116   3.858  11.962   5.326 -0.2873  0.1010 -0.0522
  887YOPE   GL112117   3.642  12.046   5.752  0.0195 -0.0231  0.1979
  887YOPE   GL212118   3.913  12.197   5.864  0.0293 -0.3673 -0.0842
  887YOPE   C1A12119   3.317  12.063   6.021 -0.1535  0.0866 -0.1139
  887YOPE   D2A12120   2.903  12.029   6.327  0.1056 -0.0783 -0.0943
  887YOPE   C3A12121   2.973  11.914   6.742 -0.1192 -0.0598 -0.1382
  887YOPE   C4A12122   3.114  11.720   7.068  0.0425 -0.3910  0.2458
  887YOPE   C1B12123   3.774  12.197   6.257 -0.3641 -0.0600  0.2529
  887YOPE   C2B12124   3.798  12.115   6.761 -0.2049  0.1273 -0.0655
  887YOPE   D3B12125   3.805  12.185   7.247  0.1629  0.3917 -0.0765
  887YOPE   C4B12126   3.971  12.319   7.581 -0.0151  0.2657 -0.0831
  888YOPE   NH312127  15.083  12.629   5.652 -0.3242  0.2384  0.0712
  888YOPE   PO412128  14.894  12.993   5.632 -0.1581  0.0427 -0.0884
  888YOPE   GL112129  14.973  12.951   6.071 -0.1136 -0.0212  0.1215
  888YOPE   GL212130  14.992  13.266   6.054  0.1478  0.1821  0.0182
  888YOPE   C1A12131  14.817  12.829   6.510 -0.0732 -0.3093  0.2877
  888YOPE   D2A12132  14.902  12.778   6.889 -0.0448  0.4204 -0.0504
  888YOPE   C3A12133  14.709  12.988   7.241  0.0951  0.0840 -0.1558
  888YOPE   C4A12134  14.326  13.220   7.238 -0.0913  0.0995  0.2043
  888YOPE   C1B12135  15.265  13.117   6.412  0.1300  0.0296  0.0471
  888YOPE   C2B12136  15.509  13.096   6.742  0.0010 -0.2019  0.0877
  888YOPE   D3B12137  15.411  12.906   7.089 -0.1780  0.0277  0.2523
  888YOPE   C4B12138  15.138  13.165   7.383  0.0102 -0.0040  0.0313
  889YOPE   NH312139   1.114   1.527   5.830 -0.1171 -0.2297  0.1190
  889YOPE   PO412140   1.366   1.195   5.763  0.1735  0.2446  0.2878
  889YOPE   GL112141   1.701   1.404   6.026  0.0442  0.1747  0.0127
  889YOPE   GL212142   1.691   1.698   5.903 -0.1624  0.1553  0.0597
  889YOPE   C1A12143   1.773   1.399   6.446  0.3300  0.0593  0.0084
  889YOPE   D2A12144   1.889   1.175   6.851  0.2103  0.1750  0.0259
  889YOPE   C3A12145   1.839   1.148   7.304  0.0568 -0.0329 -0.2515
  889YOPE   C4A12146   1.662   0.922   7.582  0.0606 -0.0615 -0.0520
  889YOPE   C1B12147   1.645   1.867   6.414 -0.1227  0.1566 -0.0875
  889YOPE   C2B12148   1.550   2.011   6.779 -0.1970 -0.0040 -0.0710
  889YOPE   D3B12149   1.363   1.846   7.224  0.0135  0.0399 -0.0858
  889YOPE   C4B12150   1.469   1.440   7.487  0.2150 -0.1410  0.1812
  890YOPE   NH312151  18.212   4.615   4.976  0.1980 -0.4668 -0.0145
  890YOPE   PO412152  17.915   4.711   5.256 -0.3256 -0.0830 -0.0153
  890YOPE   GL112153  18.134   4.689   5.518 -0.1977 -0.1210  0.5490
  890YOPE   GL212154  18.288   4.958   5.558  0.1989 -0.1619 -0.0185
  890YOPE   C1A12155  18.289   4.615   5.904  0.3087 -0.2013 -0.1092
  890YOPE   D2A12156  18.197   4.675   6.303  0.0394  0.2025  0.0422
  890YOPE   C3A12157  18.338   4.878   6.656  0.0054 -0.0157 -0.1949
  890YOPE   C4A12158  18.605   4.825   7.029 -0.2132 -0.2207 -0.0721
  890YOPE   C1B12159  18.338   5.133   5.986  0.0948  0.1647  0.3916
  890YOPE   C2B12160  18.397   5.333   6.405  0.0249  0.0461 -0.1482
  890YOPE   D3B12161  18.429   5.430   6.876  0.0121 -0.0260 -0.0313
  890YOPE   C4B12162  18.452   5.824   7.123  0.0889 -0.3802  0.0749
  891YOPE   NH312163   7.704   6.751   6.024 -0.1563  0.2500  0.0643
  891YOPE   PO412164   7.412   6.952   5.962 -0.2854  0.3655  0.1141
  891YOPE   GL112165   7.162   7.230   6.086  0.2726  0.2318  0.2680
  891YOPE   GL212166   6.899   7.372   5.940  0.2409  0.0034 -0.0145
  891YOPE   C1A12167   7.147   7.347   6.461  0.0103 -0.2835 -0.2200
  891YOPE   D2A12168   7.070   7.472   6.983 -0.1129  0.0082  0.1132
  891YOPE   C3A12169   6.657   7.826   7.083 -0.3244  0.4381  0.4079
  891YOPE   C4A12170   6.514   8.036   7.432  0.1305 -0.0215  0.1978
  891YOPE   C1B12171   6.839   7.618   6.184  0.2033  0.2019 -0.0760
  891YOPE   C2B12172   6.700   7.643   6.575  0.0171 -0.2753 -0.1192
  891YOPE   D3B12173   6.577   7.381   6.807 -0.4548 -0.4812 -0.1470
  891YOPE   C4B12174   6.561   7.291   7.134 -0.0368  0.0294 -0.0545
  892YOPE   NH312175  10.823  14.929   5.944  0.0852 -0.1625 -0.3821
  892YOPE   PO412176  10.335  14.815   5.989 -0.1138 -0.0750 -0.1244
  892YOPE   GL112177  10.570  14.667   6.319 -0.0558  0.0615 -0.3913
  892YOPE   GL212178  10.651  15.005   6.405  0.1609  0.0754 -0.0224
  892YOPE   C1A12179  10.624  14.599   6.825  0.1021  0.1972  0.1940
  892YOPE   D2A12180  10.713  14.632   7.268 -0.0908 -0.2315 -0.4183
  892YOPE   C3A12181  10.724  14.727   7.769 -0.0502  0.0591 -0.2554
  892YOPE   C4A12182  10.602  14.430   8.130 -0.0231  0.4162 -0.0267
  892YOPE   C1B12183  10.797  15.017   6.735 -0.1096 -0.1436 -0.1563
  892YOPE   C2B12184  10.943  15.032   7.097  0.0048 -0.2914  0.4399
  892YOPE   D3B12185  11.067  15.012   7.493  0.1410 -0.0758  0.0707
  892YOPE   C4B12186  10.967  15.194   7.941 -0.0739 -0.0094 -0.0023
  893YOPE   NH312187   2.074  15.404   5.839 -0.1643 -0.0718 -0.1601
  893YOPE   PO412188   2.192  15.012   5.849  0.2592  0.1169 -0.1847
  893YOPE   GL112189   2.109  15.113   6.247  0.3098 -0.0161 -0.1527
  893YOPE   GL212190   1.870  14.998   6.230 -0.1308 -0.2470  0.2220
  893YOPE   C1A12191   2.067  15.124   6.720 -0.2162 -0.0612 -0.2926
  893YOPE   D2A12192   1.771  14.969   7.034 -0.1908  0.1609 -0.2088
  893YOPE   C3A12193   1.944  14.623   7.387  0.0928 -0.2473  0.0209
  893YOPE   C4A12194   1.815  14.720   7.842 -0.0868 -0.4440  0.3956
  893YOPE   C1B12195   1.708  14.617   6.479 -0.0924  0.1011 -0.0586
  893YOPE   C2B12196   1.742  14.476   6.858  0.0899 -0.0243  0.0865
  893YOPE   D3B12197   1.570  14.313   7.235  0.2533 -0.0333 -0.0293
  893YOPE   C4B12198   1.695  14.267   7.669 -0.2931 -0.1095  0.0441
  894YOPE   NH312199   0.889  15.340   5.496  0.4165 -0.2093 -0.0337
  894YOPE   PO412200   0.715  15.602   5.857 -0.0692  0.1168  0.2430
  894YOPE   GL112201   0.459  15.463   6.250  0.1728  0.1881  0.1579
  894YOPE   GL212202   0.484  15.154   6.302  0.0124 -0.0611 -0.0249
  894YOPE   C1A12203   0.204  15.737   6.513  0.0433 -0.0650  0.1246
  894YOPE   D2A12204  -0.114  15.865   6.700 -0.0102 -0.2112 -0.3884
  894YOPE   C3A12205  -0.199  16.245   6.605 -0.0314 -0.1421 -0.0628
  894YOPE   C4A12206   0.023  16.412   6.896  0.0908 -0.2186  0.0045
  894YOPE   C1B12207   0.528  15.267   6.769 -0.1281  0.0165 -0.1526
  894YOPE   C2B12208   0.788  15.182   7.188 -0.0987  0.0538 -0.0867
  894YOPE   D3B12209   0.885  15.013   7.629  0.1196  0.2319 -0.0200
  894YOPE   C4B12210   0.743  14.875   7.935 -0.0124 -0.0460  0.0035
  895YOPE   NH312211   0.075   2.189   5.768 -0.0819  0.1911  0.0723
  895YOPE   PO412212   0.318   1.928   5.763  0.1068 -0.1986 -0.0289
  895YOPE   GL112213   0.522   2.010   6.159 -0.1187  0.1438  0.2010
  895YOPE   GL212214   0.744   1.906   6.050  0.1914  0.0014  0.3798
  895YOPE   C1A12215   0.199   2.100   6.400 -0.0461 -0.0641  0.0102
  895YOPE   D2A12216   0.266   2.392   6.789  0.4091 -0.0669 -0.0364
  895YOPE   C3A12217  -0.011   2.385   7.051 -0.0200 -0.0361 -0.4613
  895YOPE   C4A12218  -0.122   2.042   7.330  0.1166  0.4831  0.1557
  895YOPE   C1B12219   0.778   1.793   6.511  0.0633  0.0174  0.0666
  895YOPE   C2B12220   0.997   1.849   6.849 -0.1780  0.2154 -0.0195
  895YOPE   D3B12221   0.840   1.818   7.249 -0.1738 -0.2219 -0.0578
  895YOPE   C4B12222   0.733   1.647   7.617  0.0764  0.2655 -0.0802
  896YOPE   NH312223  10.721   7.465   5.955 -0.2405  0.1496  0.0958
  896YOPE   PO412224  10.925   7.834   5.868 -0.1551 -0.1871 -0.0311
  896YOPE   GL112225  10.833   7.864   6.267  0.1541  0.0156 -0.5635
  896YOPE   GL212226  10.985   7.620   6.460 -0.1083 -0.0004 -0.1450
  896YOPE   C1A12227  10.669   7.958   6.595 -0.1324 -0.1000 -0.2322
  896YOPE   D2A12228  10.464   7.852   6.989  0.1793 -0.0213  0.0664
  896YOPE   C3A12229  10.488   7.761   7.331  0.3117  0.0772  0.3286
  896YOPE   C4A12230  10.220   7.793   7.632 -0.0312  0.1454  0.0083
  896YOPE   C1B12231  10.917   7.461   6.953  0.4441  0.1029 -0.0216
  896YOPE   C2B12232  10.694   6.987   7.179  0.0956  0.1286  0.2041
  896YOPE   D3B12233  10.760   6.913   7.610 -0.0938 -0.0802 -0.1381
  896YOPE   C4B12234  10.695   7.150   7.993  0.0621 -0.3414  0.3035
  897YOPE   NH312235   7.131   8.190   5.493 -0.1819  0.0017  0.1842
  897YOPE   PO412236   7.102   7.691   5.582  0.2587 -0.0480  0.0019
  897YOPE   GL112237   6.940   7.980   5.912 -0.1554 -0.0900 -0.0479
  897YOPE   GL212238   7.129   8.128   5.988  0.0204  0.2245 -0.0473
  897YOPE   C1A12239   6.680   8.223   6.266  0.2407  0.6601  0.1409
  897YOPE   D2A12240   6.545   8.133   6.628  0.0122  0.1234  0.0518
  897YOPE   C3A12241   6.209   8.201   7.007 -0.0471  0.0186 -0.0706
  897YOPE   C4A12242   6.017   8.053   7.286  0.1152  0.0101  0.4416
  897YOPE   C1B12243   7.181   8.387   6.299  0.0642 -0.2553  0.1069
  897YOPE   C2B12244   7.408   8.483   6.632  0.2298  0.2273  0.3648
  897YOPE   D3B12245   7.503   8.898   6.953 -0.0365 -0.1044  0.2156
  897YOPE   C4B12246   7.720   9.197   7.301  0.0815  0.0689 -0.0062
  898YOPE   NH312247  16.296  14.938   5.405 -0.1018  0.1727  0.1042
  898YOPE   PO412248  16.486  14.496   5.586  0.0928 -0.0320 -0.4278
  898YOPE   GL112249  16.481  14.307   6.011 -0.0857 -0.1262  0.0756
  898YOPE   GL212250  16.333  14.437   6.324  0.2362  0.1145  0.2272
  898YOPE   C1A12251  16.108  13.977   6.165  0.3384  0.2255 -0.2066
  898YOPE   D2A12252  15.930  13.568   6.261 -0.0394 -0.0242  0.1035
  898YOPE   C3A12253  15.496  13.534   6.525 -0.2264  0.0733 -0.2347
  898YOPE   C4A12254  15.023  13.552   6.500  0.1116  0.1106  0.1482
  898YOPE   C1B12255  16.457  14.536   6.683  0.0621 -0.1296  0.2767
  898YOPE   C2B12256  16.644  14.448   7.027 -0.2369 -0.1776 -0.4195
  898YOPE   D3B12257  16.854  14.633   7.294  0.0005 -0.2803  0.0904
  898YOPE   C4B12258  16.883  14.879   7.599 -0.0703  0.0183  0.1454
  899YOPE   NH312259  13.919  13.874   5.262 -0.1881 -0.0261  0.1349
  899YOPE   PO412260  14.134  14.154   5.408  0.1258  0.1914 -0.1228
  899YOPE   GL112261  14.013  14.109   5.799  0.0209  0.1274  0.0233
  899YOPE   GL212262  13.816  14.444   5.930  0.1653  0.0198  0.1891
  899YOPE   C1A12263  14.210  13.964   6.047 -0.0068  0.1239  0.2204
  899YOPE   D2A12264  14.466  13.690   6.248 -0.1978 -0.2665 -0.4566
  899YOPE   C3A12265  14.459  13.596   6.545  0.1838  0.4189 -0.0633
  899YOPE   C4A12266  14.543  13.250   6.769 -0.2120 -0.0309 -0.1042
  899YOPE   C1B12267  13.923  14.254   6.261 -0.2748 -0.0553 -0.1721
  899YOPE   C2B12268  14.101  13.974   6.681 -0.1469 -0.1343 -0.2346
  899YOPE   D3B12269  13.953  14.054   7.127  0.0581 -0.0244  0.5164
  899YOPE   C4B12270  14.138  14.018   7.576 -0.2649  0.1693 -0.0858
  900YOPE   NH312271   9.759   3.526   6.414  0.0085 -0.0534  0.1221
  900YOPE   PO412272   9.641   3.099   6.393  0.1795  0.0235  0.0122
  900YOPE   GL112273   9.329   3.125   6.529  0.2468 -0.2355  0.0315
  900YOPE   GL212274   9.102   2.931   6.423  0.1228 -0.0783 -0.1668
  900YOPE   C1A12275   9.338   3.133   6.978 -0.1778  0.1703 -0.2865
  900YOPE   D2A12276   9.458   2.995   7.353  0.2264 -0.1825  0.3718
  900YOPE   C3A12277   9.237   3.102   7.679 -0.3369 -0.0701 -0.2487
  900YOPE   C4A12278   9.119   3.261   8.027  0.1132  0.2731 -0.0796
  900YOPE   C1B12279   8.879   2.765   6.711 -0.1121 -0.1646  0.3418
  900YOPE   C2B12280   8.833   3.044   6.945 -0.2591  0.1299  0.4046
  900YOPE   D3B12281   8.919   3.226   7.320  0.2514 -0.0569 -0.0636
  900YOPE   C4B12282   8.693   3.284   7.765  0.0051  0.0736  0.0164
  901YOPE   NH312283   4.867  16.480   5.907 -0.0950 -0.0013 -0.0020
  901YOPE   PO412284   4.419  16.474   5.805 -0.0304  0.1289  0.1234
  901YOPE   GL112285   4.473  16.637   6.243 -0.2002 -0.1493  0.0324
  901YOPE   GL212286   4.236  16.855   6.254  0.2892  0.0476  0.3725
  901YOPE   C1A12287   4.566  16.493   6.685 -0.1556  0.2602  0.1248
  901YOPE   D2A12288   4.441  16.291   7.019 -0.1646 -0.0125 -0.0823
  901YOPE   C3A12289   4.471  15.906   7.281  0.1193  0.0259  0.2570
  901YOPE   C4A12290   4.660  15.675   7.621 -0.0937  0.1794 -0.1643
  901YOPE   C1B12291   4.199  16.932   6.729  0.2062  0.1453  0.0489
  901YOPE   C2B12292   4.320  16.774   7.061  0.0971  0.1284 -0.4152
  901YOPE   D3B12293   4.370  16.416   7.499  0.1175 -0.1173 -0.0278
  901YOPE   C4B12294   4.374  16.423   7.962  0.1336 -0.0972  0.1101
  902YOPE   NH312295  10.491  11.664   5.830 -0.0548 -0.2235  0.1251
  902YOPE   PO412296  10.124  11.526   5.657  0.0691  0.1513 -0.1776
  902YOPE   GL112297  10.107  11.418   6.093 -0.0094  0.0213 -0.2335
  902YOPE   GL212298  10.337  11.403   6.273 -0.0705 -0.0033 -0.2580
  902YOPE   C1A12299   9.774  11.461   6.399  0.4006 -0.0996  0.0736
  902YOPE   D2A12300   9.559  11.497   6.747  0.0018 -0.2636 -0.1625
  902YOPE   C3A12301   9.548  11.111   7.008 -0.0070 -0.1449  0.1736
  902YOPE   C4A12302   9.511  11.175   7.408  0.1970 -0.0914  0.1227
  902YOPE   C1B12303  10.073  11.282   6.757  0.0284 -0.2487  0.0238
  902YOPE   C2B12304   9.918  11.389   7.128 -0.5728 -0.0324  0.0462
  902YOPE   D3B12305   9.774  11.549   7.585  0.0326 -0.1046  0.2573
  902YOPE   C4B12306   9.872  11.851   7.836  0.3520 -0.1897  0.1794
  903YOPE   NH312307  10.269  15.896   5.809  0.1285  0.2816 -0.1856
  903YOPE   PO412308  10.651  15.826   5.869  0.1010  0.1281  0.4686
  903YOPE   GL112309  10.588  15.637   6.210  0.0371 -0.0943 -0.1857
  903YOPE   GL212310  10.806  15.497   6.275  0.1765 -0.0715  0.3194
  903YOPE   C1A12311  10.454  15.451   6.577  0.4351 -0.0472  0.0173
  903YOPE   D2A12312  10.611  15.371   7.037 -0.3528  0.1670 -0.0816
  903YOPE   C3A12313  10.711  15.335   7.506 -0.2149  0.0050 -0.0359
  903YOPE   C4A12314  10.401  15.452   7.797 -0.1425 -0.2302 -0.1999
  903YOPE   C1B12315  10.964  15.520   6.635 -0.3811  0.0441  0.1288
  903YOPE   C2B12316  11.017  15.584   6.885 -0.0192  0.0084 -0.0767
  903YOPE   D3B12317  11.155  15.555   7.170  0.0957  0.2807 -0.1659
  903YOPE   C4B12318  11.146  15.545   7.620 -0.0675 -0.2152 -0.2498
  904YOPE   NH312319  17.199  13.337   5.536  0.0259  0.0193 -0.0439
  904YOPE   PO412320  16.927  13.021   5.491 -0.0225  0.3033 -0.0994
  904YOPE   GL112321  16.866  13.012   5.887 -0.2800 -0.0441 -0.0821
  904YOPE   GL212322  16.935  12.666   6.024  0.1633 -0.0854 -0.0295
  904YOPE   C1A12323  17.035  13.300   6.187  0.1377  0.3698  0.0086
  904YOPE   D2A12324  17.084  13.596   6.598  0.0561  0.5417 -0.1544
  904YOPE   C3A12325  16.994  14.021   6.801 -0.0278  0.1668 -0.0181
  904YOPE   C4A12326  16.916  14.042   7.117  0.3034 -0.0495  0.1382
  904YOPE   C1B12327  17.115  12.557   6.446  0.1245 -0.1361  0.1670
  904YOPE   C2B12328  17.100  12.620   6.908 -0.2044 -0.2860  0.4729
  904YOPE   D3B12329  16.801  12.639   7.214 -0.1276 -0.2523 -0.1248
  904YOPE   C4B12330  16.453  12.517   7.418 -0.1861  0.0226  0.0848
  905YOPE   NH312331  17.728  17.011   5.816  0.1157  0.2622  0.0037
  905YOPE   PO412332  17.975  16.850   6.149  0.0651  0.2042 -0.1467
  905YOPE   GL112333  17.920  16.509   6.382  0.1984 -0.3046  0.0068
  905YOPE   GL212334  17.998  16.082   6.378  0.1497 -0.0565 -0.2082
  905YOPE   C1A12335  18.031  16.347   6.830  0.2603  0.4650 -0.1494
  905YOPE   D2A12336  18.246  16.270   7.170 -0.0247 -0.3190 -0.1385
  905YOPE   C3A12337  18.583  16.060   7.189 -0.1681  0.3408  0.0685
  905YOPE   C4A12338  18.917  16.101   7.489 -0.1557  0.0072 -0.3164
  905YOPE   C1B12339  18.028  15.785   6.738 -0.0826  0.2111  0.3157
  905YOPE   C2B12340  18.089  15.784   7.145  0.0089 -0.2127 -0.0352
  905YOPE   D3B12341  17.804  15.580   7.505  0.1868 -0.0077 -0.1706
  905YOPE   C4B12342  17.922  15.587   7.903  0.0080  0.0483  0.0630
  906YOPE   NH312343  17.076   5.779   5.157 -0.1612  0.3241  0.2851
  906YOPE   PO412344  16.762   5.606   5.337  0.0140  0.0525 -0.1825
  906YOPE   GL112345  16.935   5.836   5.603 -0.3012  0.0300  0.0849
  906YOPE   GL212346  16.698   5.948   5.799 -0.0419 -0.0289  0.3738
  906YOPE   C1A12347  17.182   5.648   5.880 -0.0886  0.0758 -0.0849
  906YOPE   D2A12348  17.245   5.564   6.259 -0.1133  0.0456  0.3240
  906YOPE   C3A12349  16.969   5.777   6.477 -0.1183  0.3681  0.0375
  906YOPE   C4A12350  16.818   6.023   6.780 -0.2636  0.2177 -0.0068
  906YOPE   C1B12351  16.958   6.115   6.123  0.7527  0.1366 -0.3400
  906YOPE   C2B12352  17.248   6.272   6.477  0.2475 -0.0353 -0.2351
  906YOPE   D3B12353  17.292   6.158   6.905  0.1783  0.0882  0.0636
  906YOPE   C4B12354  17.441   5.776   7.142 -0.0485  0.1789  0.0643
  907YOPE   NH312355   6.976   6.613   5.755  0.0307 -0.3627  0.0332
  907YOPE   PO412356   6.534   6.522   5.673 -0.1668 -0.1344  0.0679
  907YOPE   GL112357   6.605   6.785   6.055  0.0275  0.0530 -0.0002
  907YOPE   GL212358   6.849   6.873   6.252  0.1417  0.0330 -0.1773
  907YOPE   C1A12359   6.504   6.672   6.490  0.0256  0.0211 -0.1944
  907YOPE   D2A12360   6.363   6.563   6.865  0.2539 -0.4953  0.0838
  907YOPE   C3A12361   6.159   6.138   6.904  0.0720 -0.0777 -0.0475
  907YOPE   C4A12362   5.768   5.958   7.038 -0.2704 -0.3169  0.2462
  907YOPE   C1B12363   6.833   6.964   6.714  0.0311 -0.2069 -0.2166
  907YOPE   C2B12364   7.007   6.982   7.159 -0.1030 -0.1648 -0.1693
  907YOPE   D3B12365   6.773   7.175   7.531 -0.0353  0.0099 -0.1174
  907YOPE   C4B12366   6.828   7.248   7.933 -0.1948 -0.3278 -0.1719
  908YOPE   NH312367   0.940   2.842   5.249  0.2948  0.2765 -0.0088
  908YOPE   PO412368   0.865   3.222   5.498 -0.1949  0.0181 -0.1297
  908YOPE   GL112369   0.943   3.565   5.818  0.2729  0.1310  0.1743
  908YOPE   GL212370   1.010   3.954   5.742 -0.3454 -0.2893 -0.1171
  908YOPE   C1A12371   1.017   3.629   6.216 -0.3194  0.4430  0.0223
  908YOPE   D2A12372   0.858   3.839   6.523 -0.0538 -0.0033  0.2762
  908YOPE   C3A12373   1.002   3.789   6.901 -0.0683  0.1616 -0.0987
  908YOPE   C4A12374   1.392   3.776   7.169  0.1552 -0.1136  0.1338
  908YOPE   C1B12375   0.698   4.022   6.037 -0.1517  0.2023 -0.3022
  908YOPE   C2B12376   0.405   4.139   6.435 -0.1285 -0.1322 -0.3372
  908YOPE   D3B12377   0.190   4.381   6.804  0.0710  0.0667 -0.1088
  908YOPE   C4B12378  -0.060   4.351   7.208  0.0802  0.0925 -0.0985
  909YOPE   NH312379   9.062   1.956   5.920 -0.1602 -0.0381 -0.1125
  909YOPE   PO412380   9.339   1.758   6.274 -0.0892  0.2085  0.0407
  909YOPE   GL112381   9.016   1.795   6.724 -0.0039 -0.3933 -0.2767
  909YOPE   GL212382   8.803   1.567   6.685 -0.1379 -0.0743  0.1809
  909YOPE   C1A12383   9.013   1.761   7.195 -0.0020 -0.1359  0.0903
  909YOPE   D2A12384   9.072   1.821   7.672  0.1165  0.1021 -0.2427
  909YOPE   C3A12385   8.836   1.935   7.946 -0.0823 -0.0195 -0.0602
  909YOPE   C4A12386   8.787   1.800   8.333 -0.4721 -0.0669  0.2307
  909YOPE   C1B12387   8.460   1.562   7.093 -0.2537  0.0776  0.2374
  909YOPE   C2B12388   8.621   1.682   7.426  0.0262  0.2058 -0.1573
  909YOPE   D3B12389   8.392   1.683   7.863  0.3648 -0.0571  0.0293
  909YOPE   C4B12390   8.392   1.553   8.199 -0.0597  0.1678 -0.1503
  910YOPE   NH312391  10.684  12.149   5.840 -0.1753 -0.5617  0.1187
  910YOPE   PO412392  11.169  12.109   5.839 -0.2840  0.0195  0.0737
  910YOPE   GL112393  11.069  12.137   6.269 -0.0170  0.2576 -0.3506
  910YOPE   GL212394  11.356  12.011   6.376 -0.1081  0.0738 -0.0471
  910YOPE   C1A12395  11.050  12.073   6.757 -0.2995  0.1198 -0.0604
  910YOPE   D2A12396  11.262  12.061   7.112 -0.0145 -0.1699  0.1656
  910YOPE   C3A12397  10.864  12.078   7.325  0.0923  0.3567  0.1140
  910YOPE   C4A12398  10.535  12.038   7.629 -0.3093 -0.1847  0.1756
  910YOPE   C1B12399  11.258  11.643   6.432  0.0519  0.2203 -0.0979
  910YOPE   C2B12400  11.139  11.425   6.803  0.2778  0.2023 -0.1566
  910YOPE   D3B12401  11.114  11.482   7.233  0.1013 -0.3407  0.0029
  910YOPE   C4B12402  10.879  11.632   7.636 -0.2242  0.1221  0.0747
  911YOPE   NH312403   9.999   9.721   5.688  0.2996 -0.0768 -0.0957
  911YOPE   PO412404  10.447   9.789   5.864 -0.3786  0.0631  0.3823
  911YOPE   GL112405  10.645   9.704   6.156 -0.1021  0.0722  0.1178
  911YOPE   GL212406  10.863   9.468   6.334  0.1046 -0.1617 -0.0923
  911YOPE   C1A12407  10.568   9.744   6.690  0.3999  0.0888  0.1224
  911YOPE   D2A12408  10.432  10.056   7.145  0.0290  0.1948 -0.2511
  911YOPE   C3A12409  10.034  10.247   7.067  0.0316  0.0397 -0.2600
  911YOPE   C4A12410   9.681  10.053   6.880 -0.1425  0.0560 -0.1778
  911YOPE   C1B12411  11.248   9.599   6.607  0.0870 -0.1824  0.2307
  911YOPE   C2B12412  11.692   9.558   6.892  0.1737  0.0712 -0.1169
  911YOPE   D3B12413  11.518   9.667   7.333 -0.0869 -0.0765 -0.0645
  911YOPE   C4B12414  11.310   9.473   7.766  0.0496  0.2357 -0.1469
  912YOPE   NH312415  15.812   8.543   5.391  0.2951  0.1322 -0.0091
  912YOPE   PO412416  16.092   8.163   5.300  0.0212 -0.2490 -0.0498
  912YOPE   GL112417  15.954   8.186   5.703 -0.4894  0.3057  0.3535
  912YOPE   GL212418  15.723   8.417   5.888  0.0365  0.1098  0.1189
  912YOPE   C1A12419  15.962   8.013   6.112  0.1350 -0.2386 -0.3484
  912YOPE   D2A12420  15.983   7.987   6.513 -0.1748 -0.0618  0.2115
  912YOPE   C3A12421  15.911   8.267   6.728  0.2558 -0.3034 -0.0426
  912YOPE   C4A12422  16.061   8.592   7.088  0.0983  0.0045  0.1186
  912YOPE   C1B12423  15.790   8.536   6.282  0.1746 -0.1376  0.2930
  912YOPE   C2B12424  15.766   8.748   6.729  0.0526  0.0993  0.1267
  912YOPE   D3B12425  15.735   8.972   7.123  0.2490 -0.2158  0.0984
  912YOPE   C4B12426  16.084   9.006   7.462  0.1797 -0.3495 -0.0841
  913YOPE   NH312427   2.020  10.067   4.893 -0.2820  0.0082 -0.1939
  913YOPE   PO412428   1.967  10.502   5.149 -0.0760  0.3353  0.0509
  913YOPE   GL112429   2.227  10.638   5.463  0.2155 -0.0375 -0.1690
  913YOPE   GL212430   2.313  10.472   5.751 -0.0986 -0.3256 -0.0351
  913YOPE   C1A12431   2.072  10.837   5.872  0.2277  0.0587 -0.0353
  913YOPE   D2A12432   1.989  10.769   6.299  0.0925 -0.2055  0.1768
  913YOPE   C3A12433   2.244  10.822   6.591  0.2291  0.0236 -0.5640
  913YOPE   C4A12434   2.735  10.750   6.724  0.2622  0.0226  0.2281
  913YOPE   C1B12435   2.444  10.240   6.111 -0.1895  0.0625  0.3586
  913YOPE   C2B12436   2.398  10.341   6.562  0.3047  0.1412  0.0743
  913YOPE   D3B12437   2.472  10.407   6.940  0.2863 -0.0966  0.1098
  913YOPE   C4B12438   2.164  10.654   7.221 -0.0793  0.2950 -0.1887
  914YOPE   NH312439   8.307   2.442   5.878  0.0015  0.0097  0.3247
  914YOPE   PO412440   8.725   2.403   5.817 -0.1474 -0.1379 -0.2123
  914YOPE   GL112441   8.613   2.680   6.250 -0.1075 -0.1196  0.0478
  914YOPE   GL212442   8.615   2.513   6.405 -0.2113 -0.1855  0.0442
  914YOPE   C1A12443   8.333   2.955   6.515  0.0073 -0.0134  0.0923
  914YOPE   D2A12444   8.288   3.064   6.922 -0.4200  0.0316  0.2064
  914YOPE   C3A12445   8.476   3.369   7.022  0.2325 -0.3105 -0.4121
  914YOPE   C4A12446   8.148   3.557   7.114  0.2132  0.0296 -0.3738
  914YOPE   C1B12447   8.430   2.520   6.851 -0.2223 -0.0703 -0.1427
  914YOPE   C2B12448   8.432   2.718   7.272  0.0395 -0.1580 -0.2083
  914YOPE   D3B12449   8.399   3.088   7.446 -0.0378 -0.0882 -0.1765
  914YOPE   C4B12450   8.348   2.990   7.904 -0.0746 -0.0352  0.1929
  915YOPE   NH312451   2.729   2.918   5.478  0.2144 -0.1303  0.0404
  915YOPE   PO412452   2.395   3.177   5.311 -0.1322 -0.1069 -0.2987
  915YOPE   GL112453   2.440   3.317   5.738 -0.3614 -0.0191 -0.2339
  915YOPE   GL212454   2.309   3.024   5.902 -0.0925 -0.0198 -0.2080
  915YOPE   C1A12455   2.412   3.593   6.074 -0.3103  0.0253 -0.1094
  915YOPE   D2A12456   2.596   3.766   6.411  0.2365  0.0872 -0.0124
  915YOPE   C3A12457   2.986   3.620   6.684 -0.0108 -0.2423 -0.0002
  915YOPE   C4A12458   3.296   3.860   6.877  0.3294 -0.1947 -0.4063
  915YOPE   C1B12459   2.206   2.908   6.355  0.2737  0.0949 -0.3445
  915YOPE   C2B12460   2.472   2.801   6.670 -0.0828  0.0162 -0.1652
  915YOPE   D3B12461   2.518   2.743   7.034  0.1456  0.1295 -0.2887
  915YOPE   C4B12462   2.351   2.922   7.481  0.1845 -0.0680 -0.1639
  916YOPE   NH312463   8.768   9.710   5.664  0.0415 -0.0024 -0.1535
  916YOPE   PO412464   8.882   9.479   5.906 -0.2735  0.4290  0.2436
  916YOPE   GL112465   8.507   9.623   6.191  0.1166 -0.0014 -0.1907
  916YOPE   GL212466   8.222   9.634   5.967 -0.0150 -0.0690 -0.3018
  916YOPE   C1A12467   8.166   9.741   6.503 -0.2253 -0.0092 -0.0005
  916YOPE   D2A12468   8.130   9.901   6.966  0.1560  0.0353 -0.0340
  916YOPE   C3A12469   7.963   9.609   7.298 -0.0046 -0.0492 -0.3100
  916YOPE   C4A12470   8.133   9.428   7.635 -0.2108 -0.0095 -0.1747
  916YOPE   C1B12471   7.925   9.390   6.052  0.0230  0.2470 -0.1950
  916YOPE   C2B12472   7.527   9.327   6.278  0.0948  0.0518  0.0115
  916YOPE   D3B12473   7.175   9.410   6.451  0.2318 -0.0295  0.0954
  916YOPE   C4B12474   7.192   9.806   6.734 -0.0284 -0.1823  0.0808
  917YOPE   NH312475  11.119   5.144   6.184  0.2145  0.2598  0.0840
  917YOPE   PO412476  11.384   5.556   6.084 -0.1403 -0.4066  0.0382
  917YOPE   GL112477  11.412   5.570   6.506 -0.2101  0.1023  0.0899
  917YOPE   GL212478  11.505   5.247   6.485 -0.0170 -0.3689 -0.0304
  917YOPE   C1A12479  11.471   5.698   6.887  0.0748  0.2672  0.1268
  917YOPE   D2A12480  11.176   5.571   7.283 -0.1361  0.1207  0.1626
  917YOPE   C3A12481  10.931   5.212   7.343 -0.0039 -0.0109  0.1463
  917YOPE   C4A12482  10.805   4.963   6.989 -0.0454  0.1352  0.2398
  917YOPE   C1B12483  11.835   5.255   6.850 -0.0645 -0.0690  0.2402
  917YOPE   C2B12484  11.715   5.285   7.237  0.3341 -0.1715 -0.1126
  917YOPE   D3B12485  11.561   5.462   7.676 -0.1143  0.0632  0.0550
  917YOPE   C4B12486  11.423   5.670   8.109 -0.0783  0.0362  0.0205
  918YOPE   NH312487  17.866  15.622   5.463 -0.0597  0.1872 -0.1095
  918YOPE   PO412488  18.235  15.351   5.703 -0.0320 -0.0347 -0.1963
  918YOPE   GL112489  18.123  15.100   6.002 -0.0468  0.1623 -0.1693
  918YOPE   GL212490  17.748  15.074   5.995 -0.2568 -0.1522  0.4128
  918YOPE   C1A12491  18.255  14.851   6.332 -0.0857  0.3434  0.0431
  918YOPE   D2A12492  18.126  14.859   6.740 -0.1853  0.5475  0.2144
  918YOPE   C3A12493  18.419  14.948   6.826  0.0661 -0.0760 -0.0994
  918YOPE   C4A12494  18.812  14.862   6.954 -0.1408 -0.3659 -0.0274
  918YOPE   C1B12495  17.658  15.083   6.469  0.2047 -0.3023  0.2254
  918YOPE   C2B12496  17.602  15.071   6.929  0.1797 -0.0268  0.0794
  918YOPE   D3B12497  17.448  15.355   7.271  0.3163 -0.1261  0.2444
  918YOPE   C4B12498  17.027  15.296   7.414  0.0180  0.0074  0.1500
  919YOPE   NH312499   1.704   9.953   5.471 -0.2252 -0.1312  0.0277
  919YOPE   PO412500   2.116  10.087   5.409  0.0973  0.0261  0.3565
  919YOPE   GL112501   1.983  10.084   5.844  0.0597  0.0469 -0.3743
  919YOPE   GL212502   1.935   9.684   5.811 -0.2487 -0.0456 -0.0057
  919YOPE   C1A12503   2.014  10.139   6.252 -0.1485  0.0916 -0.5886
  919YOPE   D2A12504   1.846   9.982   6.614  0.4351  0.0233  0.0745
  919YOPE   C3A12505   2.124  10.057   6.955 -0.0204 -0.0669 -0.1753
  919YOPE   C4A12506   2.083  10.125   7.289  0.2319 -0.2368 -0.2212
  919YOPE   C1B12507   1.798   9.668   6.229  0.1314 -0.2284  0.2521
  919YOPE   C2B12508   1.477   9.620   6.557  0.0357 -0.0327  0.1295
  919YOPE   D3B12509   1.261   9.548   6.990 -0.2977 -0.2122  0.0222
  919YOPE   C4B12510   1.247   9.309   7.309  0.1627  0.0202 -0.1554
  920YOPE   NH312511  15.173   3.179   5.996  0.0011  0.1970  0.0075
  920YOPE   PO412512  14.896   3.298   5.623  0.0593 -0.2278 -0.0475
  920YOPE   GL112513  14.816   3.619   5.905 -0.2901 -0.2401  0.0326
  920YOPE   GL212514  14.766   3.488   6.172  0.0518  0.1682  0.1081
  920YOPE   C1A12515  14.749   4.052   6.150  0.1704 -0.0754 -0.2304
  920YOPE   D2A12516  14.714   4.394   6.396  0.0372 -0.2301  0.1860
  920YOPE   C3A12517  14.607   4.441   6.786 -0.2584  0.0072  0.2251
  920YOPE   C4A12518  14.729   4.777   7.043 -0.1111 -0.0457 -0.0355
  920YOPE   C1B12519  14.927   3.733   6.527  0.0734 -0.0395 -0.3613
  920YOPE   C2B12520  14.911   4.060   6.893 -0.0070  0.1866  0.0161
  920YOPE   D3B12521  14.964   4.203   7.242  0.0074  0.0142  0.1192
  920YOPE   C4B12522  14.754   4.441   7.538  0.2180  0.2396  0.1852
  921YOPE   NH312523  16.174   0.505   6.103 -0.0705 -0.0796  0.1207
  921YOPE   PO412524  16.560   0.795   5.927 -0.0251 -0.1566  0.1678
  921YOPE   GL112525  16.509   0.845   6.388 -0.4349 -0.0949  0.1893
  921YOPE   GL212526  16.833   0.852   6.448  0.6139  0.0952 -0.2856
  921YOPE   C1A12527  16.339   0.791   6.741 -0.0274  0.3613  0.3818
  921YOPE   D2A12528  16.363   0.739   7.136  0.0636 -0.2936 -0.2025
  921YOPE   C3A12529  16.662   1.026   7.348 -0.2665 -0.0920 -0.1004
  921YOPE   C4A12530  16.943   0.961   7.703  0.0507 -0.0486  0.0450
  921YOPE   C1B12531  16.746   1.053   6.797  0.1053 -0.0256 -0.2112
  921YOPE   C2B12532  16.809   1.445   7.077 -0.0926  0.2691  0.5950
  921YOPE   D3B12533  16.819   1.436   7.556 -0.1311  0.0004  0.4514
  921YOPE   C4B12534  16.993   1.631   7.929 -0.1595  0.2814  0.0360
  922YOPE   NH312535  16.133   7.684   5.378  0.1627  0.0543 -0.4840
  922YOPE   PO412536  16.503   7.466   5.376 -0.3696  0.0298  0.1831
  922YOPE   GL112537  16.689   7.490   5.789 -0.1898 -0.0436 -0.2808
  922YOPE   GL212538  16.496   7.304   5.966  0.3240  0.1306  0.2216
  922YOPE   C1A12539  17.038   7.609   6.128  0.0892 -0.0045 -0.0789
  922YOPE   D2A12540  16.973   7.673   6.485 -0.2051 -0.1239  0.1487
  922YOPE   C3A12541  17.053   7.823   6.896  0.0047  0.1253  0.1933
  922YOPE   C4A12542  16.849   8.045   7.293 -0.2188  0.2488 -0.2189
  922YOPE   C1B12543  16.688   7.214   6.339 -0.2683  0.1636 -0.1117
  922YOPE   C2B12544  16.923   7.240   6.707 -0.1154 -0.1364  0.1240
  922YOPE   D3B12545  17.086   7.372   7.200 -0.2048 -0.1485 -0.1965
  922YOPE   C4B12546  17.178   7.631   7.684 -0.0661 -0.0267 -0.0564
  923YOPE   NH312547   8.610  11.502   5.720 -0.4733  0.2037  0.1929
  923YOPE   PO412548   8.728  11.071   5.594 -0.0074 -0.0577 -0.1479
  923YOPE   GL112549   8.543  10.846   5.738  0.2723 -0.0665 -0.4150
  923YOPE   GL212550   8.438  10.558   5.756 -0.0947 -0.1650  0.1645
  923YOPE   C1A12551   8.510  10.925   6.170 -0.2443 -0.0026  0.3168
  923YOPE   D2A12552   8.679  10.891   6.616 -0.1528 -0.2476 -0.1549
  923YOPE   C3A12553   8.582  10.926   7.084  0.0041  0.2002  0.0969
  923YOPE   C4A12554   8.695  11.079   7.465  0.0631  0.1623 -0.4187
  923YOPE   C1B12555   8.190  10.500   6.102 -0.5242 -0.1439  0.1463
  923YOPE   C2B12556   7.842  10.491   6.354  0.0780 -0.2934  0.2410
  923YOPE   D3B12557   7.556  10.679   6.765 -0.0753  0.1650 -0.1385
  923YOPE   C4B12558   7.295  10.985   7.045  0.1160 -0.2043  0.1803
  924YOPE   NH312559   6.407   3.030   5.393 -0.0723  0.0306 -0.1413
  924YOPE   PO412560   6.151   3.280   5.693  0.2514 -0.1625  0.1607
  924YOPE   GL112561   6.105   3.332   6.033 -0.0661  0.3427 -0.0735
  924YOPE   GL212562   6.255   3.135   6.406 -0.0616  0.1269  0.1587
  924YOPE   C1A12563   5.837   3.465   6.449 -0.2636  0.4833  0.1412
  924YOPE   D2A12564   5.792   3.293   6.832  0.1363 -0.0083  0.1255
  924YOPE   C3A12565   6.107   3.228   6.974 -0.0321  0.2171  0.0480
  924YOPE   C4A12566   6.314   3.180   7.331  0.1572 -0.0038 -0.1382
  924YOPE   C1B12567   6.351   2.808   6.681  0.0337  0.0466 -0.0233
  924YOPE   C2B12568   6.377   2.696   7.090  0.1552  0.2051 -0.2008
  924YOPE   D3B12569   6.641   2.665   7.418  0.2548 -0.1960  0.3733
  924YOPE   C4B12570   6.731   2.827   7.774  0.0387 -0.0646  0.4273
  925YOPE   NH312571  12.668   8.319   5.738  0.1648 -0.1419 -0.3307
  925YOPE   PO412572  12.318   8.245   6.053  0.1954 -0.0689 -0.0255
  925YOPE   GL112573  12.486   8.243   6.502  0.0305  0.1537 -0.0605
  925YOPE   GL212574  12.777   8.326   6.359  0.0169 -0.0715 -0.0555
  925YOPE   C1A12575  12.517   8.337   6.862  0.0442 -0.2112  0.1637
  925YOPE   D2A12576  12.136   8.355   7.131  0.0644  0.1091  0.1125
  925YOPE   C3A12577  12.091   8.227   7.512 -0.2960  0.0059  0.1304
  925YOPE   C4A12578  12.034   7.764   7.695 -0.1584  0.0736 -0.1077
  925YOPE   C1B12579  12.999   8.517   6.623 -0.0140  0.0012  0.4641
  925YOPE   C2B12580  12.894   8.565   7.063 -0.1704 -0.0020 -0.3259
  925YOPE   D3B12581  12.618   8.391   7.351  0.3791  0.0262 -0.0375
  925YOPE   C4B12582  12.438   8.497   7.785  0.0663 -0.4300  0.0704
  926YOPE   NH312583  10.938  16.595   5.961  0.1625 -0.0725 -0.0683
  926YOPE   PO412584  10.664  16.309   5.942 -0.0025 -0.2724 -0.0242
  926YOPE   GL112585  10.522  16.467   6.232 -0.3040 -0.0957 -0.1539
  926YOPE   GL212586  10.117  16.460   6.166  0.2011  0.0795 -0.1232
  926YOPE   C1A12587  10.600  16.589   6.650  0.1678 -0.1272 -0.0924
  926YOPE   D2A12588  10.737  16.592   7.057 -0.1215 -0.2252 -0.2285
  926YOPE   C3A12589  10.546  16.629   7.367  0.1060 -0.1579 -0.1995
  926YOPE   C4A12590  10.470  16.969   7.536  0.0733  0.2949 -0.1254
  926YOPE   C1B12591  10.115  16.364   6.552  0.0585 -0.0337 -0.0537
  926YOPE   C2B12592  10.200  16.300   6.971 -0.0043  0.0756 -0.1829
  926YOPE   D3B12593  10.298  16.204   7.472  0.0317 -0.4274 -0.0054
  926YOPE   C4B12594  10.439  16.110   7.966  0.1798  0.0374  0.0210
  927YOPE   NH312595   2.147   8.872   5.316  0.0529 -0.2224  0.0358
  927YOPE   PO412596   2.250   9.261   5.480  0.0141 -0.0857 -0.1338
  927YOPE   GL112597   2.337   9.090   5.792 -0.0720 -0.0335 -0.2565
  927YOPE   GL212598   2.675   9.111   5.713 -0.0743 -0.0380  0.0171
  927YOPE   C1A12599   2.321   9.083   6.149  0.1572 -0.0198  0.1353
  927YOPE   D2A12600   2.332   9.036   6.562  0.1908  0.0438 -0.0591
  927YOPE   C3A12601   2.553   9.188   6.923  0.1407 -0.1844 -0.2997
  927YOPE   C4A12602   2.869   9.118   7.125  0.1369  0.1510 -0.3925
  927YOPE   C1B12603   2.840   8.923   6.043  0.0337  0.2014 -0.1513
  927YOPE   C2B12604   3.042   8.559   6.194  0.0084 -0.1404  0.2480
  927YOPE   D3B12605   3.025   8.306   6.429 -0.4259 -0.0464 -0.1032
  927YOPE   C4B12606   2.923   8.202   6.813 -0.3336  0.1609  0.1114
  928YOPE   NH312607   1.529  10.827   5.105  0.1482 -0.1468 -0.2524
  928YOPE   PO412608   1.057  10.704   5.067  0.2518  0.1987 -0.1178
  928YOPE   GL112609   1.217  10.953   5.444  0.2469  0.0839 -0.2484
  928YOPE   GL212610   1.033  11.242   5.543 -0.1097 -0.2651  0.0483
  928YOPE   C1A12611   1.420  10.898   5.876  0.1270  0.1785  0.0725
  928YOPE   D2A12612   1.410  10.877   6.275 -0.0854 -0.0973  0.1172
  928YOPE   C3A12613   1.621  10.534   6.523 -0.0413 -0.0202 -0.0936
  928YOPE   C4A12614   1.936  10.501   6.787  0.0086  0.0961  0.2876
  928YOPE   C1B12615   0.952  11.129   5.872 -0.1656 -0.1950 -0.2218
  928YOPE   C2B12616   0.921  11.022   6.408  0.2142  0.0102  0.2486
  928YOPE   D3B12617   1.138  10.782   6.672 -0.0659  0.0336  0.1779
  928YOPE   C4B12618   1.460  10.784   7.008 -0.2531  0.3682  0.1408
  929YOPE   NH312619   2.212   0.050   5.272  0.2751  0.0040  0.0109
  929YOPE   PO412620   2.361   0.516   5.198  0.0893  0.0897  0.0703
  929YOPE   GL112621   2.161   0.702   5.629 -0.2525 -0.0356  0.2159
  929YOPE   GL212622   2.142   1.030   5.726 -0.0521 -0.2219  0.0230
  929YOPE   C1A12623   1.988   0.588   6.018 -0.0428  0.0455  0.0405
  929YOPE   D2A12624   2.051   0.396   6.353  0.0313 -0.2207 -0.1598
  929YOPE   C3A12625   1.800   0.039   6.571  0.1391 -0.0752  0.1468
  929YOPE   C4A12626   1.565   0.076   6.979 -0.1755 -0.1351  0.0322
  929YOPE   C1B12627   2.313   0.962   6.096  0.0718 -0.2484 -0.2702
  929YOPE   C2B12628   2.709   1.086   6.130  0.1616 -0.2881 -0.1029
  929YOPE   D3B12629   3.132   0.850   6.081  0.2418  0.0069 -0.0131
  929YOPE   C4B12630   3.094   0.349   5.971  0.0580  0.2199 -0.1033
  930YOPE   NH312631   8.929  16.672   5.408 -0.0183 -0.2489  0.1843
  930YOPE   PO412632   8.543  16.756   5.580 -0.1161  0.1986  0.1020
  930YOPE   GL112633   8.429  16.762   6.052 -0.0758 -0.0547 -0.2308
  930YOPE   GL212634   8.568  16.944   6.282 -0.1500 -0.1209  0.2016
  930YOPE   C1A12635   8.152  16.595   6.379  0.0403  0.1379  0.0785
  930YOPE   D2A12636   7.754  16.291   6.468  0.0124  0.3923 -0.0164
  930YOPE   C3A12637   7.368  16.372   6.481  0.0536 -0.0696  0.2796
  930YOPE   C4A12638   7.184  16.886   6.528  0.0453  0.0663  0.0708
  930YOPE   C1B12639   8.712  16.656   6.628  0.4834 -0.2578 -0.0559
  930YOPE   C2B12640   8.793  16.242   6.827 -0.1223  0.1030  0.0586
  930YOPE   D3B12641   8.575  15.950   7.143 -0.0565  0.0194 -0.4322
  930YOPE   C4B12642   8.287  16.057   7.477  0.1251  0.1225 -0.0675
  931YOPE   NH312643  18.098   0.908   5.860  0.2147  0.0544 -0.0054
  931YOPE   PO412644  17.689   0.871   5.981 -0.0905  0.1483 -0.0441
  931YOPE   GL112645  17.818   1.186   6.186 -0.0527 -0.2897 -0.3121
  931YOPE   GL212646  17.589   1.053   6.502  0.2345 -0.1778 -0.0195
  931YOPE   C1A12647  17.719   1.478   6.640 -0.3000 -0.0386  0.3196
  931YOPE   D2A12648  17.759   1.454   7.083  0.3016 -0.1335  0.0535
  931YOPE   C3A12649  18.126   1.343   7.261 -0.1579  0.1960  0.1859
  931YOPE   C4A12650  18.491   1.563   7.553  0.1587 -0.1810  0.1248
  931YOPE   C1B12651  17.637   0.973   7.021  0.0364 -0.0110  0.0735
  931YOPE   C2B12652  17.691   1.076   7.509 -0.1879  0.0189 -0.0706
  931YOPE   D3B12653  17.729   1.190   8.028 -0.2007  0.0520  0.0645
  931YOPE   C4B12654  17.757   1.404   8.371  0.1376  0.0823 -0.1549
  932YOPE   NH312655   2.263   4.598   5.121  0.0380  0.1256  0.1823
  932YOPE   PO412656   1.846   4.469   4.834  0.0877  0.0307 -0.1957
  932YOPE   GL112657   1.768   4.601   5.188  0.2310  0.0326  0.1686
  932YOPE   GL212658   1.864   4.463   5.427 -0.2642 -0.0439  0.1336
  932YOPE   C1A12659   1.401   4.667   5.551  0.0940  0.1933 -0.1026
  932YOPE   D2A12660   1.239   5.097   5.686 -0.0768 -0.0282 -0.0600
  932YOPE   C3A12661   1.720   5.272   5.804  0.2985 -0.0355  0.0703
  932YOPE   C4A12662   2.124   5.252   5.751 -0.0554 -0.0875  0.1779
  932YOPE   C1B12663   1.834   4.821   5.632 -0.1909  0.0138  0.0375
  932YOPE   C2B12664   1.589   4.826   6.021 -0.1386  0.0658 -0.1426
  932YOPE   D3B12665   1.784   4.883   6.363  0.3801 -0.0193  0.0647
  932YOPE   C4B12666   1.855   4.776   6.704 -0.1258 -0.3151 -0.0431
  933YOPE   NH312667  17.977   5.964   4.786 -0.0434  0.2101 -0.0813
  933YOPE   PO412668  17.604   5.767   5.001  0.1547  0.2044 -0.1959
  933YOPE   GL112669  17.821   5.968   5.349  0.0155 -0.1760  0.0831
  933YOPE   GL212670  18.121   5.933   5.523  0.0853  0.0325 -0.2799
  933YOPE   C1A12671  17.635   6.084   5.706 -0.2668 -0.2399  0.3665
  933YOPE   D2A12672  17.528   6.051   6.131  0.2979  0.1326  0.1415
  933YOPE   C3A12673  17.760   6.099   6.459  0.1228 -0.0779 -0.1573
  933YOPE   C4A12674  17.777   6.079   6.904 -0.2230 -0.0372  0.0357
  933YOPE   C1B12675  18.107   6.027   5.988  0.1191 -0.1443  0.0482
  933YOPE   C2B12676  18.271   6.129   6.377 -0.4606  0.1126  0.0397
  933YOPE   D3B12677  18.342   6.174   6.809  0.1700 -0.0251  0.0317
  933YOPE   C4B12678  18.479   6.432   7.220  0.1045 -0.2400 -0.1433
  934YOPE   NH312679  14.552  18.136   6.137  0.2521 -0.1997  0.3186
  934YOPE   PO412680  14.657  17.786   6.427 -0.0869 -0.0265 -0.3856
  934YOPE   GL112681  14.677  17.663   6.716  0.2298 -0.0947  0.0952
  934YOPE   GL212682  14.444  17.901   6.949  0.1330  0.1356  0.0145
  934YOPE   C1A12683  15.085  17.547   6.854  0.1260 -0.0948  0.1179
  934YOPE   D2A12684  15.395  17.226   6.905 -0.3721 -0.0332 -0.0797
  934YOPE   C3A12685  15.383  16.697   6.870 -0.1451 -0.1813  0.0933
  934YOPE   C4A12686  15.192  16.461   7.214  0.1549  0.0339  0.0527
  934YOPE   C1B12687  14.870  17.954   7.096  0.3625 -0.0538  0.0173
  934YOPE   C2B12688  15.270  17.824   7.276 -0.0109 -0.0476 -0.3554
  934YOPE   D3B12689  15.309  17.602   7.694  0.1506 -0.1172  0.3294
  934YOPE   C4B12690  15.068  17.313   7.964 -0.1172 -0.2220 -0.1654
  935YOPE   NH312691   5.770  14.567   5.991  0.1057  0.0233  0.3304
  935YOPE   PO412692   5.674  15.051   5.937 -0.0846 -0.0779 -0.0004
  935YOPE   GL112693   5.780  15.143   6.409 -0.0473 -0.0491  0.1735
  935YOPE   GL212694   5.524  15.091   6.606 -0.0692 -0.0558  0.1716
  935YOPE   C1A12695   5.908  15.336   6.765 -0.3012  0.0375 -0.4121
  935YOPE   D2A12696   5.994  15.422   7.134 -0.0563 -0.1412  0.1287
  935YOPE   C3A12697   6.158  15.315   7.533  0.1067 -0.1113 -0.0415
  935YOPE   C4A12698   6.403  15.337   7.985 -0.0100 -0.1051 -0.1170
  935YOPE   C1B12699   5.571  15.111   7.069  0.1782 -0.0353 -0.1153
  935YOPE   C2B12700   5.618  15.395   7.489 -0.1132  0.0513  0.1169
  935YOPE   D3B12701   5.450  15.537   7.867 -0.0057  0.1754  0.1994
  935YOPE   C4B12702   5.037  15.507   8.058 -0.5325  0.1171  0.1152
  936YOPE   NH312703  10.144   6.551   6.274 -0.1599  0.1312  0.0694
  936YOPE   PO412704  10.207   6.142   6.089  0.0861  0.1832 -0.0096
  936YOPE   GL112705  10.057   6.062   6.499 -0.3121 -0.0787  0.0744
  936YOPE   GL212706   9.803   5.855   6.485 -0.0357  0.2806  0.3237
  936YOPE   C1A12707  10.326   5.902   6.886 -0.0817 -0.1069  0.2285
  936YOPE   D2A12708  10.713   5.976   7.104  0.3126  0.2695  0.4412
  936YOPE   C3A12709  10.806   5.889   7.411  0.3026 -0.1269 -0.3150
  936YOPE   C4A12710  10.899   5.531   7.750 -0.0335 -0.0332 -0.2657
  936YOPE   C1B12711   9.824   5.905   6.960 -0.1368 -0.0430  0.0265
  936YOPE   C2B12712   9.701   6.170   7.347  0.2060 -0.1109 -0.0812
  936YOPE   D3B12713   9.372   6.142   7.718  0.0829  0.0794 -0.0410
  936YOPE   C4B12714   9.147   6.061   7.979 -0.3735  0.2031  0.0723
  937YOPE   NH312715  18.240  14.775   5.647  0.1119  0.1744 -0.1337
  937YOPE   PO412716  18.598  15.031   5.608 -0.1417 -0.0487 -0.0101
  937YOPE   GL112717  18.613  15.206   6.124 -0.0006 -0.1050 -0.0236
  937YOPE   GL212718  18.391  15.545   6.192 -0.0882  0.2233 -0.2352
  937YOPE   C1A12719  18.655  15.221   6.551 -0.0855 -0.0297 -0.0892
  937YOPE   D2A12720  18.482  15.440   6.958  0.0460 -0.0365 -0.0698
  937YOPE   C3A12721  18.543  15.183   7.259 -0.0328  0.1123 -0.1569
  937YOPE   C4A12722  18.546  14.830   7.415  0.1208  0.1142 -0.3130
  937YOPE   C1B12723  18.127  15.314   6.477 -0.0817  0.1410 -0.0152
  937YOPE   C2B12724  18.012  15.288   6.985  0.1774 -0.3276 -0.1326
  937YOPE   D3B12725  17.879  15.045   7.364 -0.4101  0.0075 -0.1643
  937YOPE   C4B12726  18.191  15.082   7.664  0.3285 -0.0545 -0.4070
  938YOPE   NH312727  12.831  15.662   6.218  0.0383  0.3443 -0.0210
  938YOPE   PO412728  13.245  15.847   6.301  0.1278  0.1274 -0.1033
  938YOPE   GL112729  13.549  15.872   6.586  0.0210 -0.2106  0.1982
  938YOPE   GL212730  13.676  16.225   6.678  0.1762 -0.0611 -0.0581
  938YOPE   C1A12731  13.824  15.872   7.041 -0.1909 -0.0805 -0.0087
  938YOPE   D2A12732  13.859  15.960   7.409 -0.1672  0.0794  0.1879
  938YOPE   C3A12733  13.667  15.963   7.721 -0.0899 -0.1129  0.0065
  938YOPE   C4A12734  13.511  15.705   8.116  0.0046  0.1458  0.1021
  938YOPE   C1B12735  13.656  16.312   7.052  0.1815  0.1917 -0.1654
  938YOPE   C2B12736  13.433  16.361   7.484 -0.0310  0.0432 -0.2291
  938YOPE   D3B12737  13.018  16.486   7.681  0.0663 -0.0710 -0.1839
  938YOPE   C4B12738  12.861  16.472   8.103  0.0839 -0.1841  0.0684
  939YOPE   NH312739   5.259  13.870   5.825  0.2495 -0.2086 -0.2966
  939YOPE   PO412740   5.365  14.290   6.089 -0.0650  0.0557  0.1938
  939YOPE   GL112741   5.326  14.340   6.527  0.1006  0.0566  0.0523
  939YOPE   GL212742   5.546  14.627   6.412 -0.3421 -0.0506 -0.3557
  939YOPE   C1A12743   5.430  14.263   6.987  0.2542  0.4061  0.1470
  939YOPE   D2A12744   5.598  14.238   7.405  0.1018 -0.3133  0.1413
  939YOPE   C3A12745   5.433  14.114   7.674 -0.1988 -0.1526 -0.0903
  939YOPE   C4A12746   5.443  14.239   8.092 -0.0585 -0.0596 -0.0535
  939YOPE   C1B12747   5.776  14.591   6.896  0.2943 -0.1792  0.0610
  939YOPE   C2B12748   5.871  14.846   7.424 -0.2150  0.0001  0.1351
  939YOPE   D3B12749   6.045  14.978   7.835 -0.0872 -0.2221  0.1146
  939YOPE   C4B12750   6.040  14.933   8.216 -0.1297  0.1326  0.3071
  940YOPE   NH312751   9.754   2.676   6.199  0.1464 -0.0194  0.0860
  940YOPE   PO412752  10.017   2.380   6.277 -0.1230  0.0348  0.2821
  940YOPE   GL112753  10.199   2.397   6.734 -0.2583  0.1312  0.0337
  940YOPE   GL212754  10.060   2.069   6.892  0.0910 -0.0014  0.2585
  940YOPE   C1A12755  10.415   2.560   7.075  0.1384 -0.0676  0.1284
  940YOPE   D2A12756  10.614   2.612   7.462  0.0713 -0.2120  0.2055
  940YOPE   C3A12757  10.389   2.959   7.679 -0.0785 -0.0614  0.0327
  940YOPE   C4A12758  10.161   3.242   7.913 -0.1218  0.2672  0.1056
  940YOPE   C1B12759  10.121   2.134   7.291 -0.1640 -0.3364  0.0675
  940YOPE   C2B12760  10.202   2.419   7.552 -0.2297 -0.0412 -0.4895
  940YOPE   D3B12761  10.174   2.678   8.005  0.0509  0.1103 -0.0818
  940YOPE   C4B12762   9.963   2.780   8.260  0.2333 -0.1550  0.0412
  941YOPE   NH312763   0.509   4.043   5.205  0.1523 -0.1923 -0.0913
  941YOPE   PO412764   0.562   3.737   5.351  0.2776 -0.0372 -0.1020
  941YOPE   GL112765   0.266   3.829   5.775  0.2482 -0.2480 -0.0330
  941YOPE   GL212766   0.406   3.597   5.992  0.0901  0.0935 -0.0671
  941YOPE   C1A12767   0.049   4.085   6.086 -0.1254 -0.2733 -0.0623
  941YOPE   D2A12768  -0.010   4.429   6.364 -0.2164  0.0438 -0.0659
  941YOPE   C3A12769   0.120   4.891   6.212  0.1669  0.0125  0.4830
  941YOPE   C4A12770   0.364   5.318   5.903  0.0147  0.1842  0.1377
  941YOPE   C1B12771   0.325   3.665   6.413 -0.1702 -0.1968 -0.0091
  941YOPE   C2B12772   0.462   3.827   6.855  0.0272  0.0662  0.1050
  941YOPE   D3B12773   0.533   3.919   7.321 -0.1938 -0.0315 -0.1553
  941YOPE   C4B12774   0.562   3.824   7.783 -0.0075  0.0843  0.2265
  942POPC   NC312775   6.644   0.062   5.366  0.1749 -0.3888  0.0740
  942POPC   PO412776   6.327   0.226   5.645  0.0415  0.2310 -0.0949
  942POPC   GL112777   6.368   0.417   6.108 -0.0485  0.2379 -0.1015
  942POPC   GL212778   6.135   0.273   6.132  0.0014 -0.1217  0.2659
  942POPC   C1A12779   6.495   0.625   6.559  0.1717 -0.3302 -0.3592
  942POPC   D2A12780   6.609   0.618   6.970 -0.0592 -0.1909  0.3926
  942POPC   C3A12781   6.973   0.442   7.225 -0.0976 -0.1140 -0.1508
  942POPC   C4A12782   7.223   0.580   7.558 -0.0822 -0.4156  0.1336
  942POPC   C1B12783   6.141   0.323   6.532  0.4055 -0.1371  0.1519
  942POPC   C2B12784   6.064   0.497   6.933 -0.1291 -0.0500 -0.1001
  942POPC   C3B12785   6.137   0.753   7.332 -0.1816  0.0600  0.3665
  942POPC   C4B12786   6.369   0.975   7.690  0.0373  0.3037  0.0842
  943POPC   NC312787   8.094   0.617   5.837 -0.2140  0.2287 -0.4903
  943POPC   PO412788   7.932   0.279   5.894  0.0547  0.1330 -0.1115
  943POPC   GL112789   8.006   0.345   6.306 -0.2295 -0.0581 -0.0524
  943POPC   GL212790   7.827   0.611   6.383 -0.0492  0.0243  0.0089
  943POPC   C1A12791   7.913   0.224   6.697 -0.1217  0.0495 -0.2838
  943POPC   D2A12792   7.784   0.251   7.022  0.0198  0.1837  0.0743
  943POPC   C3A12793   7.964   0.054   7.443 -0.0051 -0.1286 -0.0838
  943POPC   C4A12794   7.931  -0.332   7.697  0.1204 -0.2098  0.2585
  943POPC   C1B12795   7.552   0.647   6.741 -0.1563 -0.1791 -0.3757
  943POPC   C2B12796   7.418   0.567   7.132  0.0962  0.1296 -0.1797
  943POPC   C3B12797   7.404   0.192   7.404 -0.2340  0.2170 -0.0830
  943POPC   C4B12798   7.188   0.032   7.762  0.0884 -0.1870  0.0540
  944POPC   NC312799  18.126   6.765   4.755 -0.0892  0.0167 -0.1680
  944POPC   PO412800  18.364   6.377   4.766 -0.0882 -0.2390  0.0328
  944POPC   GL112801  18.568   6.454   5.147 -0.0463  0.1646 -0.4594
  944POPC   GL212802  18.972   6.432   5.320  0.1736  0.0176  0.0579
  944POPC   C1A12803  18.622   6.677   5.538  0.2370  0.0317  0.0061
  944POPC   D2A12804  18.598   7.151   5.666  0.1218  0.1459 -0.2693
  944POPC   C3A12805  18.278   7.245   5.395 -0.3004 -0.1618 -0.0900
  944POPC   C4A12806  17.938   7.438   5.649  0.0152 -0.4113  0.4604
  944POPC   C1B12807  19.046   6.444   5.753  0.1746  0.1920  0.3421
  944POPC   C2B12808  19.027   6.371   6.155 -0.0992 -0.1834 -0.1345
  944POPC   C3B12809  18.830   6.292   6.501 -0.0163  0.1153  0.2583
  944POPC   C4B12810  18.853   6.090   6.843  0.1243 -0.0972  0.1436
  945POPC   NC312811  15.360   3.067   5.359  0.0264  0.0993  0.2890
  945POPC   PO412812  15.520   2.714   5.791  0.0630  0.1594 -0.4303
  945POPC   GL112813  15.558   2.857   6.185  0.0059 -0.0598  0.0690
  945POPC   GL212814  15.217   2.754   6.267  0.1055  0.0564 -0.0211
  945POPC   C1A12815  15.630   3.120   6.440 -0.1261 -0.1283 -0.0482
  945POPC   D2A12816  15.775   3.126   6.823 -0.4218  0.1547 -0.2132
  945POPC   C3A12817  15.838   3.493   7.085  0.0374  0.0232  0.3541
  945POPC   C4A12818  16.166   3.778   7.330  0.2812 -0.1602  0.2377
  945POPC   C1B12819  15.322   2.807   6.755  0.2965 -0.3877 -0.0778
  945POPC   C2B12820  15.378   3.027   7.157  0.1814  0.0104  0.1191
  945POPC   C3B12821  15.609   3.223   7.426  0.0886  0.0570  0.0959
  945POPC   C4B12822  15.715   3.633   7.523  0.1047 -0.0156  0.4562
  946POPC   NC312823  13.676   2.942   5.795 -0.2494 -0.0101  0.3101
  946POPC   PO412824  14.032   2.924   5.837  0.2813  0.0849 -0.1459
  946POPC   GL112825  14.193   2.675   6.093 -0.1730  0.2847  0.0864
  946POPC   GL212826  14.131   2.462   6.183 -0.0261 -0.3371 -0.1335
  946POPC   C1A12827  14.474   2.793   6.440  0.1101 -0.2602 -0.0805
  946POPC   D2A12828  14.754   2.833   6.801 -0.0556  0.1019  0.3344
  946POPC   C3A12829  14.923   2.897   7.231  0.5301  0.0518 -0.4890
  946POPC   C4A12830  15.122   2.677   7.534 -0.0985  0.0045  0.2009
  946POPC   C1B12831  14.202   2.425   6.664 -0.2295 -0.3362  0.1472
  946POPC   C2B12832  14.439   2.494   7.053 -0.1357 -0.0015 -0.0320
  946POPC   C3B12833  14.697   2.367   7.432  0.0950  0.0273 -0.0046
  946POPC   C4B12834  14.845   2.307   7.835  0.3518  0.1229  0.0992
  947POPC   NC312835   0.386   6.646   4.870 -0.0294  0.0009 -0.0074
  947POPC   PO412836   0.709   6.300   4.903  0.1488  0.0405  0.0048
  947POPC   GL112837   0.835   6.570   5.195 -0.0276 -0.1216  0.1322
  947POPC   GL212838   1.132   6.619   5.124 -0.3320  0.6365  0.0913
  947POPC   C1A12839   1.023   6.767   5.617 -0.2817  0.0711  0.0535
  947POPC   D2A12840   0.762   6.734   6.000 -0.1548  0.2022  0.2866
  947POPC   C3A12841   0.872   6.580   6.328  0.0367 -0.1167  0.2208
  947POPC   C4A12842   0.906   6.308   6.729 -0.1171 -0.2945 -0.2471
  947POPC   C1B12843   1.475   6.588   5.632 -0.0485  0.1464  0.2471
  947POPC   C2B12844   1.682   6.690   5.886  0.0986 -0.2528 -0.2517
  947POPC   C3B12845   2.107   6.517   5.960  0.0673 -0.1998 -0.0356
  947POPC   C4B12846   2.275   6.212   5.792 -0.0909 -0.0315 -0.3732
  948POPC   NC312847  18.087  13.505   5.597  0.0921  0.3171  0.1559
  948POPC   PO412848  17.667  13.358   5.454  0.1937 -0.0700  0.0813
  948POPC   GL112849  17.653  13.388   5.850 -0.1536  0.1009 -0.1402
  948POPC   GL212850  17.505  13.674   5.952  0.0482  0.0552 -0.1103
  948POPC   C1A12851  17.502  13.353   6.369 -0.1526 -0.0151 -0.0511
  948POPC   D2A12852  17.348  13.023   6.674 -0.0177 -0.0668  0.1531
  948POPC   C3A12853  17.675  12.867   6.938  0.1238  0.2086 -0.5101
  948POPC   C4A12854  17.802  12.793   7.394  0.0200  0.0602 -0.6961
  948POPC   C1B12855  17.343  13.893   6.271  0.0535  0.1129 -0.2278
  948POPC   C2B12856  17.579  13.980   6.567 -0.1771  0.5241 -0.0279
  948POPC   C3B12857  17.462  14.173   6.944  0.3088 -0.2163 -0.1095
  948POPC   C4B12858  17.341  14.392   7.178  0.0255 -0.0445  0.1064
  949POPC   NC312859  17.693   5.178   5.200 -0.0841  0.0439  0.0416
  949POPC   PO412860  17.484   4.880   5.320  0.0318 -0.1772  0.1255
  949POPC   GL112861  17.579   4.974   5.672  0.1935 -0.4912  0.2069
  949POPC   GL212862  17.821   4.992   5.802 -0.0422  0.0451 -0.2013
  949POPC   C1A12863  17.394   5.110   6.005 -0.1957 -0.0950  0.2089
  949POPC   D2A12864  17.401   5.032   6.420 -0.0476  0.0575  0.0249
  949POPC   C3A12865  17.505   5.336   6.740  0.0384 -0.5949  0.0257
  949POPC   C4A12866  17.463   5.748   6.643  0.3151 -0.1185  0.1591
  949POPC   C1B12867  17.886   5.004   6.137  0.4981 -0.1508 -0.2212
  949POPC   C2B12868  17.887   5.048   6.496 -0.1216  0.0196 -0.2324
  949POPC   C3B12869  18.059   5.135   6.976  0.1200  0.0586 -0.1627
  949POPC   C4B12870  18.179   4.889   7.436 -0.1725 -0.1954  0.0164
  950POPC   NC312871  14.780   6.032   5.073  0.0629 -0.0882 -0.3361
  950POPC   PO412872  15.139   5.967   5.370 -0.1723  0.0906 -0.0216
  950POPC   GL112873  15.110   6.130   5.875 -0.0282 -0.2500 -0.2582
  950POPC   GL212874  15.215   6.448   5.855  0.1342  0.2134 -0.2188
  950POPC   C1A12875  15.347   6.070   6.280  0.2215 -0.1625  0.0158
  950POPC   D2A12876  15.632   6.076   6.554  0.1176  0.0922 -0.1581
  950POPC   C3A12877  15.793   6.110   6.910 -0.1502 -0.1356  0.0662
  950POPC   C4A12878  15.858   6.139   7.436 -0.0845 -0.1294  0.3295
  950POPC   C1B12879  15.016   6.496   6.281  0.0287 -0.1207 -0.0389
  950POPC   C2B12880  15.019   6.541   6.635 -0.2602 -0.2514  0.3345
  950POPC   C3B12881  15.150   6.831   7.014 -0.7324  0.1790  0.1686
  950POPC   C4B12882  15.092   7.152   7.339 -0.2069  0.1362  0.2607
  951POPC   NC312883   5.251   6.509   5.469  0.0320 -0.3076 -0.3442
  951POPC   PO412884   5.108   6.951   5.587 -0.0137  0.0492  0.1535
  951POPC   GL112885   5.083   6.985   6.051 -0.0089  0.4760 -0.1062
  951POPC   GL212886   4.950   6.834   6.173 -0.0331 -0.1915 -0.1503
  951POPC   C1A12887   5.114   7.296   6.373  0.1112 -0.0557 -0.0078
  951POPC   D2A12888   5.108   7.276   6.768  0.0413 -0.3742  0.1137
  951POPC   C3A12889   5.072   6.990   7.069  0.2116  0.2565  0.1592
  951POPC   C4A12890   4.937   6.688   7.373  0.2924  0.1726 -0.2480
  951POPC   C1B12891   5.181   6.671   6.575  0.1021 -0.0299 -0.0440
  951POPC   C2B12892   5.145   6.455   6.992 -0.0744 -0.2207  0.0936
  951POPC   C3B12893   5.476   6.400   7.312  0.2877  0.0533  0.2149
  951POPC   C4B12894   5.554   6.555   7.650 -0.1037 -0.0496  0.2518
  952POPC   NC312895   3.795   2.341   5.331 -0.0554 -0.0886 -0.0585
  952POPC   PO412896   3.781   2.122   5.774  0.1324 -0.1961  0.1340
  952POPC   GL112897   3.590   2.200   6.134  0.0714  0.0624  0.0012
  952POPC   GL212898   3.325   2.367   6.196 -0.0203 -0.1638  0.2960
  952POPC   C1A12899   3.752   2.260   6.465 -0.0461  0.2810 -0.4054
  952POPC   D2A12900   3.734   2.045   6.835  0.0235  0.1757  0.1301
  952POPC   C3A12901   3.838   2.216   7.312  0.0608 -0.1204  0.1204
  952POPC   C4A12902   3.997   2.514   7.614  0.0060  0.1126  0.0173
  952POPC   C1B12903   3.301   2.230   6.642  0.1337  0.5612 -0.0377
  952POPC   C2B12904   3.307   2.158   7.090  0.0844 -0.2203  0.1388
  952POPC   C3B12905   3.296   2.097   7.431  0.0368  0.1028 -0.0913
  952POPC   C4B12906   3.080   2.281   7.732  0.0870 -0.0499  0.4853
  953POPC   NC312907  12.937  11.745   5.689 -0.0097  0.1436 -0.1117
  953POPC   PO412908  12.595  12.042   5.806  0.1333  0.2741  0.0187
  953POPC   GL112909  12.443  12.364   6.117 -0.0307 -0.0465  0.0349
  953POPC   GL212910  12.206  12.669   6.245  0.0403  0.1905  0.0640
  953POPC   C1A12911  12.397  12.396   6.629  0.0727 -0.0766  0.1698
  953POPC   D2A12912  12.347  12.399   7.051  0.1575  0.0997  0.0417
  953POPC   C3A12913  12.385  12.597   7.377 -0.0446  0.0422  0.1341
  953POPC   C4A12914  12.350  12.852   7.698 -0.0879  0.0970 -0.1231
  953POPC   C1B12915  12.154  13.088   6.317 -0.1897  0.2099 -0.0296
  953POPC   C2B12916  12.275  13.475   6.512 -0.0655  0.1131  0.2874
  953POPC   C3B12917  12.310  13.486   6.989  0.1008 -0.0402 -0.0683
  953POPC   C4B12918  12.278  13.567   7.474 -0.1336  0.0335  0.2531
  954POPC   NC312919   3.489   9.840   4.789 -0.0050  0.0432 -0.1825
  954POPC   PO412920   3.211   9.517   5.199 -0.3442 -0.4416  0.2665
  954POPC   GL112921   3.082   9.571   5.612  0.1228  0.0018 -0.2959
  954POPC   GL212922   3.176   9.813   5.629 -0.1455  0.1246  0.0283
  954POPC   C1A12923   2.867   9.472   5.976 -0.3072  0.4798  0.0743
  954POPC   D2A12924   2.731   9.297   6.430 -0.0559  0.2326  0.2565
  954POPC   C3A12925   2.848   8.861   6.563  0.0461 -0.1282 -0.3016
  954POPC   C4A12926   3.163   8.698   6.845  0.0563  0.2545 -0.4207
  954POPC   C1B12927   2.982   9.967   5.956  0.0665 -0.0524 -0.1941
  954POPC   C2B12928   2.818  10.037   6.396  0.0142 -0.0676  0.1462
  954POPC   C3B12929   2.776  10.028   6.749  0.2013  0.1822 -0.1298
  954POPC   C4B12930   2.957  10.196   7.217  0.1359 -0.1802  0.1599
  955POPC   NC312931  11.514  10.397   5.620  0.0729 -0.0935  0.1345
  955POPC   PO412932  11.395  10.678   5.829  0.4070 -0.0991  0.1216
  955POPC   GL112933  11.344  10.935   6.313 -0.2101  0.1238 -0.3743
  955POPC   GL212934  11.413  11.183   6.400 -0.1031 -0.0847  0.1544
  955POPC   C1A12935  11.168  10.874   6.716 -0.1829 -0.0457 -0.1052
  955POPC   D2A12936  10.917  11.057   7.089  0.1727 -0.2693  0.0557
  955POPC   C3A12937  11.130  11.099   7.555  0.1340  0.4077  0.1845
  955POPC   C4A12938  10.972  11.167   7.998  0.0527  0.2055 -0.0332
  955POPC   C1B12939  11.591  11.242   6.756  0.0872 -0.0637  0.0345
  955POPC   C2B12940  11.461  11.159   7.164 -0.0020  0.1653  0.0878
  955POPC   C3B12941  11.598  10.979   7.642  0.3066 -0.2509  0.0639
  955POPC   C4B12942  11.809  11.207   7.872 -0.2553 -0.0575 -0.3640
  956POPC   NC312943   5.689   4.008   5.567 -0.0914  0.2353 -0.1686
  956POPC   PO412944   5.368   4.293   5.646  0.2911 -0.2403 -0.0029
  956POPC   GL112945   5.580   4.417   5.946  0.0703  0.1573  0.0788
  956POPC   GL212946   5.636   4.101   6.077  0.1537  0.0437  0.3300
  956POPC   C1A12947   5.890   4.429   6.283 -0.2038  0.0721 -0.1787
  956POPC   D2A12948   5.875   4.419   6.660  0.0698  0.0032 -0.1152
  956POPC   C3A12949   5.890   4.808   6.806 -0.3343  0.2093  0.1797
  956POPC   C4A12950   5.639   5.126   6.911  0.0962  0.1782  0.1120
  956POPC   C1B12951   5.450   4.192   6.508 -0.2547  0.1577  0.1600
  956POPC   C2B12952   5.280   4.154   6.833 -0.2433  0.4273 -0.2518
  956POPC   C3B12953   5.401   4.146   7.348  0.0857 -0.4101  0.2508
  956POPC   C4B12954   5.365   4.457   7.646 -0.1470 -0.1306 -0.1316
  957POPC   NC312955   1.610  16.817   5.942 -0.0611 -0.1303 -0.1689
  957POPC   PO412956   2.034  16.600   5.845  0.0308 -0.0983  0.1365
  957POPC   GL112957   2.106  16.608   6.222 -0.2539  0.2559 -0.2704
  957POPC   GL212958   2.427  16.498   6.318 -0.6870 -0.1083  0.2409
  957POPC   C1A12959   1.706  16.652   6.580  0.0346 -0.2206 -0.1006
  957POPC   D2A12960   1.292  16.455   6.772 -0.0902  0.1407  0.1099
  957POPC   C3A12961   1.382  16.462   7.205 -0.0399 -0.1174 -0.1268
  957POPC   C4A12962   1.285  16.442   7.631  0.1313  0.1035 -0.2781
  957POPC   C1B12963   2.365  16.474   6.708  0.0866 -0.1370 -0.0889
  957POPC   C2B12964   2.336  16.338   7.238  0.0392 -0.1766 -0.2123
  957POPC   C3B12965   2.531  16.069   7.485 -0.1067  0.1434  0.2883
  957POPC   C4B12966   2.713  15.813   7.769  0.1546 -0.0015 -0.2854
  958POPC   NC312967  10.541  17.826   6.066 -0.0956 -0.2619  0.1130
  958POPC   PO412968  11.003  17.910   6.181  0.0366  0.0444 -0.2169
  958POPC   GL112969  10.822  17.900   6.542  0.1131 -0.0419 -0.0535
  958POPC   GL212970  10.450  18.053   6.502 -0.0873 -0.0248  0.1891
  958POPC   C1A12971  10.763  17.873   6.967 -0.2399 -0.0222 -0.1171
  958POPC   D2A12972  10.679  17.908   7.343  0.3901 -0.0216 -0.2387
  958POPC   C3A12973  10.727  17.724   7.750  0.3340  0.0152  0.1521
  958POPC   C4A12974  10.470  17.798   8.106  0.4656 -0.1153 -0.3649
  958POPC   C1B12975  10.297  17.876   6.952  0.4373  0.1959  0.1201
  958POPC   C2B12976  10.131  17.824   7.271  0.1191  0.0683  0.1972
  958POPC   C3B12977  10.282  17.924   7.677  0.3405  0.5067  0.2910
  958POPC   C4B12978   9.970  17.977   7.875 -0.0018  0.0005 -0.2730
  959POPC   NC312979  12.009  14.275   5.557 -0.0012  0.2461 -0.1009
  959POPC   PO412980  12.073  14.310   5.993  0.1994 -0.0051 -0.2383
  959POPC   GL112981  11.702  14.207   6.250  0.0709 -0.2087 -0.0077
  959POPC   GL212982  11.902  14.131   6.394  0.3830  0.0850 -0.0782
  959POPC   C1A12983  11.525  14.478   6.563  0.1127 -0.0730  0.1468
  959POPC   D2A12984  11.635  14.604   6.979  0.1025  0.2667 -0.2026
  959POPC   C3A12985  11.921  14.845   7.236  0.2912  0.2800 -0.0499
  959POPC   C4A12986  11.878  14.974   7.564  0.2576  0.3460  0.1950
  959POPC   C1B12987  12.022  14.282   6.798 -0.0848 -0.1150 -0.1584
  959POPC   C2B12988  12.085  14.380   7.277  0.0903  0.0297 -0.1600
  959POPC   C3B12989  12.221  14.646   7.765 -0.0767 -0.1568 -0.2753
  959POPC   C4B12990  12.048  14.785   8.128 -0.2250 -0.3141  0.0870
  960POPC   NC312991  12.947  17.855   6.386  0.0961 -0.0930 -0.0270
  960POPC   PO412992  13.291  18.109   6.308  0.2994  0.1888  0.1033
  960POPC   GL112993  13.294  18.017   6.789  0.2846 -0.1742  0.1402
  960POPC   GL212994  13.408  18.274   6.803  0.0700 -0.0095  0.3145
  960POPC   C1A12995  13.389  17.776   7.125 -0.1671 -0.2057 -0.1798
  960POPC   D2A12996  13.495  17.759   7.486 -0.0207  0.1051 -0.1945
  960POPC   C3A12997  13.214  17.733   7.889  0.1614 -0.1192 -0.0489
  960POPC   C4A12998  13.025  17.986   8.282 -0.1370 -0.0476 -0.1658
  960POPC   C1B12999  13.544  18.237   7.234 -0.0403 -0.3004 -0.0960
  960POPC   C2B13000  13.766  18.127   7.634  0.0440  0.0728 -0.1111
  960POPC   C3B13001  14.155  18.220   7.784  0.0821  0.0446 -0.2129
  960POPC   C4B13002  14.616  18.297   7.694 -0.1165 -0.1447 -0.3919
  961POPC   NC313003   4.423  14.372   5.903 -0.3161  0.1720 -0.0586
  961POPC   PO413004   4.796  14.574   6.074  0.1379  0.2284  0.1565
  961POPC   GL113005   4.882  14.334   6.359 -0.0542 -0.2276  0.0412
  961POPC   GL213006   4.481  14.181   6.376 -0.0878 -0.0868  0.0620
  961POPC   C1A13007   4.942  14.261   6.853  0.3109 -0.0694  0.1648
  961POPC   D2A13008   4.767  14.451   7.204  0.2905  0.1053 -0.1832
  961POPC   C3A13009   4.769  14.870   7.477 -0.1871 -0.0491 -0.0338
  961POPC   C4A13010   5.058  14.915   7.905 -0.2382 -0.1012  0.1809
  961POPC   C1B13011   4.483  13.852   6.714 -0.1243 -0.2539  0.2998
  961POPC   C2B13012   4.344  13.548   6.867  0.0808  0.1998 -0.1015
  961POPC   C3B13013   4.090  13.437   7.193  0.2497 -0.0453 -0.0078
  961POPC   C4B13014   3.706  13.196   7.291  0.1798  0.4145  0.0134
  962POPC   NC313015   3.900  15.420   5.893 -0.2933  0.1512  0.4365
  962POPC   PO413016   4.344  15.358   5.738 -0.0000 -0.0246  0.3004
  962POPC   GL113017   4.371  15.350   6.235 -0.1082 -0.2758  0.1227
  962POPC   GL213018   4.059  15.240   6.324 -0.0868 -0.2854 -0.0972
  962POPC   C1A13019   4.623  15.480   6.590 -0.1656  0.2018  0.2304
  962POPC   D2A13020   4.687  15.481   7.085  0.1395  0.2595 -0.0471
  962POPC   C3A13021   4.921  15.886   6.996 -0.1211  0.0556 -0.2493
  962POPC   C4A13022   4.951  16.364   7.177 -0.1681 -0.0176 -0.2467
  962POPC   C1B13023   4.133  15.270   6.773  0.1701  0.3029  0.0950
  962POPC   C2B13024   4.196  15.548   7.172 -0.0564 -0.0106 -0.0039
  962POPC   C3B13025   4.167  15.675   7.621 -0.3992 -0.0909 -0.1415
  962POPC   C4B13026   4.241  16.001   7.762  0.1321 -0.0134  0.2399
  963POPC   NC313027  12.662   5.224   5.656 -0.0901 -0.0479  0.1086
  963POPC   PO413028  12.661   4.848   5.940 -0.2480  0.1027 -0.0934
  963POPC   GL113029  12.885   4.822   6.241  0.3717 -0.0413 -0.0356
  963POPC   GL213030  12.978   4.462   6.382 -0.0778  0.2973  0.4058
  963POPC   C1A13031  13.183   4.875   6.561  0.1029  0.0317 -0.3633
  963POPC   D2A13032  13.259   4.949   7.032  0.0574 -0.2805  0.1187
  963POPC   C3A13033  13.267   5.067   7.398 -0.2512 -0.1758 -0.2299
  963POPC   C4A13034  13.564   5.357   7.681  0.0821 -0.0188 -0.3074
  963POPC   C1B13035  13.069   4.299   6.767  0.1024 -0.2026 -0.0734
  963POPC   C2B13036  13.491   4.424   6.851  0.0098 -0.0891 -0.0389
  963POPC   C3B13037  13.959   4.377   6.621  0.0733 -0.0442  0.1392
  963POPC   C4B13038  14.217   4.206   6.406 -0.0161 -0.1745 -0.0269
  964POPC   NC313039  13.540   1.017   5.708 -0.1887  0.2279 -0.2296
  964POPC   PO413040  13.407   0.817   6.033 -0.4024  0.0731 -0.2121
  964POPC   GL113041  13.484   0.866   6.475  0.0025  0.0281  0.1777
  964POPC   GL213042  13.222   0.901   6.527  0.0181  0.0423 -0.2074
  964POPC   C1A13043  13.512   1.285   6.628  0.1075 -0.0367 -0.2146
  964POPC   D2A13044  13.203   1.372   6.918 -0.1725 -0.0044 -0.2457
  964POPC   C3A13045  13.409   1.406   7.303 -0.0809  0.1488  0.1776
  964POPC   C4A13046  13.520   1.479   7.663  0.1477 -0.1561  0.0528
  964POPC   C1B13047  13.181   0.928   6.946  0.0923  0.0334  0.4319
  964POPC   C2B13048  13.111   0.897   7.341 -0.2055  0.1240 -0.1350
  964POPC   C3B13049  13.456   0.928   7.596 -0.2661 -0.3131 -0.1918
  964POPC   C4B13050  13.487   0.785   7.973 -0.0015  0.3126 -0.2750
  965POPC   NC313051  11.376   0.039   6.397  0.4191 -0.1315 -0.2825
  965POPC   PO413052  11.511   0.475   6.312  0.1326 -0.0634 -0.1025
  965POPC   GL113053  11.580   0.554   6.824 -0.1686 -0.1386  0.0354
  965POPC   GL213054  11.836   0.840   6.960  0.0563  0.0867  0.3500
  965POPC   C1A13055  11.614   0.513   7.223 -0.0372 -0.0759 -0.0525
  965POPC   D2A13056  11.715   0.497   7.663  0.3140  0.2237  0.0596
  965POPC   C3A13057  11.830   0.124   7.908  0.1005  0.3559 -0.4135
  965POPC   C4A13058  11.513  -0.022   8.226  0.4098  0.1374  0.0329
  965POPC   C1B13059  11.885   0.978   7.425  0.0855  0.0874 -0.2727
  965POPC   C2B13060  12.138   0.885   7.686 -0.1526  0.1748  0.2439
  965POPC   C3B13061  12.503   0.847   8.065  0.1676 -0.0827  0.0461
  965POPC   C4B13062  12.528   0.638   8.396 -0.2632  0.0120  0.2538
  966POPC   NC313063  13.813   0.366   6.233  0.2220  0.2279  0.0767
  966POPC   PO413064  14.197  -0.006   6.354 -0.0954 -0.4066  0.2959
  966POPC   GL113065  13.992   0.328   6.701  0.1017  0.0932  0.0985
  966POPC   GL213066  13.801   0.207   6.764 -0.1503  0.2322 -0.0321
  966POPC   C1A13067  14.204   0.536   7.024  0.4721 -0.2279  0.1224
  966POPC   D2A13068  14.093   0.707   7.365  0.0514 -0.0042 -0.1607
  966POPC   C3A13069  14.395   1.075   7.379 -0.0961  0.1324  0.1662
  966POPC   C4A13070  14.365   1.360   7.726  0.1378  0.0266 -0.0113
  966POPC   C1B13071  13.914   0.106   7.189  0.0530 -0.2386  0.2068
  966POPC   C2B13072  13.966  -0.040   7.460  0.0077  0.1439 -0.2261
  966POPC   C3B13073  13.869  -0.011   7.929 -0.0836  0.0094 -0.0920
  966POPC   C4B13074  13.785  -0.203   8.400  0.3535 -0.2906  0.2031
  967POPC   NC313075  17.513   8.956   4.787  0.3213 -0.1708 -0.0845
  967POPC   PO413076  17.394   8.574   4.590 -0.0170  0.0390 -0.6165
  967POPC   GL113077  17.266   8.535   5.112  0.0209 -0.1448  0.0311
  967POPC   GL213078  17.416   8.398   5.320  0.2886 -0.1444  0.0192
  967POPC   C1A13079  17.367   8.904   5.361  0.0918 -0.2435 -0.2880
  967POPC   D2A13080  17.700   9.207   5.406  0.1380  0.0452  0.2444
  967POPC   C3A13081  17.927   9.381   5.683 -0.1130 -0.2976  0.2944
  967POPC   C4A13082  17.984   9.856   5.810 -0.0568 -0.0636  0.0724
  967POPC   C1B13083  17.658   8.376   5.581 -0.1378  0.0787  0.3384
  967POPC   C2B13084  17.692   8.753   5.732  0.0338  0.1119 -0.0185
  967POPC   C3B13085  18.114   8.964   5.891 -0.0684  0.0963 -0.0128
  967POPC   C4B13086  18.386   8.979   6.283 -0.1835  0.0177  0.0968
  968POPC   NC313087  17.295  15.340   5.536  0.2018 -0.2299 -0.0268
  968POPC   PO413088  16.950  15.411   5.829  0.1326 -0.0655 -0.0424
  968POPC   GL113089  16.741  15.204   6.086  0.0058 -0.0095  0.0743
  968POPC   GL213090  16.556  14.920   6.048  0.5092  0.1158  0.1317
  968POPC   C1A13091  16.609  15.003   6.551  0.2393 -0.1742 -0.0183
  968POPC   D2A13092  16.651  14.979   6.968 -0.0175 -0.2309 -0.6127
  968POPC   C3A13093  16.516  15.066   7.407  0.1593  0.0366 -0.1486
  968POPC   C4A13094  16.376  14.989   7.838  0.0539 -0.0578 -0.1712
  968POPC   C1B13095  16.807  14.653   6.237 -0.1484  0.2583 -0.0454
  968POPC   C2B13096  16.974  14.654   6.617  0.1973 -0.1004  0.2834
  968POPC   C3B13097  17.124  14.885   7.015 -0.0500  0.0098  0.1959
  968POPC   C4B13098  17.356  14.833   7.345 -0.2898 -0.0640  0.0319
  969POPC   NC313099   0.885   1.388   5.407 -0.2186  0.0505  0.1290
  969POPC   PO413100   0.642   1.512   5.790  0.1643  0.0938  0.1146
  969POPC   GL113101   0.351   1.448   6.083  0.0335  0.0127  0.0722
  969POPC   GL213102   0.351   1.152   6.130 -0.0090  0.0244 -0.4139
  969POPC   C1A13103   0.231   1.607   6.557 -0.1605 -0.3202 -0.0625
  969POPC   D2A13104   0.407   1.929   6.910 -0.0537  0.0224  0.0707
  969POPC   C3A13105   0.325   1.724   7.341  0.0074 -0.1213  0.0334
  969POPC   C4A13106   0.269   1.881   7.800  0.1204 -0.2497 -0.0628
  969POPC   C1B13107   0.112   1.156   6.482  0.1344  0.0488 -0.1282
  969POPC   C2B13108   0.042   1.252   6.894  0.1143  0.0248  0.0781
  969POPC   C3B13109  -0.042   1.574   7.063  0.0836  0.0216  0.0578
  969POPC   C4B13110  -0.125   1.931   6.758  0.0326 -0.0646 -0.2497
  970POPC   NC313111  10.206   8.854   5.865  0.1054 -0.2412 -0.1740
  970POPC   PO413112  10.564   8.899   5.911 -0.0765 -0.1074  0.1284
  970POPC   GL113113  10.687   8.970   6.290 -0.3045  0.2508  0.0282
  970POPC   GL213114  10.846   8.742   6.474  0.2183  0.2836  0.1098
  970POPC   C1A13115  10.763   9.118   6.726  0.0531 -0.0189  0.3384
  970POPC   D2A13116  10.838   9.417   6.980  0.1765 -0.0833  0.1560
  970POPC   C3A13117  10.575   9.613   7.389  0.0364 -0.4160 -0.3380
  970POPC   C4A13118  10.393   9.608   7.706 -0.1609 -0.1296  0.0297
  970POPC   C1B13119  10.945   8.678   6.936 -0.0612 -0.0642 -0.1401
  970POPC   C2B13120  10.969   8.588   7.374  0.1982 -0.0445 -0.0448
  970POPC   C3B13121  11.233   8.440   7.775  0.0115  0.2342  0.0422
  970POPC   C4B13122  11.384   8.276   8.248 -0.2616 -0.1338  0.0338
  971POPC   NC313123   6.719   2.227   6.022  0.0457 -0.1516 -0.3124
  971POPC   PO413124   6.255   2.051   6.045 -0.1048 -0.0385  0.2378
  971POPC   GL113125   6.251   2.208   6.539 -0.0462 -0.0661  0.0373
  971POPC   GL213126   6.482   2.209   6.804 -0.1867 -0.2718 -0.2768
  971POPC   C1A13127   6.035   2.391   6.738  0.1330 -0.3192 -0.0764
  971POPC   D2A13128   5.821   2.304   7.145  0.1256  0.4078 -0.3023
  971POPC   C3A13129   5.503   2.070   7.282  0.0450 -0.1037  0.1585
  971POPC   C4A13130   5.180   1.891   7.550 -0.1796  0.1202  0.5215
  971POPC   C1B13131   6.308   2.242   7.219  0.1442  0.0815  0.1208
  971POPC   C2B13132   5.938   2.149   7.611  0.2825 -0.0896  0.1661
  971POPC   C3B13133   5.549   2.159   7.844 -0.2560  0.0466 -0.0634
  971POPC   C4B13134   5.153   2.060   8.042  0.2972 -0.0672 -0.2577
  972POPC   NC313135  17.437   0.748   5.577 -0.0121 -0.1632 -0.0773
  972POPC   PO413136  17.469   0.429   5.978 -0.0403  0.0147 -0.0103
  972POPC   GL113137  17.743   0.455   6.406  0.0310  0.2035 -0.0898
  972POPC   GL213138  17.999   0.752   6.353 -0.0657  0.0298 -0.1477
  972POPC   C1A13139  17.614   0.528   6.844  0.0296  0.4468  0.0764
  972POPC   D2A13140  17.641   0.540   7.304 -0.0791  0.2294 -0.1155
  972POPC   C3A13141  17.902   0.583   7.623 -0.2255 -0.3723 -0.3390
  972POPC   C4A13142  17.984   0.711   8.045  0.1798 -0.0567  0.0332
  972POPC   C1B13143  18.377   0.777   6.472 -0.0454 -0.2960 -0.3745
  972POPC   C2B13144  18.723   0.752   6.789  0.0724 -0.0952  0.0174
  972POPC   C3B13145  18.789   0.862   7.136 -0.0200 -0.1050  0.0527
  972POPC   C4B13146  18.524   1.015   7.378  0.0274  0.2175 -0.0521
  973POPC   NC313147  17.967  18.248   5.923 -0.0375 -0.2734  0.1957
  973POPC   PO413148  17.987  17.849   6.221  0.0187 -0.0879 -0.1998
  973POPC   GL113149  18.080  17.482   6.454  0.0408 -0.1203 -0.3022
  973POPC   GL213150  17.853  17.299   6.472  0.0476  0.0402  0.0503
  973POPC   C1A13151  18.409  17.271   6.623  0.0928  0.2350  0.0703
  973POPC   D2A13152  18.675  17.016   6.894 -0.1211 -0.2210 -0.1189
  973POPC   C3A13153  18.522  16.743   7.231  0.2165  0.0259  0.1399
  973POPC   C4A13154  18.506  16.453   7.556 -0.0545  0.0898 -0.2700
  973POPC   C1B13155  17.877  17.250   6.884  0.0945 -0.0396  0.2647
  973POPC   C2B13156  18.256  17.229   7.115 -0.0625  0.1912 -0.2624
  973POPC   C3B13157  18.655  17.560   7.244  0.1323  0.0234 -0.1793
  973POPC   C4B13158  18.914  17.932   7.155  0.1876 -0.1825  0.0931
  974POPC   NC313159  11.807   3.068   5.973  0.1661  0.0194 -0.2600
  974POPC   PO413160  11.387   3.073   6.167 -0.2352  0.0401 -0.1934
  974POPC   GL113161  11.292   2.961   6.596 -0.1695 -0.0093 -0.2388
  974POPC   GL213162  11.366   2.743   6.825  0.2582 -0.0256  0.2826
  974POPC   C1A13163  11.141   3.292   6.914  0.3245  0.0171 -0.1639
  974POPC   D2A13164  11.236   3.565   7.158 -0.5735  0.0140  0.0599
  974POPC   C3A13165  11.136   4.028   7.134  0.0620 -0.3433 -0.4636
  974POPC   C4A13166  10.784   4.221   7.129  0.0114  0.0353  0.0920
  974POPC   C1B13167  11.364   3.013   7.278  0.1802 -0.0303  0.0896
  974POPC   C2B13168  11.317   3.265   7.634 -0.2747 -0.0662  0.1764
  974POPC   C3B13169  11.294   3.648   7.910 -0.1745 -0.2247 -0.0894
  974POPC   C4B13170  11.318   4.020   8.272  0.1214  0.3762  0.0615
  975POPC   NC313171   9.255  17.356   6.083 -0.1577 -0.2238 -0.3345
  975POPC   PO413172   9.032  17.599   5.918 -0.2616 -0.1104 -0.0586
  975POPC   GL113173   8.807  17.413   6.324 -0.2392 -0.3489 -0.2141
  975POPC   GL213174   8.603  17.397   6.345 -0.0634 -0.1084  0.3265
  975POPC   C1A13175   8.825  17.598   6.789  0.0677 -0.2125 -0.2566
  975POPC   D2A13176   8.658  17.731   7.256 -0.2696 -0.1330  0.3065
  975POPC   C3A13177   8.582  17.551   7.621  0.2859 -0.0598  0.4145
  975POPC   C4A13178   8.783  17.627   8.054  0.1222 -0.2007  0.1287
  975POPC   C1B13179   8.405  17.349   6.717  0.0057  0.0700 -0.0451
  975POPC   C2B13180   8.447  17.344   7.084  0.1483  0.2696 -0.2397
  975POPC   C3B13181   8.405  17.175   7.414  0.1798  0.2741 -0.1601
  975POPC   C4B13182   8.324  17.089   7.807  0.1839 -0.0280  0.0933
  976POPC   NC313183   8.939   0.419   5.487  0.2880 -0.1294  0.1559
  976POPC   PO413184   9.049   0.398   5.945 -0.1193  0.0853  0.1026
  976POPC   GL113185   9.030   0.328   6.360  0.3673 -0.2783  0.1948
  976POPC   GL213186   9.324   0.283   6.542 -0.1703 -0.0629  0.0628
  976POPC   C1A13187   8.932   0.501   6.685 -0.0903  0.0695 -0.1532
  976POPC   D2A13188   8.672   0.626   7.054 -0.2435 -0.0779  0.1342
  976POPC   C3A13189   8.792   0.716   7.524 -0.3214  0.0746  0.2194
  976POPC   C4A13190   8.856   0.926   7.988 -0.0553  0.0537 -0.0747
  976POPC   C1B13191   9.247   0.328   7.002  0.0585 -0.2910 -0.1419
  976POPC   C2B13192   9.176   0.377   7.549  0.2019 -0.0311  0.0197
  976POPC   C3B13193   8.954   0.285   7.935  0.1565 -0.1043  0.0268
  976POPC   C4B13194   8.648   0.209   8.336 -0.3110 -0.1153  0.1863
  977POPC   NC313195  18.104   7.824   4.997  0.0576 -0.3096 -0.2756
  977POPC   PO413196  18.504   7.838   5.177 -0.0316  0.0964 -0.1946
  977POPC   GL113197  18.573   7.664   5.554  0.1366  0.0292  0.3434
  977POPC   GL213198  18.775   7.568   5.785 -0.3639 -0.2525 -0.0893
  977POPC   C1A13199  18.273   7.521   5.984 -0.1710  0.2474  0.0141
  977POPC   D2A13200  18.087   7.367   6.311  0.2087 -0.0359 -0.4640
  977POPC   C3A13201  18.255   7.299   6.730 -0.0484  0.2957  0.1885
  977POPC   C4A13202  18.359   7.050   7.111  0.0434  0.1999  0.0126
  977POPC   C1B13203  18.637   7.326   6.216  0.2364  0.0384 -0.1973
  977POPC   C2B13204  18.573   7.008   6.550  0.2920 -0.1424 -0.0113
  977POPC   C3B13205  18.793   6.758   6.806 -0.1298 -0.1247 -0.2355
  977POPC   C4B13206  19.020   6.535   7.114 -0.1637 -0.1604  0.0920
  978POPC   NC313207   4.745   8.827   5.099 -0.0474 -0.2654  0.1077
  978POPC   PO413208   4.918   8.990   5.632  0.0871 -0.0461 -0.1394
  978POPC   GL113209   4.767   9.291   5.947 -0.2981 -0.2591  0.0052
  978POPC   GL213210   4.447   9.479   5.858 -0.0097 -0.1738 -0.1511
  978POPC   C1A13211   4.856   9.315   6.411  0.1457  0.2318 -0.0884
  978POPC   D2A13212   4.945   9.505   6.751  0.2888  0.2258  0.3285
  978POPC   C3A13213   5.117   9.926   6.812 -0.2137  0.1638 -0.1599
  978POPC   C4A13214   5.522  10.191   6.851 -0.2151  0.0202  0.3031
  978POPC   C1B13215   4.382   9.650   6.319  0.1032 -0.0800  0.1027
  978POPC   C2B13216   4.071   9.719   6.608  0.1502 -0.1614 -0.1178
  978POPC   C3B13217   3.909   9.930   6.910  0.2105  0.3030 -0.1796
  978POPC   C4B13218   3.693  10.025   7.353  0.0621 -0.2183 -0.3380
  979POPC   NC313219   5.604  17.625   6.172 -0.1672  0.1813  0.0131
  979POPC   PO413220   6.039  17.591   6.087  0.0563 -0.1932 -0.1464
  979POPC   GL113221   6.347  17.246   6.346  0.1020 -0.5111  0.0036
  979POPC   GL213222   6.027  16.987   6.452 -0.3564 -0.1373 -0.2169
  979POPC   C1A13223   6.317  17.183   6.822 -0.0483 -0.2134  0.0064
  979POPC   D2A13224   6.327  17.043   7.213 -0.2464  0.1013  0.1182
  979POPC   C3A13225   6.563  17.210   7.562 -0.2117  0.2643 -0.1267
  979POPC   C4A13226   6.863  17.554   7.589  0.0022 -0.0620  0.0747
  979POPC   C1B13227   5.773  17.003   6.830  0.0570  0.3351  0.0730
  979POPC   C2B13228   5.746  16.922   7.338  0.1165  0.1649 -0.2155
  979POPC   C3B13229   5.742  16.949   7.807  0.0185 -0.1422 -0.0271
  979POPC   C4B13230   5.707  17.031   8.217  0.1817 -0.0498 -0.0842
  980POPC   NC313231   7.856  17.323   5.583 -0.3743 -0.0651  0.0767
  980POPC   PO413232   7.462  17.542   5.603  0.0509  0.2720 -0.1671
  980POPC   GL113233   7.373  17.229   6.018 -0.1347 -0.0162 -0.1915
  980POPC   GL213234   7.647  17.266   6.144  0.2426  0.0536  0.1529
  980POPC   C1A13235   7.186  17.382   6.384 -0.1546  0.3863  0.0631
  980POPC   D2A13236   7.245  17.261   6.889  0.1306  0.1744 -0.2502
  980POPC   C3A13237   7.451  17.318   7.183 -0.0115  0.0199  0.2397
  980POPC   C4A13238   7.487  17.432   7.597  0.1087 -0.1066  0.1714
  980POPC   C1B13239   7.678  17.266   6.565 -0.1681 -0.0313 -0.0163
  980POPC   C2B13240   7.891  17.346   6.875 -0.0929  0.1008  0.1508
  980POPC   C3B13241   7.917  17.196   7.300 -0.2440  0.0209  0.1822
  980POPC   C4B13242   8.042  17.498   7.620 -0.0186  0.0177  0.2742
  981POPC   NC313243   6.857  15.269   5.556  0.2139  0.0918 -0.1416
  981POPC   PO413244   7.365  15.280   5.526  0.1570  0.2365 -0.1011
  981POPC   GL113245   7.401  15.444   6.000 -0.0149  0.0439  0.3858
  981POPC   GL213246   7.685  15.557   5.993  0.3211  0.2872 -0.1902
  981POPC   C1A13247   7.321  15.564   6.429  0.1780  0.0654 -0.1707
  981POPC   D2A13248   7.217  15.904   6.732 -0.0044  0.2305  0.4205
  981POPC   C3A13249   6.835  15.814   6.983 -0.1223 -0.1472  0.2409
  981POPC   C4A13250   6.888  15.816   7.338  0.1241 -0.1494 -0.0387
  981POPC   C1B13251   7.777  15.786   6.398 -0.2439  0.1787  0.0864
  981POPC   C2B13252   7.799  15.835   6.773 -0.2175  0.2667 -0.1067
  981POPC   C3B13253   7.851  15.816   7.223  0.0381 -0.0748 -0.1579
  981POPC   C4B13254   7.816  16.038   7.549  0.3670 -0.0028  0.0690
  982YOPC   NC313255  17.382   6.874   5.008  0.1059  0.0522  0.2333
  982YOPC   PO413256  17.682   6.588   4.888  0.3390  0.0022 -0.3635
  982YOPC   GL113257  17.584   6.398   5.275 -0.2012 -0.0351  0.2515
  982YOPC   GL213258  17.360   6.160   5.325 -0.2984 -0.0188 -0.3289
  982YOPC   C1A13259  17.489   6.623   5.665 -0.1854  0.0987 -0.0388
  982YOPC   D2A13260  17.328   6.516   6.076 -0.1420 -0.0014  0.2332
  982YOPC   C3A13261  17.600   6.650   6.436  0.1150  0.2117 -0.1069
  982YOPC   C4A13262  17.614   6.604   6.886 -0.0932  0.1542 -0.3261
  982YOPC   C1B13263  17.148   6.267   5.683  0.2174 -0.2838 -0.1599
  982YOPC   C2B13264  16.790   6.599   5.761  0.0787 -0.0943 -0.3972
  982YOPC   D3B13265  17.028   7.068   5.849 -0.2236  0.3349  0.1589
  982YOPC   C4B13266  17.378   7.475   5.711  0.2217  0.1334  0.2118
  983YOPC   NC313267   2.933  13.864   5.435 -0.0993  0.0403 -0.0072
  983YOPC   PO413268   3.362  13.706   5.661 -0.0186  0.2739 -0.2665
  983YOPC   GL113269   3.373  13.432   6.011  0.2883  0.1095  0.4106
  983YOPC   GL213270   3.160  13.548   6.174 -0.2721 -0.1564 -0.3146
  983YOPC   C1A13271   3.444  13.048   6.183  0.3202 -0.1703  0.1761
  983YOPC   D2A13272   3.254  12.891   6.523 -0.1470 -0.1016 -0.0700
  983YOPC   C3A13273   3.028  13.036   6.781 -0.2108 -0.0596  0.0926
  983YOPC   C4A13274   2.815  13.048   7.212 -0.0977 -0.1247  0.1702
  983YOPC   C1B13275   2.759  13.630   6.404 -0.2442  0.3028 -0.2007
  983YOPC   C2B13276   2.389  13.685   6.630 -0.2715 -0.1421 -0.1156
  983YOPC   D3B13277   2.236  13.424   6.944  0.0507  0.0932 -0.0382
  983YOPC   C4B13278   1.784  13.379   7.102  0.3367 -0.2729  0.0530
  984YOPC   NC313279   3.688  10.598   5.291 -0.2947 -0.1903  0.1145
  984YOPC   PO413280   3.769  10.127   5.145 -0.0529 -0.3481  0.0975
  984YOPC   GL113281   3.676  10.101   5.568 -0.0446  0.2593 -0.1207
  984YOPC   GL213282   4.017  10.274   5.624 -0.1154  0.0308 -0.0293
  984YOPC   C1A13283   3.448  10.151   5.853 -0.0264  0.0531 -0.0007
  984YOPC   D2A13284   3.263  10.198   6.253  0.2333 -0.0652 -0.0913
  984YOPC   C3A13285   3.233  10.237   6.708 -0.0797 -0.0367 -0.0213
  984YOPC   C4A13286   3.449  10.343   7.071  0.0377 -0.2019  0.1496
  984YOPC   C1B13287   3.894   9.897   5.942  0.2207  0.0530 -0.0727
  984YOPC   C2B13288   3.679  10.006   6.265 -0.1635  0.3128  0.0511
  984YOPC   D3B13289   3.534   9.884   6.580 -0.1089  0.2529 -0.2188
  984YOPC   C4B13290   3.371   9.867   6.965  0.0026  0.0160 -0.0476
  985YOPC   NC313291   3.416  11.583   5.289  0.1905  0.2401 -0.1021
  985YOPC   PO413292   3.547  11.139   5.291  0.0018 -0.0293  0.1412
  985YOPC   GL113293   3.862  11.364   5.485  0.2673  0.2101 -0.0785
  985YOPC   GL213294   3.773  11.536   5.639  0.0050 -0.2858  0.2572
  985YOPC   C1A13295   4.261  11.349   5.685 -0.1317  0.2459  0.0626
  985YOPC   D2A13296   4.647  11.153   5.874 -0.1832  0.2778  0.1090
  985YOPC   C3A13297   4.598  10.805   6.213 -0.2260  0.1464  0.0350
  985YOPC   C4A13298   4.655  10.602   6.528 -0.0881 -0.1030  0.1702
  985YOPC   C1B13299   3.906  11.203   5.968  0.0026  0.1131  0.1529
  985YOPC   C2B13300   4.314  11.264   6.247 -0.2636 -0.1519 -0.0287
  985YOPC   D3B13301   4.357  10.985   6.627  0.3165  0.2721  0.0644
  985YOPC   C4B13302   4.308  10.803   7.013  0.3570  0.2101 -0.1628
  986YOPC   NC313303   9.845   1.122   6.556 -0.0274  0.1923 -0.1277
  986YOPC   PO413304   9.857   1.536   6.655  0.0388  0.2614  0.0025
  986YOPC   GL113305   9.887   1.492   7.061 -0.1131  0.0178 -0.1179
  986YOPC   GL213306  10.058   1.229   7.042  0.3294  0.3689 -0.1676
  986YOPC   C1A13307  10.015   1.685   7.479  0.2198  0.0210 -0.0371
  986YOPC   D2A13308  10.196   1.943   7.757 -0.2050  0.0047 -0.2288
  986YOPC   C3A13309  10.529   1.876   8.026 -0.0487 -0.3871  0.3415
  986YOPC   C4A13310  10.770   2.002   8.235 -0.0006  0.1779 -0.3490
  986YOPC   C1B13311  10.084   1.177   7.445  0.1005 -0.1196 -0.1442
  986YOPC   C2B13312   9.947   1.335   7.856 -0.1710 -0.2129 -0.2371
  986YOPC   D3B13313   9.950   1.131   8.187 -0.0916 -0.0828 -0.1428
  986YOPC   C4B13314   9.753   1.337   8.444 -0.0151  0.2356  0.1123
  987YOPC   NC313315   9.373  15.479   5.949 -0.1841 -0.1616  0.2476
  987YOPC   PO413316   9.257  15.015   6.061 -0.0560  0.0415 -0.2210
  987YOPC   GL113317   9.242  14.738   6.385  0.1552 -0.4054 -0.0286
  987YOPC   GL213318   8.943  14.584   6.377  0.1356  0.0432 -0.1584
  987YOPC   C1A13319   9.078  14.821   6.800 -0.1002  0.0410  0.0832
  987YOPC   D2A13320   9.041  14.633   7.167  0.1478 -0.1647  0.0205
  987YOPC   C3A13321   9.278  14.769   7.659  0.0364 -0.0833 -0.1802
  987YOPC   C4A13322   9.593  15.027   8.055 -0.1220 -0.0188 -0.0000
  987YOPC   C1B13323   8.997  14.258   6.605  0.1848  0.0313  0.1590
  987YOPC   C2B13324   9.092  14.097   6.970  0.2125 -0.2101  0.0669
  987YOPC   D3B13325   9.004  13.716   7.051  0.1063 -0.2989  0.4711
  987YOPC   C4B13326   8.924  13.234   7.203  0.3123  0.1387  0.2473
  988YOPC   NC313327   6.510   5.997   5.724  0.0463  0.3967  0.0980
  988YOPC   PO413328   5.968   5.801   5.753  0.3989 -0.1730 -0.2949
  988YOPC   GL113329   6.152   5.688   6.045 -0.1531  0.1505  0.0796
  988YOPC   GL213330   6.391   5.349   6.011  0.2528  0.2951 -0.1040
  988YOPC   C1A13331   6.383   5.766   6.497 -0.1385  0.0398 -0.1937
  988YOPC   D2A13332   6.632   5.529   6.729 -0.0878 -0.0434 -0.2526
  988YOPC   C3A13333   6.769   5.764   7.059 -0.0839 -0.1566 -0.2907
  988YOPC   C4A13334   6.586   6.116   7.125 -0.1318  0.0124 -0.0450
  988YOPC   C1B13335   6.342   5.232   6.437  0.2028  0.2114 -0.0726
  988YOPC   C2B13336   6.217   5.234   6.823  0.0537 -0.1084 -0.4002
  988YOPC   D3B13337   6.142   5.616   6.930  0.2475  0.0238 -0.0808
  988YOPC   C4B13338   6.122   5.688   7.413 -0.2182 -0.0911  0.2430
  989YOPC   NC313339  13.528  11.642   5.599  0.1200 -0.1035  0.0049
  989YOPC   PO413340  13.378  12.066   5.689 -0.1116 -0.1714 -0.0167
  989YOPC   GL113341  13.409  11.765   6.060 -0.1632  0.0545 -0.1683
  989YOPC   GL213342  13.652  11.836   6.260 -0.1224  0.3407 -0.0193
  989YOPC   C1A13343  13.294  11.800   6.506  0.2769 -0.1389 -0.1776
  989YOPC   D2A13344  13.221  11.812   6.997 -0.1072 -0.2477 -0.0695
  989YOPC   C3A13345  13.164  11.809   7.433 -0.1247  0.0105  0.2003
  989YOPC   C4A13346  13.139  11.749   7.857 -0.4660 -0.0450 -0.1823
  989YOPC   C1B13347  13.745  11.837   6.667  0.1388 -0.3628 -0.0999
  989YOPC   C2B13348  13.690  11.993   7.011 -0.0686 -0.0087  0.1124
  989YOPC   D3B13349  13.670  11.964   7.428 -0.1360  0.3327  0.2722
  989YOPC   C4B13350  13.637  11.949   7.846  0.1512  0.4029  0.0834
  990YOPC   NC313351   1.153   0.764   5.900  0.1684 -0.1109  0.2407
  990YOPC   PO413352   0.881   1.041   5.756 -0.1220  0.1832  0.0226
  990YOPC   GL113353   0.844   1.147   6.158 -0.0469 -0.3143 -0.1147
  990YOPC   GL213354   1.181   1.301   6.396 -0.1930 -0.0267  0.3716
  990YOPC   C1A13355   0.690   1.325   6.502  0.0460  0.1995 -0.1474
  990YOPC   D2A13356   0.571   1.481   6.885  0.2546  0.1905 -0.1278
  990YOPC   C3A13357   0.426   1.266   7.273  0.1365 -0.2536  0.0598
  990YOPC   C4A13358   0.228   1.310   7.680  0.1092 -0.0714 -0.0442
  990YOPC   C1B13359   1.226   1.649   6.470  0.1316  0.0213  0.4013
  990YOPC   C2B13360   1.184   2.060   6.363  0.1553  0.2350 -0.0831
  990YOPC   D3B13361   0.749   2.273   6.548  0.3118 -0.1271  0.0016
  990YOPC   C4B13362   0.768   2.360   7.009  0.0965  0.2348  0.1252
  991YOPC   NC313363   1.558  13.205   4.930 -0.0479 -0.2167 -0.6195
  991YOPC   PO413364   1.722  12.896   5.351  0.1197  0.0109 -0.1641
  991YOPC   GL113365   1.532  12.922   5.745  0.0151 -0.0463 -0.1375
  991YOPC   GL213366   1.521  12.682   5.968  0.0262  0.0391 -0.2209
  991YOPC   C1A13367   1.392  13.297   5.924  0.3670  0.1965  0.2002
  991YOPC   D2A13368   1.284  13.710   6.038 -0.2114 -0.4435  0.0213
  991YOPC   C3A13369   1.500  14.035   6.211 -0.1709  0.2802 -0.3139
  991YOPC   C4A13370   1.852  14.128   6.522  0.0072 -0.1240  0.0137
  991YOPC   C1B13371   1.604  12.295   6.052  0.0750  0.0710 -0.1014
  991YOPC   C2B13372   1.750  11.936   5.758  0.2344  0.2376  0.1031
  991YOPC   D3B13373   1.633  11.517   5.920 -0.1879  0.4164  0.3613
  991YOPC   C4B13374   1.768  11.244   6.155  0.1043 -0.3169 -0.2640
  992YOPC   NC313375   2.181   6.300   5.079 -0.0278  0.2856 -0.2210
  992YOPC   PO413376   2.297   5.885   5.106  0.0991 -0.2871  0.1209
  992YOPC   GL113377   2.176   5.819   5.520  0.0309  0.1189 -0.0330
  992YOPC   GL213378   1.943   5.666   5.498  0.1707 -0.2805  0.0058
  992YOPC   C1A13379   2.373   5.682   5.936 -0.0218  0.0722  0.0277
  992YOPC   D2A13380   2.531   5.360   6.136 -0.2079 -0.1175  0.1095
  992YOPC   C3A13381   2.372   5.395   6.603  0.0102 -0.0878 -0.2508
  992YOPC   C4A13382   2.444   5.536   7.074  0.1037 -0.0996 -0.1009
  992YOPC   C1B13383   1.837   5.713   5.938 -0.2621 -0.2879  0.1329
  992YOPC   C2B13384   2.025   5.356   6.247  0.0873 -0.2690  0.1650
  992YOPC   D3B13385   1.835   5.284   6.659 -0.1256 -0.1633  0.2396
  992YOPC   C4B13386   2.008   5.205   7.021 -0.1226  0.1082 -0.1300
  993YOPC   NC313387  13.736  15.521   6.297  0.0935  0.2024  0.0695
  993YOPC   PO413388  13.647  15.147   6.239 -0.4054 -0.1720  0.2131
  993YOPC   GL113389  13.994  15.001   6.440 -0.1589 -0.1939  0.1643
  993YOPC   GL213390  13.956  14.733   6.302 -0.0365  0.0145  0.2094
  993YOPC   C1A13391  14.130  14.893   6.823  0.0567 -0.1190  0.0469
  993YOPC   D2A13392  14.147  15.135   7.170  0.2811  0.0397 -0.4231
  993YOPC   C3A13393  14.233  15.006   7.482  0.0899  0.0172  0.0369
  993YOPC   C4A13394  14.092  14.650   7.730 -0.1158 -0.2907  0.2784
  993YOPC   C1B13395  14.181  14.469   6.630  0.2048  0.2657 -0.1604
  993YOPC   C2B13396  14.404  14.295   7.050 -0.3497 -0.0353 -0.1430
  993YOPC   D3B13397  14.363  13.831   7.086  0.0794 -0.2546  0.1849
  993YOPC   C4B13398  14.113  13.546   6.940  0.1455  0.2603 -0.1706
  994YOPC   NC313399   8.622  17.789   5.667  0.1803 -0.1022 -0.0099
  994YOPC   PO413400   8.266  17.563   5.428 -0.1459  0.2250 -0.0418
  994YOPC   GL113401   8.242  17.521   5.876  0.2622  0.0214  0.1687
  994YOPC   GL213402   8.137  17.145   5.958  0.2605 -0.0089  0.4355
  994YOPC   C1A13403   8.172  17.645   6.328 -0.2084 -0.2021 -0.1675
  994YOPC   D2A13404   8.208  17.847   6.730 -0.0734  0.1492 -0.0503
  994YOPC   C3A13405   8.074  18.150   6.793 -0.2980  0.1016 -0.2312
  994YOPC   C4A13406   8.237  18.520   6.994  0.2753  0.2812  0.1262
  994YOPC   C1B13407   8.144  17.098   6.341 -0.3204 -0.3882  0.1770
  994YOPC   C2B13408   8.127  16.923   6.773 -0.0566  0.0752  0.0391
  994YOPC   D3B13409   8.355  16.832   7.071  0.0397 -0.1302  0.0575
  994YOPC   C4B13410   8.519  16.454   7.200  0.1689  0.0658  0.1411
  995YOPC   NC313411   5.869   9.581   5.330 -0.0666 -0.1291 -0.0182
  995YOPC   PO413412   6.224   9.284   5.592  0.0077 -0.0685  0.0765
  995YOPC   GL113413   6.267   9.035   5.955  0.1039 -0.0638 -0.0839
  995YOPC   GL213414   6.519   9.118   6.172  0.3059 -0.2172 -0.0241
  995YOPC   C1A13415   6.311   8.626   6.133  0.0754 -0.4791 -0.2947
  995YOPC   D2A13416   6.343   8.575   6.542 -0.0106  0.0895  0.0042
  995YOPC   C3A13417   6.329   8.705   6.948  0.0061 -0.0176  0.1339
  995YOPC   C4A13418   6.310   8.848   7.371 -0.2378 -0.2198 -0.0008
  995YOPC   C1B13419   6.500   9.068   6.635  0.1176  0.2753  0.0036
  995YOPC   C2B13420   6.590   9.126   7.040  0.0010 -0.2358 -0.0105
  995YOPC   D3B13421   6.896   8.788   7.240  0.0420 -0.0259 -0.1752
  995YOPC   C4B13422   7.188   8.485   7.085 -0.1646  0.1052  0.0370
  996YOPC   NC313423  14.327   6.002   5.382  0.0668  0.1520 -0.0788
  996YOPC   PO413424  14.671   5.687   5.410  0.0200  0.0473 -0.1117
  996YOPC   GL113425  14.867   5.683   5.740 -0.0019  0.1822  0.1306
  996YOPC   GL213426  15.177   5.601   5.837  0.0780 -0.0676  0.1616
  996YOPC   C1A13427  14.776   5.376   6.111 -0.0172  0.1062  0.2331
  996YOPC   D2A13428  14.459   5.334   6.545 -0.2720  0.0601  0.2403
  996YOPC   C3A13429  14.409   5.550   6.955  0.1982  0.0950  0.2780
  996YOPC   C4A13430  14.527   5.563   7.434  0.0241 -0.0162  0.2730
  996YOPC   C1B13431  15.209   5.571   6.238  0.1145 -0.0740  0.1042
  996YOPC   C2B13432  15.112   5.201   6.484 -0.0855 -0.4037  0.1491
  996YOPC   D3B13433  15.300   5.024   6.844  0.2400  0.2395 -0.1328
  996YOPC   C4B13434  15.209   4.630   7.080  0.2411  0.2383  0.3666
  997YOPC   NC313435   1.076  14.305   5.282  0.2029  0.0106 -0.0429
  997YOPC   PO413436   1.268  14.475   5.595  0.0995 -0.2604 -0.0393
  997YOPC   GL113437   1.328  14.450   6.052 -0.2279  0.1061  0.1471
  997YOPC   GL213438   1.311  14.838   6.044 -0.3928 -0.0389  0.2248
  997YOPC   C1A13439   1.135  14.352   6.549 -0.3424  0.1589  0.0275
  997YOPC   D2A13440   1.156  14.394   7.034 -0.0718 -0.1387  0.1251
  997YOPC   C3A13441   1.071  13.992   7.346  0.2978  0.0273 -0.1745
  997YOPC   C4A13442   1.320  13.720   7.663 -0.0853  0.2852 -0.1401
  997YOPC   C1B13443   1.014  14.740   6.265 -0.1061 -0.0200 -0.1418
  997YOPC   C2B13444   0.736  14.835   6.605  0.0842 -0.1305  0.2245
  997YOPC   D3B13445   0.686  14.732   7.018  0.0855 -0.1912  0.0058
  997YOPC   C4B13446   0.636  14.470   7.452 -0.1544 -0.1427  0.3297
  998YOPC   NC313447  18.278  13.118   5.105  0.1420  0.1522  0.1578
  998YOPC   PO413448  18.578  13.332   5.490 -0.2783  0.2264 -0.0956
  998YOPC   GL113449  18.626  13.456   5.909 -0.0434 -0.0732  0.0608
  998YOPC   GL213450  18.408  13.716   6.005 -0.1343  0.0828  0.0698
  998YOPC   C1A13451  18.911  13.486   6.281 -0.0156 -0.0925  0.1326
  998YOPC   D2A13452  19.211  13.352   6.574  0.1827 -0.0640 -0.0124
  998YOPC   C3A13453  19.205  13.315   7.146 -0.3046 -0.1530  0.2191
  998YOPC   C4A13454  19.167  13.016   7.394  0.1592 -0.1046 -0.1481
  998YOPC   C1B13455  18.433  13.681   6.453 -0.0326  0.0257 -0.2898
  998YOPC   C2B13456  18.333  13.487   6.879  0.0211  0.2988 -0.4481
  998YOPC   D3B13457  18.290  13.699   7.186  0.2978 -0.4600  0.1910
  998YOPC   C4B13458  18.193  14.141   7.297  0.1557 -0.0933 -0.0070
  999YOPC   NC313459   2.696  13.344   5.265  0.1538  0.0986  0.1715
  999YOPC   PO413460   2.420  13.664   5.409  0.0203 -0.2012 -0.2244
  999YOPC   GL113461   2.227  13.440   5.739 -0.0035 -0.0016 -0.0258
  999YOPC   GL213462   1.924  13.305   5.826 -0.3120  0.2158  0.0508
  999YOPC   C1A13463   2.268  13.294   6.255 -0.3920 -0.2067  0.0007
  999YOPC   D2A13464   2.051  13.200   6.557 -0.1291  0.0070 -0.1477
  999YOPC   C3A13465   1.800  12.918   6.816 -0.1205 -0.0761 -0.1407
  999YOPC   C4A13466   1.831  12.569   7.073  0.1542 -0.1520 -0.1423
  999YOPC   C1B13467   1.803  13.117   6.123  0.0193  0.0111  0.3293
  999YOPC   C2B13468   1.518  13.206   6.427 -0.1800  0.0292  0.3300
  999YOPC   D3B13469   1.278  12.864   6.654  0.0028 -0.3119  0.2161
  999YOPC   C4B13470   0.869  12.623   6.558  0.1006 -0.1545  0.1407
 1000YOPC   NC313471  11.660   8.926   5.897  0.1174  0.0748  0.2734
 1000YOPC   PO413472  11.128   8.957   5.992  0.0553  0.0878  0.1397
 1000YOPC   GL113473  11.251   9.110   6.354 -0.1995 -0.2036 -0.0584
 1000YOPC   GL213474  11.636   9.239   6.315  0.2322 -0.0340  0.0529
 1000YOPC   C1A13475  11.324   9.067   6.731 -0.2723 -0.0951 -0.0788
 1000YOPC   D2A13476  11.276   9.257   7.139 -0.0542  0.3199  0.2894
 1000YOPC   C3A13477  11.295   8.964   7.472  0.0140  0.1928 -0.0810
 1000YOPC   C4A13478  11.402   8.901   7.986 -0.1592 -0.2126  0.4124
 1000YOPC   C1B13479  11.699   9.683   6.401 -0.3329  0.2147 -0.0819
 1000YOPC   C2B13480  11.451  10.035   6.567  0.1437 -0.2013 -0.3418
 1000YOPC   D3B13481  11.522  10.073   6.868 -0.0469  0.0024  0.1451
 1000YOPC   C4B13482  11.588  10.200   7.307 -0.0391  0.0563  0.0534
 1001YOPC   NC313483   3.636   4.970   5.566  0.0967  0.0424 -0.2343
 1001YOPC   PO413484   3.629   5.387   5.715 -0.0969  0.0375 -0.0754
 1001YOPC   GL113485   3.837   5.396   6.081 -0.1542  0.2193  0.0158
 1001YOPC   GL213486   3.920   5.094   6.124  0.1808  0.1572 -0.0956
 1001YOPC   C1A13487   3.934   5.667   6.364 -0.2182 -0.0049  0.1073
 1001YOPC   D2A13488   3.951   6.098   6.686  0.0393  0.1149  0.0459
 1001YOPC   C3A13489   4.209   6.460   6.774 -0.0959  0.1252 -0.0729
 1001YOPC   C4A13490   4.184   6.852   6.711 -0.0207 -0.1271  0.0029
 1001YOPC   C1B13491   3.541   5.113   6.302 -0.2743 -0.1082 -0.0122
 1001YOPC   C2B13492   3.245   5.257   6.707 -0.4848  0.0156 -0.1286
 1001YOPC   D3B13493   3.487   5.303   7.009 -0.3054 -0.1358  0.0430
 1001YOPC   C4B13494   3.684   5.223   7.330  0.1977  0.2936 -0.1650
 1002YOPC   NC313495  14.698   3.518   5.226 -0.2369 -0.1075  0.1519
 1002YOPC   PO413496  15.150   3.581   5.325 -0.0334 -0.4483 -0.1666
 1002YOPC   GL113497  15.096   3.932   5.596 -0.1184 -0.0720  0.2285
 1002YOPC   GL213498  15.275   4.035   5.910  0.0557 -0.1402 -0.2795
 1002YOPC   C1A13499  14.949   4.374   5.753  0.0146  0.0997 -0.1436
 1002YOPC   D2A13500  14.877   4.807   6.037 -0.1561 -0.0237  0.4084
 1002YOPC   C3A13501  14.484   4.901   6.113 -0.2336 -0.0770 -0.0951
 1002YOPC   C4A13502  14.102   4.662   6.162 -0.0126  0.2023  0.0160
 1002YOPC   C1B13503  15.184   4.261   6.362  0.1120  0.2273  0.2899
 1002YOPC   C2B13504  15.119   4.617   6.609  0.2454 -0.1108 -0.1069
 1002YOPC   D3B13505  14.745   4.869   6.547  0.0536 -0.1767  0.0525
 1002YOPC   C4B13506  14.294   4.841   6.617 -0.0138  0.1859  0.1629
 1003YOPC   NC313507  17.037   7.817   4.567  0.3703  0.0018  0.4689
 1003YOPC   PO413508  17.243   8.061   4.931  0.3140  0.1300  0.0195
 1003YOPC   GL113509  17.093   8.048   5.338 -0.2466  0.3079 -0.1254
 1003YOPC   GL213510  16.968   7.879   5.563 -0.1769  0.3218  0.0625
 1003YOPC   C1A13511  16.733   8.288   5.674 -0.1186  0.1477 -0.1036
 1003YOPC   D2A13512  16.737   8.666   6.011 -0.5788  0.1149 -0.0385
 1003YOPC   C3A13513  16.369   8.920   6.172  0.3467 -0.0915 -0.0082
 1003YOPC   C4A13514  15.985   8.982   6.250 -0.0334 -0.0928 -0.1806
 1003YOPC   C1B13515  17.207   8.070   5.848  0.0336  0.1883 -0.2543
 1003YOPC   C2B13516  17.530   8.292   6.056  0.1161  0.4131 -0.0159
 1003YOPC   D3B13517  17.690   8.272   6.355  0.2713 -0.0657  0.3120
 1003YOPC   C4B13518  17.757   8.463   6.698  0.4123  0.0118 -0.1489
 1004YOPC   NC313519  10.194  12.640   5.910  0.0297 -0.2588 -0.3859
 1004YOPC   PO413520  10.163  12.166   5.885 -0.0054  0.2042 -0.1591
 1004YOPC   GL113521   9.882  12.300   6.271 -0.0774 -0.0638  0.0840
 1004YOPC   GL213522   9.669  12.136   6.431 -0.2318 -0.4000  0.1833
 1004YOPC   C1A13523   9.923  12.451   6.680  0.1142 -0.1951 -0.0092
 1004YOPC   D2A13524   9.828  12.378   7.092  0.0630  0.0581  0.0973
 1004YOPC   C3A13525   9.941  12.798   7.392  0.0337  0.3529  0.0508
 1004YOPC   C4A13526  10.085  13.021   7.756 -0.1992  0.2942  0.0900
 1004YOPC   C1B13527   9.453  12.029   6.867 -0.0346  0.0493  0.1047
 1004YOPC   C2B13528   9.527  11.761   7.247  0.1129  0.0243 -0.2393
 1004YOPC   D3B13529   9.312  11.725   7.690 -0.4647 -0.0882  0.1346
 1004YOPC   C4B13530   9.009  11.768   8.096 -0.4503 -0.0561  0.0257
 1005YOPC   NC313531  14.326  10.566   5.732  0.2595 -0.3606  0.3376
 1005YOPC   PO413532  14.003  10.230   5.802 -0.1158  0.1634 -0.2362
 1005YOPC   GL113533  14.308   9.911   6.051 -0.1396 -0.3067 -0.0118
 1005YOPC   GL213534  14.541   9.594   5.908  0.0332 -0.2861  0.1820
 1005YOPC   C1A13535  14.421   9.999   6.496 -0.2768 -0.1343  0.0716
 1005YOPC   D2A13536  14.358  10.115   6.881 -0.1507 -0.2420  0.0698
 1005YOPC   C3A13537  14.569  10.103   7.227  0.1497 -0.0721  0.1391
 1005YOPC   C4A13538  14.938  10.011   7.302  0.0722  0.1044  0.1562
 1005YOPC   C1B13539  14.567   9.608   6.284 -0.2621  0.1921 -0.2422
 1005YOPC   C2B13540  14.685   9.597   6.704  0.3260  0.0192  0.2862
 1005YOPC   D3B13541  14.712   9.588   7.132  0.2507  0.2154 -0.1442
 1005YOPC   C4B13542  14.399   9.398   7.375  0.0497  0.0210  0.0854
 1006YOPC   NC313543   0.190  16.515   5.903  0.0886 -0.2764  0.1108
 1006YOPC   PO413544   0.422  16.190   5.767  0.0632 -0.0560  0.3948
 1006YOPC   GL113545   0.514  15.965   6.182 -0.0608 -0.0150 -0.1296
 1006YOPC   GL213546   0.414  16.205   6.536 -0.1535  0.1335 -0.0590
 1006YOPC   C1A13547   0.738  15.789   6.568  0.2786 -0.0356 -0.2069
 1006YOPC   D2A13548   0.880  15.759   6.991  0.1194  0.0293 -0.1215
 1006YOPC   C3A13549   0.702  15.671   7.424 -0.0850  0.0154 -0.2213
 1006YOPC   C4A13550   0.825  15.747   7.807 -0.1338 -0.0027 -0.2404
 1006YOPC   C1B13551   0.412  15.991   6.887 -0.1285 -0.0687 -0.0864
 1006YOPC   C2B13552   0.324  15.628   7.063 -0.1491 -0.1286  0.0745
 1006YOPC   D3B13553   0.138  15.607   7.424 -0.2121  0.3280 -0.0011
 1006YOPC   C4B13554  -0.289  15.529   7.568  0.0554  0.3045  0.1021
 1007YOPC   NC313555   2.283  13.354   5.001  0.1523  0.0643  0.1106
 1007YOPC   PO413556   2.269  13.091   5.419  0.2978 -0.0528  0.3826
 1007YOPC   GL113557   2.314  12.906   5.777  0.1570  0.2629  0.0199
 1007YOPC   GL213558   1.993  12.753   5.829 -0.0650 -0.0680 -0.1605
 1007YOPC   C1A13559   2.328  12.768   6.171 -0.2288  0.3321 -0.1467
 1007YOPC   D2A13560   2.360  12.800   6.684 -0.1013 -0.0800  0.0906
 1007YOPC   C3A13561   2.662  12.799   6.856  0.0700 -0.1530  0.0753
 1007YOPC   C4A13562   3.031  12.566   6.820 -0.1281 -0.1250 -0.0084
 1007YOPC   C1B13563   2.098  12.296   5.943 -0.1170  0.0949 -0.1342
 1007YOPC   C2B13564   2.421  12.088   6.145 -0.1610 -0.1026  0.1087
 1007YOPC   D3B13565   2.438  11.998   6.520 -0.0748 -0.0867  0.0111
 1007YOPC   C4B13566   2.144  11.778   6.837 -0.0982 -0.1207 -0.1292
 1008YOPC   NC313567  12.686   6.042   5.356  0.1260 -0.4561  0.1031
 1008YOPC   PO413568  12.507   6.301   5.619  0.1505  0.3662 -0.1554
 1008YOPC   GL113569  12.558   6.540   6.013 -0.0105  0.0244 -0.1146
 1008YOPC   GL213570  12.328   6.461   6.209 -0.1466  0.0082 -0.5640
 1008YOPC   C1A13571  12.972   6.739   6.276 -0.3997  0.0209 -0.3318
 1008YOPC   D2A13572  13.423   6.728   6.198 -0.2016 -0.0273  0.1617
 1008YOPC   C3A13573  13.802   6.823   6.377  0.0115 -0.0507 -0.1158
 1008YOPC   C4A13574  14.206   6.850   6.487  0.3378  0.0380 -0.1552
 1008YOPC   C1B13575  12.433   6.619   6.596  0.1578  0.1061 -0.0112
 1008YOPC   C2B13576  12.486   6.606   6.887 -0.0780 -0.2947 -0.0314
 1008YOPC   D3B13577  12.761   6.434   7.022 -0.4186 -0.1010 -0.1184
 1008YOPC   C4B13578  13.081   6.366   7.162 -0.1146 -0.2638  0.0156
 1009YOPC   NC313579  15.417  15.291   5.740 -0.0747 -0.3296  0.0588
 1009YOPC   PO413580  15.677  15.023   6.011 -0.0680  0.2982  0.0096
 1009YOPC   GL113581  15.567  14.862   6.390 -0.2757 -0.2055 -0.1291
 1009YOPC   GL213582  15.764  14.547   6.378 -0.1987 -0.2048  0.0177
 1009YOPC   C1A13583  15.561  14.863   6.899  0.1612 -0.0304 -0.2753
 1009YOPC   D2A13584  15.548  14.650   7.271  0.2393 -0.0037  0.0804
 1009YOPC   C3A13585  15.444  14.174   7.283 -0.0921 -0.0296 -0.0634
 1009YOPC   C4A13586  15.297  13.727   7.404  0.2031 -0.2187  0.2998
 1009YOPC   C1B13587  15.600  14.377   6.757  0.3913  0.1231  0.0014
 1009YOPC   C2B13588  15.880  14.148   7.064 -0.1304 -0.2004 -0.0715
 1009YOPC   D3B13589  15.859  14.376   7.477 -0.3090  0.0430 -0.0320
 1009YOPC   C4B13590  16.128  14.412   7.902  0.0539  0.1473  0.3807
 1010YOPC   NC313591  14.924   9.956   5.406  0.0365  0.1042  0.0395
 1010YOPC   PO413592  15.396   9.966   5.248 -0.2225  0.1545  0.0668
 1010YOPC   GL113593  15.472   9.729   5.654  0.4332  0.0619  0.1116
 1010YOPC   GL213594  15.063   9.622   5.772 -0.0638  0.2621 -0.0853
 1010YOPC   C1A13595  15.571   9.828   6.034 -0.0968  0.0395  0.2163
 1010YOPC   D2A13596  15.390  10.042   6.240  0.1541 -0.0802  0.0028
 1010YOPC   C3A13597  15.493  10.105   6.631  0.4038  0.3444 -0.4799
 1010YOPC   C4A13598  15.799  10.036   6.928  0.1589  0.0547  0.1149
 1010YOPC   C1B13599  15.013   9.641   6.145 -0.1253 -0.2394 -0.0379
 1010YOPC   C2B13600  15.351   9.562   6.482 -0.1640  0.0027  0.3819
 1010YOPC   D3B13601  15.141   9.626   6.853 -0.4213  0.2433 -0.2283
 1010YOPC   C4B13602  15.373   9.825   7.174 -0.0944 -0.0249  0.0523
 1011YOPC   NC313603  14.082  12.586   5.787  0.0378 -0.1709 -0.0397
 1011YOPC   PO413604  14.566  12.624   5.726  0.0619 -0.0363  0.0895
 1011YOPC   GL113605  14.404  12.713   6.136 -0.1746  0.0357 -0.0436
 1011YOPC   GL213606  14.482  13.039   6.148 -0.3537  0.1699 -0.0780
 1011YOPC   C1A13607  14.323  12.653   6.564 -0.4314  0.3143 -0.2032
 1011YOPC   D2A13608  14.441  12.678   7.011  0.3935 -0.2360 -0.1432
 1011YOPC   C3A13609  14.191  12.770   7.370 -0.1100  0.4228 -0.5823
 1011YOPC   C4A13610  14.031  12.905   7.693  0.1780 -0.1980 -0.0136
 1011YOPC   C1B13611  14.186  13.115   6.456  0.0636 -0.1094 -0.0361
 1011YOPC   C2B13612  14.101  12.985   6.856 -0.1593  0.0657 -0.1539
 1011YOPC   D3B13613  13.813  13.041   7.165  0.1738  0.2594  0.0277
 1011YOPC   C4B13614  13.508  12.839   7.338 -0.0271  0.0423  0.0669
 1012YOPC   NC313615   0.775   9.839   4.813 -0.1472  0.1364 -0.1651
 1012YOPC   PO413616   0.885   9.443   5.076 -0.1692 -0.2178  0.2202
 1012YOPC   GL113617   0.943   9.449   5.519 -0.0137  0.0006  0.1447
 1012YOPC   GL213618   0.990   9.088   5.734  0.0447 -0.0654  0.2872
 1012YOPC   C1A13619   0.882   9.617   5.953 -0.3270  0.0751  0.0176
 1012YOPC   D2A13620   1.059   9.931   6.265  0.2736 -0.2446  0.2283
 1012YOPC   C3A13621   0.958   9.794   6.661 -0.3308  0.1465 -0.0700
 1012YOPC   C4A13622   0.812   9.419   6.967  0.1123  0.2613  0.0560
 1012YOPC   C1B13623   0.785   9.066   6.032 -0.0733 -0.3242  0.2694
 1012YOPC   C2B13624   0.789   8.863   6.471  0.0381  0.3707  0.1053
 1012YOPC   D3B13625   0.476   9.024   6.837 -0.2444  0.0503 -0.1815
 1012YOPC   C4B13626   0.330   9.352   6.957  0.2700 -0.0417 -0.1850
 1013YOPC   NC313627   6.494   4.585   5.510 -0.1701  0.0229  0.0179
 1013YOPC   PO413628   6.535   4.110   5.605 -0.2306 -0.0153 -0.2839
 1013YOPC   GL113629   6.452   3.999   6.017 -0.1410  0.2118  0.3492
 1013YOPC   GL213630   6.499   4.172   6.133 -0.2614  0.1500  0.1554
 1013YOPC   C1A13631   6.080   3.923   6.256  0.0029  0.0333  0.4461
 1013YOPC   D2A13632   5.896   3.948   6.561  0.0265  0.0992 -0.0055
 1013YOPC   C3A13633   5.758   4.044   7.012  0.0343 -0.1794  0.1048
 1013YOPC   C4A13634   5.940   4.117   7.340  0.1677 -0.2580  0.0177
 1013YOPC   C1B13635   6.359   4.242   6.495 -0.1140  0.0141  0.0161
 1013YOPC   C2B13636   6.209   4.260   6.949  0.0416  0.1647 -0.0713
 1013YOPC   D3B13637   6.011   4.574   7.229  0.2401 -0.2230  0.3302
 1013YOPC   C4B13638   6.042   5.098   7.278  0.0139  0.0232 -0.0110
 1014YOPC   NC313639   5.333  12.288   5.650 -0.1536 -0.3206  0.1920
 1014YOPC   PO413640   4.974  12.326   5.895  0.3157 -0.1034  0.0054
 1014YOPC   GL113641   5.197  12.362   6.246  0.0965  0.0793  0.2188
 1014YOPC   GL213642   5.348  12.699   6.239 -0.0185 -0.0596 -0.1315
 1014YOPC   C1A13643   5.179  12.316   6.610 -0.0241 -0.1730  0.1080
 1014YOPC   D2A13644   4.801  12.347   6.832  0.3610  0.0612  0.0967
 1014YOPC   C3A13645   4.638  12.702   7.012 -0.1498  0.1310  0.0778
 1014YOPC   C4A13646   4.457  13.024   7.347  0.1420 -0.0856 -0.0229
 1014YOPC   C1B13647   5.256  12.799   6.697 -0.0428 -0.0993  0.0828
 1014YOPC   C2B13648   5.143  12.687   7.091  0.0909  0.0541  0.0868
 1014YOPC   D3B13649   5.362  12.536   7.446  0.5419  0.0608 -0.0690
 1014YOPC   C4B13650   5.568  12.451   7.724 -0.0002 -0.0560 -0.0631
 1015YOPC   NC313651  12.972   8.785   5.269  0.1238 -0.0321  0.0721
 1015YOPC   PO413652  13.041   8.760   5.794  0.1467 -0.0132  0.3114
 1015YOPC   GL113653  13.115   8.872   6.120 -0.0559 -0.0786  0.2787
 1015YOPC   GL213654  12.915   9.117   6.159  0.0761 -0.0976 -0.0454
 1015YOPC   C1A13655  13.503   8.703   6.447 -0.1294 -0.0865 -0.0743
 1015YOPC   D2A13656  13.854   8.523   6.477  0.1889  0.3152 -0.0785
 1015YOPC   C3A13657  14.082   8.542   6.816 -0.0682  0.3874  0.0771
 1015YOPC   C4A13658  14.324   8.393   7.188  0.2102  0.1332  0.1300
 1015YOPC   C1B13659  12.940   9.011   6.582  0.2626  0.0165 -0.0059
 1015YOPC   C2B13660  12.821   9.074   6.995  0.5043 -0.2112 -0.1159
 1015YOPC   D3B13661  13.223   9.211   7.268  0.1445 -0.0317  0.0835
 1015YOPC   C4B13662  13.417   9.429   7.435  0.2695  0.2030 -0.1648
 1016YOPC   NC313663   1.546  18.545   5.935 -0.1285 -0.2337  0.0428
 1016YOPC   PO413664   1.325  18.122   5.871  0.3999 -0.1256 -0.0330
 1016YOPC   GL113665   1.060  18.182   6.249 -0.0802 -0.3967  0.0355
 1016YOPC   GL213666   0.940  18.515   6.375  0.1046 -0.1163  0.1046
 1016YOPC   C1A13667   1.103  18.038   6.634 -0.4092  0.1292  0.1022
 1016YOPC   D2A13668   1.244  18.155   7.075  0.0280  0.1734 -0.1615
 1016YOPC   C3A13669   1.606  18.200   7.072 -0.0467 -0.0001 -0.0757
 1016YOPC   C4A13670   1.961  18.577   7.191  0.0709  0.1175  0.2835
 1016YOPC   C1B13671   1.343  18.495   6.544  0.1696 -0.0406 -0.1692
 1016YOPC   C2B13672   1.590  18.165   6.597 -0.0194  0.0378 -0.1277
 1016YOPC   D3B13673   2.020  18.253   6.737  0.2432 -0.2590  0.1030
 1016YOPC   C4B13674   2.366  18.359   6.911  0.0698 -0.0039  0.3246
 1017YOPC   NC313675   7.353   3.493   5.583  0.1131  0.3651  0.1472
 1017YOPC   PO413676   7.701   3.306   5.803 -0.1132  0.1360  0.0365
 1017YOPC   GL113677   7.843   3.082   6.155 -0.3317  0.0367 -0.0894
 1017YOPC   GL213678   7.587   2.818   6.314  0.0413  0.0499 -0.0741
 1017YOPC   C1A13679   7.769   3.278   6.474 -0.0782  0.0534 -0.0259
 1017YOPC   D2A13680   7.753   3.261   6.880  0.0263 -0.0206  0.0086
 1017YOPC   C3A13681   7.455   3.077   7.030  0.0306 -0.0843  0.2128
 1017YOPC   C4A13682   7.402   2.947   7.507 -0.2378  0.1964  0.1157
 1017YOPC   C1B13683   7.227   3.077   6.428  0.1601 -0.1227 -0.0703
 1017YOPC   C2B13684   7.116   3.494   6.522 -0.0063  0.0564 -0.0283
 1017YOPC   D3B13685   7.233   3.844   6.822  0.0413 -0.0442 -0.0270
 1017YOPC   C4B13686   7.129   4.229   7.156  0.0815  0.1332  0.0083
 1018YOPC   NC313687   2.073   7.837   5.351 -0.1814  0.1576 -0.2636
 1018YOPC   PO413688   2.181   8.355   5.239  0.1946 -0.1265  0.1020
 1018YOPC   GL113689   1.976   8.501   5.604  0.2560  0.0996 -0.1080
 1018YOPC   GL213690   1.922   8.259   5.826 -0.0610  0.4347  0.2296
 1018YOPC   C1A13691   1.947   8.704   5.972  0.0608 -0.1558  0.1651
 1018YOPC   D2A13692   1.949   8.512   6.391  0.1651 -0.2006 -0.0152
 1018YOPC   C3A13693   1.954   8.797   6.776  0.1304  0.0519  0.2724
 1018YOPC   C4A13694   2.098   9.111   7.097 -0.0422  0.2134  0.2804
 1018YOPC   C1B13695   2.171   8.125   6.166  0.1967 -0.2094  0.2876
 1018YOPC   C2B13696   2.265   8.056   6.553  0.2602 -0.3181 -0.0806
 1018YOPC   D3B13697   2.028   8.344   6.860 -0.0407  0.1177  0.0092
 1018YOPC   C4B13698   2.102   8.570   7.239 -0.0706  0.4507 -0.0877
 1019YOPC   NC313699  17.684   3.469   4.747  0.0174  0.0548 -0.3329
 1019YOPC   PO413700  17.851   3.624   5.219  0.0726 -0.2239  0.0258
 1019YOPC   GL113701  17.946   3.644   5.677 -0.3243 -0.0744  0.0046
 1019YOPC   GL213702  17.650   3.559   5.822  0.0002  0.2899 -0.1901
 1019YOPC   C1A13703  18.041   3.619   6.107  0.2941 -0.1755 -0.0840
 1019YOPC   D2A13704  17.848   3.633   6.410 -0.0907  0.0649  0.0909
 1019YOPC   C3A13705  18.079   3.757   6.762 -0.1162  0.0796 -0.0274
 1019YOPC   C4A13706  18.032   3.949   7.062  0.0942  0.0386 -0.3708
 1019YOPC   C1B13707  17.455   3.455   6.125 -0.0761  0.0798  0.2210
 1019YOPC   C2B13708  17.370   3.594   6.577  0.2703 -0.1690  0.0678
 1019YOPC   D3B13709  17.652   3.607   7.071 -0.1175 -0.0483  0.1115
 1019YOPC   C4B13710  18.043   3.477   7.260 -0.3162 -0.0320 -0.0016
 1020YOPC   NC313711   5.451   0.534   5.934 -0.0153  0.1033 -0.2935
 1020YOPC   PO413712   5.800   0.207   5.776 -0.5369  0.1001 -0.0113
 1020YOPC   GL113713   5.596   0.112   6.204  0.1271 -0.0616  0.0211
 1020YOPC   GL213714   5.273   0.279   6.339 -0.4411  0.1575  0.2149
 1020YOPC   C1A13715   5.533  -0.149   6.511  0.1120 -0.2617 -0.2956
 1020YOPC   D2A13716   5.482  -0.324   6.975  0.2076 -0.0637 -0.1925
 1020YOPC   C3A13717   5.053  -0.414   7.034  0.1070  0.1415 -0.0238
 1020YOPC   C4A13718   4.544  -0.357   7.146  0.1293  0.1533  0.1366
 1020YOPC   C1B13719   4.830   0.218   6.401 -0.0293 -0.1602  0.3554
 1020YOPC   C2B13720   4.421   0.363   6.486  0.1985 -0.0047 -0.0523
 1020YOPC   D3B13721   4.182   0.143   6.912  0.1997 -0.0576  0.0733
 1020YOPC   C4B13722   4.224   0.094   7.301  0.2282  0.0867  0.0564
 1021YOPC   NC313723   4.255   1.101   5.627  0.2952 -0.0492  0.0180
 1021YOPC   PO413724   4.046   1.567   5.707 -0.0115  0.0416  0.2684
 1021YOPC   GL113725   3.855   1.708   6.050 -0.2688 -0.4774  0.1469
 1021YOPC   GL213726   3.489   1.724   6.170  0.1057 -0.0256  0.5436
 1021YOPC   C1A13727   3.851   1.785   6.415  0.1378  0.2366  0.0164
 1021YOPC   D2A13728   3.901   1.545   6.848 -0.0990  0.0864 -0.1409
 1021YOPC   C3A13729   3.985   1.691   7.327 -0.5173 -0.0846 -0.0450
 1021YOPC   C4A13730   3.871   1.592   7.788  0.2671 -0.2876  0.3433
 1021YOPC   C1B13731   3.420   1.644   6.666  0.0631  0.0051  0.4775
 1021YOPC   C2B13732   3.376   1.700   7.079 -0.0297  0.0402  0.0445
 1021YOPC   D3B13733   3.227   1.606   7.579 -0.0594 -0.0705  0.1835
 1021YOPC   C4B13734   3.050   1.579   8.006  0.1585  0.1484  0.1146
 1022YOPC   NC313735   0.282   9.673   4.824  0.0310 -0.2842 -0.2944
 1022YOPC   PO413736  -0.108   9.770   5.069 -0.0593 -0.2472  0.0809
 1022YOPC   GL113737  -0.209   9.772   5.532 -0.0659 -0.0393 -0.0850
 1022YOPC   GL213738  -0.138   9.361   5.796 -0.0874 -0.1251  0.2519
 1022YOPC   C1A13739  -0.169   9.848   5.845  0.0941 -0.4467  0.3130
 1022YOPC   D2A13740   0.069   9.873   6.142  0.1209  0.1915  0.0269
 1022YOPC   C3A13741  -0.042   9.761   6.481  0.0507 -0.0916 -0.1987
 1022YOPC   C4A13742  -0.175   9.388   6.602  0.2232 -0.0461  0.0858
 1022YOPC   C1B13743  -0.318   9.512   6.138  0.1907 -0.0459  0.0990
 1022YOPC   C2B13744  -0.658   9.348   6.473 -0.1374  0.1023  0.0836
 1022YOPC   D3B13745  -0.542   9.003   6.769  0.0331  0.0747  0.1583
 1022YOPC   C4B13746  -0.446   8.672   6.970  0.1861  0.0483  0.1366
 1023YOPC   NC313747   9.224  14.315   5.562  0.1823 -0.1063 -0.1102
 1023YOPC   PO413748   9.337  13.916   5.297  0.0552 -0.4724  0.0746
 1023YOPC   GL113749   9.345  13.769   5.734  0.1145  0.2384 -0.1918
 1023YOPC   GL213750   9.044  13.690   5.959  0.1770 -0.0000 -0.0325
 1023YOPC   C1A13751   9.591  13.783   6.160  0.3428 -0.0127  0.0500
 1023YOPC   D2A13752   9.822  13.545   6.407 -0.0589 -0.0399  0.0060
 1023YOPC   C3A13753   9.884  13.499   6.878 -0.0091  0.0539 -0.0222
 1023YOPC   C4A13754   9.968  13.369   7.297 -0.0568  0.1696  0.2836
 1023YOPC   C1B13755   9.197  13.832   6.435 -0.0860  0.1374  0.0938
 1023YOPC   C2B13756   9.467  13.820   6.791 -0.0346 -0.3360  0.1911
 1023YOPC   D3B13757   9.587  13.815   7.229 -0.3090 -0.1327 -0.0073
 1023YOPC   C4B13758   9.616  13.726   7.707 -0.2720  0.1360 -0.0166
 1024YOPC   NC313759   7.604   0.539   5.624  0.0528  0.1234 -0.4124
 1024YOPC   PO413760   7.210   0.809   5.713 -0.0099  0.1760  0.1954
 1024YOPC   GL113761   7.254   1.016   6.057 -0.0139  0.2596 -0.1190
 1024YOPC   GL213762   6.987   1.240   6.265  0.0391 -0.2285 -0.3995
 1024YOPC   C1A13763   7.615   1.055   6.432  0.1638 -0.1837 -0.3623
 1024YOPC   D2A13764   7.902   1.312   6.551  0.0577 -0.2173  0.0419
 1024YOPC   C3A13765   7.968   1.288   7.065 -0.0680 -0.2446 -0.0470
 1024YOPC   C4A13766   8.182   1.435   7.466  0.0299  0.0038 -0.0094
 1024YOPC   C1B13767   7.178   1.146   6.632  0.4225 -0.1311 -0.0015
 1024YOPC   C2B13768   7.491   1.145   6.875 -0.2991  0.0200  0.0579
 1024YOPC   D3B13769   7.442   1.002   7.380 -0.5021  0.0844  0.1749
 1024YOPC   C4B13770   7.493   1.002   7.834  0.0994  0.0403  0.3193
 1025YOPC   NC313771  11.960  11.436   5.066 -0.2968 -0.3220 -0.5281
 1025YOPC   PO413772  11.777  11.477   5.503 -0.2614  0.0655 -0.0394
 1025YOPC   GL113773  11.944  11.510   5.955 -0.1597  0.2613 -0.1027
 1025YOPC   GL213774  12.273  11.633   5.922  0.0850  0.1123  0.2149
 1025YOPC   C1A13775  11.783  11.587   6.390 -0.0738 -0.1431 -0.0122
 1025YOPC   D2A13776  11.588  11.756   6.737 -0.1008 -0.0110 -0.0770
 1025YOPC   C3A13777  11.676  11.660   7.175 -0.0058 -0.2762  0.1914
 1025YOPC   C4A13778  11.519  11.516   7.561  0.0332  0.2128 -0.0849
 1025YOPC   C1B13779  12.311  11.428   6.257  0.0838 -0.0706 -0.0900
 1025YOPC   C2B13780  12.346  11.186   6.574  0.3107  0.0193  0.0771
 1025YOPC   D3B13781  12.099  11.301   7.006  0.2188 -0.1403  0.0014
 1025YOPC   C4B13782  11.924  11.282   7.348 -0.0031  0.0777  0.0224
 1026YOPC   NC313783   3.943   6.356   5.308  0.0692  0.0489 -0.2011
 1026YOPC   PO413784   4.244   6.619   5.543 -0.0188  0.0830 -0.0743
 1026YOPC   GL113785   4.082   6.748   5.907  0.1086  0.2207 -0.1820
 1026YOPC   GL213786   4.074   7.054   5.948  0.0438 -0.2592  0.2348
 1026YOPC   C1A13787   3.843   6.704   6.265 -0.4078 -0.0815 -0.2205
 1026YOPC   D2A13788   3.680   6.829   6.666  0.1897  0.2277 -0.1183
 1026YOPC   C3A13789   3.545   6.818   7.094 -0.2237 -0.0006 -0.0778
 1026YOPC   C4A13790   3.556   6.949   7.441 -0.0319  0.1029 -0.5244
 1026YOPC   C1B13791   3.756   7.219   6.199 -0.0765  0.0435  0.1170
 1026YOPC   C2B13792   3.682   7.576   6.295  0.0522  0.0568  0.1157
 1026YOPC   D3B13793   3.405   7.347   6.583 -0.2090 -0.0017 -0.1793
 1026YOPC   C4B13794   3.517   7.298   7.048  0.0621  0.2368  0.0422
 1027YOPC   NC313795   7.557   4.768   5.645 -0.2223 -0.3111 -0.0040
 1027YOPC   PO413796   7.512   5.185   5.797  0.0424 -0.1315  0.0323
 1027YOPC   GL113797   7.716   5.530   6.121 -0.1804  0.1518  0.0488
 1027YOPC   GL213798   7.996   5.346   6.162 -0.0406 -0.2679  0.0907
 1027YOPC   C1A13799   7.545   5.778   6.495  0.0844  0.3685 -0.0827
 1027YOPC   D2A13800   7.115   5.747   6.540  0.1275 -0.0275  0.0719
 1027YOPC   C3A13801   6.863   5.987   6.538 -0.2445 -0.1321  0.0999
 1027YOPC   C4A13802   6.619   6.143   6.614  0.2395  0.0548  0.0476
 1027YOPC   C1B13803   7.861   5.358   6.604 -0.1892 -0.3629 -0.0768
 1027YOPC   C2B13804   7.829   5.559   7.027 -0.3122 -0.1675 -0.0487
 1027YOPC   D3B13805   7.563   5.342   7.447  0.1421 -0.0379 -0.1303
 1027YOPC   C4B13806   7.323   5.259   7.805  0.1584 -0.2128 -0.1060
 1028YOPC   NC313807   3.445  15.759   5.560 -0.2360 -0.0310  0.0112
 1028YOPC   PO413808   3.724  15.898   5.954  0.1628  0.1236  0.0355
 1028YOPC   GL113809   3.697  15.688   6.317  0.1931  0.1360  0.1260
 1028YOPC   GL213810   3.529  15.339   6.429 -0.1072 -0.0469  0.0258
 1028YOPC   C1A13811   3.355  15.849   6.609  0.0945 -0.0637 -0.1268
 1028YOPC   D2A13812   3.503  16.208   6.895 -0.1626 -0.0199 -0.2174
 1028YOPC   C3A13813   3.348  16.286   7.325 -0.0554  0.0671 -0.4560
 1028YOPC   C4A13814   3.287  16.284   7.821 -0.0598 -0.0981 -0.2092
 1028YOPC   C1B13815   3.356  15.134   6.745 -0.0748 -0.2248  0.1655
 1028YOPC   C2B13816   3.458  15.042   7.075 -0.3754  0.3956  0.0270
 1028YOPC   D3B13817   3.219  15.223   7.489  0.4671  0.2180 -0.1950
 1028YOPC   C4B13818   3.173  15.439   7.814  0.1724  0.1383 -0.2337
 1029YOPC   NC313819  14.264  16.760   6.036  0.1164 -0.3527  0.3400
 1029YOPC   PO413820  14.440  16.317   6.094  0.0987  0.0566  0.1125
 1029YOPC   GL113821  14.540  16.133   6.506  0.3408  0.1917  0.2809
 1029YOPC   GL213822  14.546  16.432   6.613 -0.0264 -0.0181 -0.0622
 1029YOPC   C1A13823  14.610  15.860   6.749  0.2195 -0.1569  0.1413
 1029YOPC   D2A13824  15.050  15.713   7.000  0.1239  0.0250 -0.0916
 1029YOPC   C3A13825  15.048  15.539   7.378 -0.0108 -0.2442 -0.0418
 1029YOPC   C4A13826  15.387  15.266   7.613  0.0103  0.1082  0.1892
 1029YOPC   C1B13827  14.853  16.640   6.863  0.0095  0.1150  0.0748
 1029YOPC   C2B13828  14.974  16.894   7.215  0.1120 -0.0560 -0.0403
 1029YOPC   D3B13829  15.137  16.787   7.631  0.0492 -0.0720 -0.1332
 1029YOPC   C4B13830  15.053  16.834   7.967  0.1248  0.4594  0.2183
 1030YOPC   NC313831  11.620  17.577   5.623  0.0880  0.0786 -0.0757
 1030YOPC   PO413832  11.563  17.456   6.138  0.2239  0.1350  0.1768
 1030YOPC   GL113833  11.784  17.481   6.545 -0.2097 -0.0000  0.0481
 1030YOPC   GL213834  12.055  17.623   6.462 -0.1121  0.0582 -0.0051
 1030YOPC   C1A13835  11.689  17.448   7.107 -0.1978 -0.1986  0.0363
 1030YOPC   D2A13836  11.411  17.259   7.330  0.1905  0.1995  0.1108
 1030YOPC   C3A13837  11.376  16.825   7.335  0.0190  0.2408 -0.2229
 1030YOPC   C4A13838  11.149  16.512   7.345  0.0106 -0.2554  0.0077
 1030YOPC   C1B13839  12.140  17.527   6.904 -0.3237  0.0313 -0.0345
 1030YOPC   C2B13840  12.142  17.380   7.375 -0.0197 -0.1548  0.3280
 1030YOPC   D3B13841  11.891  17.324   7.573  0.3547  0.0345 -0.0590
 1030YOPC   C4B13842  11.560  17.190   7.810 -0.1485 -0.3283 -0.1766
 1031YOPC   NC313843  16.929   1.620   5.371 -0.2871  0.0611  0.0909
 1031YOPC   PO413844  16.969   2.052   5.471 -0.2444  0.0079 -0.3966
 1031YOPC   GL113845  17.145   2.278   5.837 -0.1159  0.0451  0.3166
 1031YOPC   GL213846  17.026   2.565   5.958 -0.0747 -0.2866 -0.2321
 1031YOPC   C1A13847  17.339   2.253   6.172  0.3104  0.2456  0.0339
 1031YOPC   D2A13848  17.355   2.334   6.678 -0.1070 -0.0224 -0.4038
 1031YOPC   C3A13849  17.265   2.151   7.128  0.0113 -0.2367  0.0041
 1031YOPC   C4A13850  16.895   1.956   7.327 -0.0494  0.0186 -0.1634
 1031YOPC   C1B13851  16.889   2.641   6.368 -0.0395  0.0631  0.1372
 1031YOPC   C2B13852  16.976   2.570   6.829  0.1898 -0.0225 -0.2483
 1031YOPC   D3B13853  16.823   2.795   7.197 -0.0330  0.1835  0.0788
 1031YOPC   C4B13854  17.014   3.112   7.554  0.0552 -0.4092  0.3269
 1032YOPC   NC313855  13.134  10.904   5.747  0.2111  0.0185  0.1427
 1032YOPC   PO413856  13.227  11.337   5.929  0.0021  0.2664  0.0763
 1032YOPC   GL113857  13.361  11.339   6.368  0.0936  0.2601  0.2864
 1032YOPC   GL213858  13.592  11.167   6.439 -0.2651  0.1377 -0.2510
 1032YOPC   C1A13859  13.362  11.335   6.894 -0.2070  0.2646  0.1273
 1032YOPC   D2A13860  13.121  11.328   7.285 -0.0966 -0.0366 -0.2472
 1032YOPC   C3A13861  13.172  11.111   7.678 -0.0119 -0.0012 -0.4152
 1032YOPC   C4A13862  13.327  11.131   8.027  0.2259  0.3011 -0.2722
 1032YOPC   C1B13863  13.371  10.876   6.641 -0.0227 -0.2493  0.1901
 1032YOPC   C2B13864  13.465  10.674   7.023  0.3484  0.0429 -0.2897
 1032YOPC   D3B13865  13.580  10.904   7.373  0.1116 -0.2688  0.0520
 1032YOPC   C4B13866  13.776  11.052   7.728 -0.1508 -0.2701  0.0483
 1033YOPC   NC313867  10.959  11.008   5.648  0.3310  0.1144  0.0658
 1033YOPC   PO413868  10.600  11.148   5.717 -0.2391  0.2426 -0.2453
 1033YOPC   GL113869  10.544  10.942   6.171 -0.1971  0.2674 -0.0146
 1033YOPC   GL213870  10.884  10.767   6.062 -0.0012 -0.0961  0.0279
 1033YOPC   C1A13871  10.455  10.840   6.665  0.0258  0.0817 -0.0488
 1033YOPC   D2A13872  10.389  10.622   7.090 -0.4354 -0.0592 -0.1849
 1033YOPC   C3A13873  10.649  10.819   7.436 -0.0783 -0.1743 -0.0924
 1033YOPC   C4A13874  10.583  11.207   7.648 -0.2371  0.1613  0.2608
 1033YOPC   C1B13875  10.874  10.527   6.474 -0.2444  0.3036 -0.1450
 1033YOPC   C2B13876  10.841  10.557   6.916  0.2954 -0.2144 -0.0022
 1033YOPC   D3B13877  10.796  10.349   7.291  0.1001 -0.0121 -0.1777
 1033YOPC   C4B13878  10.559  10.224   7.603  0.0811  0.0534 -0.1931
 1034YOPC   NC313879  15.726  11.809   5.785 -0.0288  0.1711 -0.0938
 1034YOPC   PO413880  16.189  11.722   5.754  0.4197  0.1309  0.1617
 1034YOPC   GL113881  16.469  11.709   6.111 -0.0640  0.3739  0.1431
 1034YOPC   GL213882  16.667  11.396   5.879  0.2130 -0.4481  0.2716
 1034YOPC   C1A13883  16.463  11.708   6.565  0.1239 -0.2353  0.2405
 1034YOPC   D2A13884  16.324  11.734   6.952  0.2388 -0.2048  0.0197
 1034YOPC   C3A13885  16.380  12.079   7.194  0.0906 -0.0082 -0.2292
 1034YOPC   C4A13886  16.805  12.105   7.465 -0.0672  0.2839 -0.2161
 1034YOPC   C1B13887  16.703  11.240   6.382 -0.1125  0.0082 -0.1691
 1034YOPC   C2B13888  17.016  10.881   6.713 -0.4713 -0.0524  0.3589
 1034YOPC   D3B13889  17.241  11.127   6.928  0.2281  0.1633  0.1504
 1034YOPC   C4B13890  17.720  11.414   6.973 -0.1608 -0.0711 -0.1737
 1035YOPC   NC313891  18.409  10.737   5.362  0.0199 -0.0436 -0.3168
 1035YOPC   PO413892  18.501  11.053   5.629  0.1773  0.0630  0.3674
 1035YOPC   GL113893  18.578  10.924   5.962 -0.2201  0.0013  0.1987
 1035YOPC   GL213894  18.727  10.613   5.716  0.1588  0.1357 -0.0993
 1035YOPC   C1A13895  18.611  10.873   6.422  0.0987  0.0103  0.3132
 1035YOPC   D2A13896  18.613  10.896   6.863  0.2947  0.1439  0.0239
 1035YOPC   C3A13897  18.869  10.949   7.209  0.0032 -0.1292 -0.1380
 1035YOPC   C4A13898  18.877  10.860   7.639  0.1627  0.2420  0.0361
 1035YOPC   C1B13899  18.668  10.446   6.126  0.3922  0.0810  0.0190
 1035YOPC   C2B13900  18.349  10.441   6.568  0.1841  0.0116  0.3113
 1035YOPC   D3B13901  18.379  10.164   6.845 -0.1814 -0.1901 -0.2631
 1035YOPC   C4B13902  18.630   9.841   7.026 -0.5231  0.3935  0.2685
 1036YOPC   NC313903  17.655   8.264   4.907 -0.2770  0.0915 -0.3378
 1036YOPC   PO413904  18.041   8.274   5.104 -0.4555  0.1225  0.3413
 1036YOPC   GL113905  18.200   8.583   5.467  0.1944 -0.2187 -0.1854
 1036YOPC   GL213906  18.418   8.348   5.534 -0.1356  0.1755  0.0941
 1036YOPC   C1A13907  18.054   8.461   5.913  0.0507 -0.1327  0.3269
 1036YOPC   D2A13908  18.286   8.421   6.399  0.1150 -0.0777 -0.1171
 1036YOPC   C3A13909  18.354   8.251   6.731  0.0187  0.1522 -0.2233
 1036YOPC   C4A13910  17.986   8.120   6.971  0.0153  0.2194  0.1569
 1036YOPC   C1B13911  18.392   8.103   5.894 -0.2743 -0.0833 -0.0365
 1036YOPC   C2B13912  18.345   7.895   6.297  0.0312 -0.1330  0.0328
 1036YOPC   D3B13913  18.050   7.796   6.562 -0.0676 -0.1420  0.2187
 1036YOPC   C4B13914  17.594   7.912   6.704  0.1137  0.2944  0.2692
 1037YOPC   NC313915  17.500  10.717   4.406  0.0028 -0.1559 -0.2341
 1037YOPC   PO413916  17.244  10.398   4.733  0.1893 -0.2154 -0.2929
 1037YOPC   GL113917  17.366  10.382   5.119  0.0846  0.2038 -0.1668
 1037YOPC   GL213918  17.637  10.099   5.194  0.2055  0.2480  0.1207
 1037YOPC   C1A13919  17.417  10.221   5.635 -0.1755  0.0877  0.0570
 1037YOPC   D2A13920  17.599  10.051   6.060 -0.2480  0.0568  0.1519
 1037YOPC   C3A13921  17.732   9.566   6.153  0.0096 -0.1166 -0.1442
 1037YOPC   C4A13922  17.642   9.148   6.061  0.1716  0.0823  0.0508
 1037YOPC   C1B13923  17.559   9.765   5.463 -0.0449 -0.1267 -0.0394
 1037YOPC   C2B13924  17.203   9.412   5.383 -0.3824 -0.1407  0.0499
 1037YOPC   D3B13925  17.205   9.194   5.768  0.2527 -0.3198 -0.1730
 1037YOPC   C4B13926  17.066   9.264   6.076  0.1162  0.0390 -0.1339
 1038YOPC   NC313927  13.703   9.844   5.870  0.1014 -0.1610 -0.1382
 1038YOPC   PO413928  13.862   9.454   5.860 -0.0421  0.1034 -0.0419
 1038YOPC   GL113929  13.834   9.549   6.214  0.1042 -0.0786 -0.2036
 1038YOPC   GL213930  14.072   9.560   6.330  0.0033 -0.1113  0.0398
 1038YOPC   C1A13931  13.585   9.722   6.614  0.1647  0.0587  0.1796
 1038YOPC   D2A13932  13.678   9.682   7.012  0.1057  0.2121  0.1977
 1038YOPC   C3A13933  13.609   9.850   7.342  0.0886 -0.3224  0.2043
 1038YOPC   C4A13934  13.602   9.737   7.789  0.0598 -0.0538 -0.2513
 1038YOPC   C1B13935  14.119   9.619   6.779 -0.2630 -0.1345 -0.2384
 1038YOPC   C2B13936  14.177   9.634   7.048 -0.1693  0.1321 -0.1648
 1038YOPC   D3B13937  14.136   9.848   7.376  0.0764  0.2862  0.0346
 1038YOPC   C4B13938  13.963  10.047   7.724 -0.3783 -0.0267 -0.5118
 1039YOPC   NC313939  17.530   4.378   5.194  0.2079 -0.2477 -0.0480
 1039YOPC   PO413940  17.097   4.334   5.165 -0.5469 -0.1078 -0.1210
 1039YOPC   GL113941  17.177   4.400   5.545 -0.0112 -0.3374  0.1764
 1039YOPC   GL213942  17.202   4.669   5.728 -0.0714 -0.0117  0.1422
 1039YOPC   C1A13943  17.185   4.229   5.953  0.0951  0.0324 -0.0180
 1039YOPC   D2A13944  17.617   3.956   6.077  0.0247  0.2315 -0.2134
 1039YOPC   C3A13945  17.647   4.085   6.595 -0.0783 -0.3243  0.0053
 1039YOPC   C4A13946  17.644   4.299   6.988  0.3022 -0.0101 -0.0787
 1039YOPC   C1B13947  16.954   4.625   6.107 -0.0411 -0.2219 -0.1431
 1039YOPC   C2B13948  16.941   4.674   6.468  0.0460 -0.0696  0.1048
 1039YOPC   D3B13949  16.677   4.696   6.831  0.0912 -0.1650 -0.2300
 1039YOPC   C4B13950  16.580   4.598   7.275  0.2068  0.0200  0.0756
 1040YOPC   NC313951  16.240  18.003   5.718 -0.0786  0.2116  0.2071
 1040YOPC   PO413952  16.607  18.141   5.948  0.0848 -0.0506 -0.1904
 1040YOPC   GL113953  16.543  18.172   6.410 -0.4582  0.1383 -0.0650
 1040YOPC   GL213954  16.532  18.440   6.622 -0.0450 -0.0585 -0.1533
 1040YOPC   C1A13955  16.528  17.942   6.816  0.1324 -0.1663 -0.2020
 1040YOPC   D2A13956  16.442  17.775   7.204  0.1680  0.0074  0.2544
 1040YOPC   C3A13957  16.157  17.755   7.563  0.0399 -0.2459 -0.0896
 1040YOPC   C4A13958  15.882  17.547   7.862 -0.1011 -0.0562  0.1481
 1040YOPC   C1B13959  16.234  18.554   6.908  0.2590  0.0443 -0.0984
 1040YOPC   C2B13960  16.042  18.556   7.315 -0.0046  0.3087  0.1472
 1040YOPC   D3B13961  15.985  18.913   7.428  0.2864 -0.2485 -0.2321
 1040YOPC   C4B13962  15.656  19.076   7.846 -0.0200 -0.2481  0.0004
 1041YOPC   NC313963   7.379  16.254   5.479 -0.3407 -0.4530  0.0402
 1041YOPC   PO413964   7.255  16.578   5.337  0.4371  0.0005  0.0158
 1041YOPC   GL113965   7.365  16.744   5.727 -0.1501 -0.2046 -0.0589
 1041YOPC   GL213966   7.597  16.774   6.024 -0.2133  0.1169  0.3787
 1041YOPC   C1A13967   7.184  16.539   6.087  0.1858  0.2139 -0.2575
 1041YOPC   D2A13968   6.872  16.454   6.342 -0.0561 -0.0691 -0.1800
 1041YOPC   C3A13969   6.894  16.298   6.650 -0.0090  0.1157 -0.0213
 1041YOPC   C4A13970   6.874  16.272   7.121 -0.0352 -0.0750 -0.0910
 1041YOPC   C1B13971   7.623  16.792   6.426 -0.0822  0.0140 -0.0346
 1041YOPC   C2B13972   7.626  16.901   6.900  0.0181  0.1387  0.1234
 1041YOPC   D3B13973   7.587  16.819   7.365  0.1865  0.2537  0.3895
 1041YOPC   C4B13974   7.534  16.820   7.764  0.0896  0.1350  0.1252
 1042YOPC   NC313975  13.795   3.909   5.733  0.2435  0.1739 -0.1114
 1042YOPC   PO413976  13.472   4.311   5.704 -0.2745  0.1677  0.3227
 1042YOPC   GL113977  13.615   4.459   6.086  0.1440  0.0876  0.1076
 1042YOPC   GL213978  13.669   4.116   6.327  0.0035  0.0477  0.1841
 1042YOPC   C1A13979  13.638   4.725   6.479  0.0123 -0.0756  0.4146
 1042YOPC   D2A13980  13.716   4.864   6.857  0.1110 -0.0525  0.2803
 1042YOPC   C3A13981  13.669   4.644   7.301 -0.5359 -0.0226  0.0441
 1042YOPC   C4A13982  13.731   4.394   7.729 -0.2067 -0.1349  0.2098
 1042YOPC   C1B13983  13.274   3.939   6.494 -0.1003 -0.1040 -0.0903
 1042YOPC   C2B13984  12.898   3.821   6.693  0.1889 -0.3007 -0.1986
 1042YOPC   D3B13985  12.866   3.762   7.142 -0.1835  0.2737 -0.0259
 1042YOPC   C4B13986  13.046   3.654   7.560 -0.1871  0.1404 -0.1140
 1043YOPC   NC313987  15.521   1.549   5.735  0.0867  0.1276 -0.5987
 1043YOPC   PO413988  15.651   1.074   5.756 -0.2658 -0.4576 -0.3962
 1043YOPC   GL113989  15.567   1.022   6.237  0.1638 -0.2024  0.1850
 1043YOPC   GL213990  15.351   0.883   6.480  0.1312 -0.2165 -0.1082
 1043YOPC   C1A13991  15.662   1.256   6.629 -0.1066  0.0319 -0.0990
 1043YOPC   D2A13992  15.915   1.737   6.596  0.0641  0.0105 -0.1449
 1043YOPC   C3A13993  15.796   2.111   6.501 -0.3096  0.1798 -0.0759
 1043YOPC   C4A13994  15.790   2.585   6.542 -0.2712  0.0434 -0.1089
 1043YOPC   C1B13995  15.440   0.940   6.935  0.2547  0.2605 -0.1372
 1043YOPC   C2B13996  15.597   1.080   7.257 -0.1280 -0.0823  0.0436
 1043YOPC   D3B13997  15.642   0.914   7.629 -0.1998  0.2339 -0.0547
 1043YOPC   C4B13998  15.804   1.132   7.927  0.0802 -0.4666  0.1823
 1044YOPC   NC313999  10.473   0.449   6.379  0.1472  0.0141 -0.3782
 1044YOPC   PO414000  10.008   0.579   6.335  0.2335  0.2176  0.1565
 1044YOPC   GL114001   9.805   0.562   6.646 -0.0878  0.5633  0.0399
 1044YOPC   GL214002   9.770   0.130   6.582 -0.2589 -0.0739  0.0409
 1044YOPC   C1A14003   9.717   0.395   7.055 -0.1794  0.1184 -0.0288
 1044YOPC   D2A14004   9.619   0.248   7.503 -0.1664 -0.0509 -0.3143
 1044YOPC   C3A14005   9.364   0.019   7.854  0.4210 -0.0589 -0.0882
 1044YOPC   C4A14006   9.145  -0.046   8.294 -0.3211 -0.2081 -0.3353
 1044YOPC   C1B14007   9.560  -0.107   6.986  0.1894 -0.0050  0.0249
 1044YOPC   C2B14008   9.402  -0.226   7.400 -0.2379  0.1948  0.3258
 1044YOPC   D3B14009   9.041  -0.055   7.310 -0.0572  0.2503 -0.2824
 1044YOPC   C4B14010   8.680   0.209   7.422  0.1395 -0.0231  0.0253
 1045YOPC   NC314011   7.268  14.545   5.279 -0.1421 -0.0348  0.2392
 1045YOPC   PO414012   6.969  14.776   5.354 -0.0500  0.1664  0.1087
 1045YOPC   GL114013   7.224  14.844   5.724  0.0281  0.0016 -0.3765
 1045YOPC   GL214014   7.007  14.928   5.833  0.1725  0.3882  0.0914
 1045YOPC   C1A14015   7.381  15.029   6.283  0.2611  0.1548 -0.1600
 1045YOPC   D2A14016   7.085  15.119   6.586 -0.1623 -0.2134  0.3438
 1045YOPC   C3A14017   7.215  15.152   7.003  0.0464  0.0582 -0.0629
 1045YOPC   C4A14018   7.039  15.016   7.453 -0.1179  0.0697 -0.1554
 1045YOPC   C1B14019   6.971  14.746   6.239 -0.0833 -0.0012  0.2318
 1045YOPC   C2B14020   7.217  14.648   6.637 -0.0992  0.3919 -0.0266
 1045YOPC   D3B14021   7.296  14.200   6.762 -0.0215  0.2716  0.2486
 1045YOPC   C4B14022   7.318  14.123   7.152 -0.1149  0.0682  0.0280
 1046YOPC   NC314023   3.422  14.589   5.082 -0.5356  0.3148  0.1125
 1046YOPC   PO414024   3.223  14.347   5.509 -0.1699  0.5242 -0.1260
 1046YOPC   GL114025   3.124  14.103   5.866  0.1158  0.2376  0.0351
 1046YOPC   GL214026   3.385  14.013   6.169  0.0116  0.1203 -0.1366
 1046YOPC   C1A14027   2.904  14.128   6.269 -0.0521  0.3690 -0.3475
 1046YOPC   D2A14028   2.947  14.184   6.683 -0.3392  0.2091 -0.4088
 1046YOPC   C3A14029   2.673  14.288   6.994  0.0131  0.3603  0.0423
 1046YOPC   C4A14030   2.757  14.088   7.363  0.1784  0.3733  0.0991
 1046YOPC   C1B14031   3.435  14.042   6.574  0.2229  0.0387  0.0161
 1046YOPC   C2B14032   3.712  13.755   6.865 -0.0836 -0.0628 -0.0792
 1046YOPC   D3B14033   3.545  13.653   7.164  0.2726  0.1334  0.0719
 1046YOPC   C4B14034   3.162  13.380   7.211  0.0287 -0.1216  0.0826
 1047YOPC   NC314035  17.577  14.355   5.317  0.0378 -0.1648 -0.0557
 1047YOPC   PO414036  17.903  14.621   5.208  0.2873 -0.0443  0.0774
 1047YOPC   GL114037  17.754  14.577   5.728  0.3008 -0.0350 -0.4960
 1047YOPC   GL214038  17.506  14.385   5.799 -0.1365 -0.0338  0.1644
 1047YOPC   C1A14039  17.729  14.648   6.196 -0.3491  0.2445 -0.2330
 1047YOPC   D2A14040  17.907  14.474   6.521 -0.0413  0.3477  0.4048
 1047YOPC   C3A14041  17.865  14.484   6.933 -0.0312 -0.1962 -0.2269
 1047YOPC   C4A14042  17.778  14.475   7.355 -0.1088  0.0060  0.1907
 1047YOPC   C1B14043  17.747  14.098   6.101 -0.1730 -0.2166  0.2223
 1047YOPC   C2B14044  17.887  13.734   6.250  0.0300 -0.1820  0.0420
 1047YOPC   D3B14045  17.840  13.505   6.716 -0.2585 -0.0185  0.4891
 1047YOPC   C4B14046  17.788  13.311   7.112 -0.3175 -0.2457  0.1447
 1048YOPC   NC314047   3.649   9.104   5.137 -0.0316  0.2204 -0.0171
 1048YOPC   PO414048   3.674   8.732   5.138 -0.3597 -0.1026  0.1181
 1048YOPC   GL114049   3.630   8.743   5.722  0.2586 -0.1800 -0.1034
 1048YOPC   GL214050   3.853   8.903   5.752  0.0762 -0.0202  0.0221
 1048YOPC   C1A14051   3.512   8.457   6.039 -0.2359  0.0638  0.2084
 1048YOPC   D2A14052   3.483   8.503   6.471  0.0291  0.0978 -0.0511
 1048YOPC   C3A14053   3.402   8.271   6.882  0.0636  0.3329 -0.2790
 1048YOPC   C4A14054   3.229   8.181   7.292  0.0141 -0.0248 -0.2087
 1048YOPC   C1B14055   3.773   8.981   6.192 -0.1229  0.1444  0.0782
 1048YOPC   C2B14056   3.903   8.923   6.664  0.1239 -0.0705 -0.0482
 1048YOPC   D3B14057   3.659   8.840   6.957 -0.0808 -0.1279  0.3080
 1048YOPC   C4B14058   3.375   8.904   7.337  0.3857  0.3629 -0.0224
 1049YOPC   NC314059   4.614  10.290   5.544  0.0780  0.0702  0.0879
 1049YOPC   PO414060   4.642   9.855   5.599 -0.3363  0.1239 -0.0540
 1049YOPC   GL114061   4.792  10.163   6.002  0.5436 -0.3530 -0.2944
 1049YOPC   GL214062   4.856  10.550   5.864  0.3076  0.1233  0.1098
 1049YOPC   C1A14063   4.739  10.148   6.493 -0.0364 -0.0949  0.1340
 1049YOPC   D2A14064   4.533   9.804   6.820 -0.0601 -0.0308  0.1032
 1049YOPC   C3A14065   4.749   9.704   7.258  0.2459  0.2538  0.0191
 1049YOPC   C4A14066   5.176   9.804   7.416 -0.1348  0.2139 -0.0902
 1049YOPC   C1B14067   5.236  10.510   5.920  0.2718  0.0675  0.0359
 1049YOPC   C2B14068   5.542  10.399   6.251  0.1521 -0.0300 -0.0141
 1049YOPC   D3B14069   5.257  10.125   6.346 -0.1885 -0.0964  0.2654
 1049YOPC   C4B14070   5.043   9.722   6.188  0.4124  0.3099  0.0232
 1050YOPC   NC314071   2.831   9.890   5.182  0.0098 -0.1294  0.2679
 1050YOPC   PO414072   3.267  10.073   5.199  0.0835 -0.0104  0.0415
 1050YOPC   GL114073   3.208  10.410   5.546  0.1105 -0.1586  0.0322
 1050YOPC   GL214074   3.232  10.778   5.519 -0.0633 -0.0436  0.0017
 1050YOPC   C1A14075   2.911  10.498   5.824 -0.1688 -0.1815  0.1258
 1050YOPC   D2A14076   2.867  10.525   6.308 -0.3217 -0.2968  0.3740
 1050YOPC   C3A14077   2.557  10.766   6.203  0.0540 -0.3868 -0.0786
 1050YOPC   C4A14078   2.476  11.121   5.981  0.1322  0.1371 -0.3189
 1050YOPC   C1B14079   2.989  11.004   5.928  0.1127  0.4243 -0.0273
 1050YOPC   C2B14080   2.867  11.140   6.366  0.0322 -0.2499  0.0316
 1050YOPC   D3B14081   3.052  11.459   6.463 -0.0048  0.0610 -0.0935
 1050YOPC   C4B14082   3.408  11.784   6.586 -0.0564  0.1022 -0.1432
 1051YOPC   NC314083   9.762   4.351   5.641 -0.1346  0.0108 -0.2930
 1051YOPC   PO414084   9.884   4.463   6.098  0.2146 -0.0142  0.0035
 1051YOPC   GL114085   9.485   4.453   6.354 -0.2185  0.0170  0.2331
 1051YOPC   GL214086   9.232   4.221   6.317  0.0273  0.1885 -0.3867
 1051YOPC   C1A14087   9.506   4.291   6.779  0.7025 -0.0259 -0.0410
 1051YOPC   D2A14088   9.613   4.435   7.206  0.2037 -0.0280  0.1303
 1051YOPC   C3A14089   9.504   4.560   7.551  0.0287  0.3268  0.2019
 1051YOPC   C4A14090   9.264   4.581   7.931  0.1168  0.1081 -0.1541
 1051YOPC   C1B14091   8.953   4.137   6.720 -0.0048  0.2413 -0.1298
 1051YOPC   C2B14092   8.835   4.138   7.190 -0.0146 -0.2220 -0.1230
 1051YOPC   D3B14093   8.571   3.920   7.301  0.1610  0.0135  0.1766
 1051YOPC   C4B14094   8.335   3.677   7.598 -0.0810 -0.0649  0.0577
 1052YOPC   NC314095   5.131  18.141   5.743 -0.2217 -0.1223  0.1200
 1052YOPC   PO414096   4.993  17.855   5.913  0.3828  0.1106  0.0643
 1052YOPC   GL114097   5.115  17.781   6.284 -0.1043 -0.0036 -0.2391
 1052YOPC   GL214098   5.166  17.444   6.231  0.1945  0.1932 -0.0685
 1052YOPC   C1A14099   5.329  18.003   6.570  0.0845 -0.1604  0.0821
 1052YOPC   D2A14100   5.292  17.776   6.982 -0.0830 -0.0343 -0.3842
 1052YOPC   C3A14101   5.367  17.910   7.442 -0.0669  0.0961 -0.0212
 1052YOPC   C4A14102   5.693  18.077   7.625  0.1144  0.3330 -0.3943
 1052YOPC   C1B14103   5.015  17.355   6.702  0.1855 -0.0531  0.3655
 1052YOPC   C2B14104   5.303  17.217   7.076 -0.2984  0.4286 -0.0464
 1052YOPC   D3B14105   5.320  17.420   7.356  0.0680  0.1066  0.0291
 1052YOPC   C4B14106   5.463  17.370   7.769 -0.0130 -0.1135  0.1114
 1053YOPC   NC314107  14.384  17.490   5.637 -0.2701  0.0921  0.0367
 1053YOPC   PO414108  14.240  17.253   5.964  0.2268 -0.2247  0.0384
 1053YOPC   GL114109  14.500  17.273   6.408 -0.0556 -0.0413 -0.1359
 1053YOPC   GL214110  14.475  16.923   6.518 -0.1402 -0.0477 -0.1594
 1053YOPC   C1A14111  14.752  17.178   6.857  0.0785 -0.2193 -0.0489
 1053YOPC   D2A14112  14.957  17.338   7.293 -0.1340 -0.0454 -0.0264
 1053YOPC   C3A14113  14.715  17.082   7.644 -0.3387  0.0343 -0.2621
 1053YOPC   C4A14114  14.500  16.986   8.035  0.0052 -0.1142  0.1340
 1053YOPC   C1B14115  14.204  17.200   6.792 -0.3113  0.1070  0.1473
 1053YOPC   C2B14116  14.339  17.356   7.128  0.2309  0.0185 -0.0446
 1053YOPC   D3B14117  14.249  17.231   7.481 -0.1793  0.0587 -0.0136
 1053YOPC   C4B14118  14.180  16.873   7.588 -0.0283 -0.0235 -0.1501
 1054YOPC   NC314119   3.826  17.597   5.218  0.2094 -0.0522  0.2097
 1054YOPC   PO414120   4.062  17.762   5.539  0.0419  0.0938 -0.0082
 1054YOPC   GL114121   4.026  17.599   5.962  0.0357  0.1555 -0.1488
 1054YOPC   GL214122   3.713  17.691   6.078  0.3682 -0.0516 -0.0501
 1054YOPC   C1A14123   4.000  17.544   6.491 -0.1073 -0.0441 -0.2625
 1054YOPC   D2A14124   3.882  17.720   6.813  0.0592 -0.2076 -0.1864
 1054YOPC   C3A14125   3.952  17.730   7.215 -0.1564 -0.0011  0.1065
 1054YOPC   C4A14126   4.050  17.607   7.538  0.0114 -0.1102 -0.2679
 1054YOPC   C1B14127   3.516  17.858   6.461  0.0847  0.1128  0.1337
 1054YOPC   C2B14128   3.428  17.863   6.893  0.4440 -0.1533  0.2748
 1054YOPC   D3B14129   3.472  17.555   7.173 -0.0880 -0.1783 -0.0023
 1054YOPC   C4B14130   3.546  17.506   7.534  0.0209  0.0967 -0.0851
 1055YOPC   NC314131  18.368  14.645   5.164 -0.0148 -0.2786 -0.1899
 1055YOPC   PO414132  18.220  14.346   5.465 -0.1156  0.0359 -0.1469
 1055YOPC   GL114133  18.277  14.199   5.887 -0.4259  0.0876  0.1287
 1055YOPC   GL214134  18.282  14.465   6.036 -0.1796  0.5034 -0.3705
 1055YOPC   C1A14135  18.212  14.098   6.388  0.0901  0.2007 -0.1005
 1055YOPC   D2A14136  18.120  14.072   6.793  0.1807  0.3611  0.2112
 1055YOPC   C3A14137  17.827  13.845   7.080 -0.1914 -0.0069  0.0754
 1055YOPC   C4A14138  17.396  13.582   6.959 -0.1802 -0.1594  0.0497
 1055YOPC   C1B14139  18.688  14.661   6.166  0.0930  0.1425 -0.0844
 1055YOPC   C2B14140  18.918  14.739   6.491  0.0441  0.1809 -0.1911
 1055YOPC   D3B14141  18.862  14.318   6.859  0.1184 -0.4195  0.1296
 1055YOPC   C4B14142  18.607  13.998   6.897  0.0657  0.0393  0.3361
 1056YOPC   NC314143   1.639   2.185   5.485 -0.0302  0.0520  0.0565
 1056YOPC   PO414144   1.743   2.479   5.276 -0.0661  0.0827 -0.0169
 1056YOPC   GL114145   1.767   2.571   5.778 -0.1379  0.1339  0.1817
 1056YOPC   GL214146   1.844   2.792   5.889 -0.0363  0.3151 -0.1142
 1056YOPC   C1A14147   1.678   2.306   6.129 -0.1851 -0.2920  0.4025
 1056YOPC   D2A14148   1.660   2.412   6.541 -0.1205  0.0277 -0.0316
 1056YOPC   C3A14149   1.904   2.852   6.747 -0.1463  0.3198 -0.1421
 1056YOPC   C4A14150   2.103   3.048   6.978  0.3506  0.0953 -0.1600
 1056YOPC   C1B14151   1.689   2.853   6.252 -0.0574 -0.3892  0.1188
 1056YOPC   C2B14152   1.429   2.910   6.690  0.2321 -0.1736 -0.1189
 1056YOPC   D3B14153   1.544   3.018   7.082  0.2473 -0.0880 -0.4567
 1056YOPC   C4B14154   1.833   3.089   7.376  0.1140 -0.2302  0.1953
 1057YOPC   NC314155   5.328  13.175   5.249 -0.1241  0.0176 -0.4718
 1057YOPC   PO414156   5.312  13.379   5.703 -0.0794 -0.1304 -0.2692
 1057YOPC   GL114157   5.252  13.496   6.195 -0.0729  0.2552  0.1114
 1057YOPC   GL214158   4.915  13.398   6.216  0.1372  0.2117 -0.1151
 1057YOPC   C1A14159   5.293  13.271   6.477 -0.1223  0.0447  0.1467
 1057YOPC   D2A14160   5.266  13.352   6.899  0.0704  0.1998 -0.0517
 1057YOPC   C3A14161   5.350  13.250   7.138 -0.0346 -0.0467  0.3832
 1057YOPC   C4A14162   5.454  13.183   7.520 -0.2228 -0.1147  0.1968
 1057YOPC   C1B14163   4.913  13.604   6.549  0.1473  0.2828  0.0873
 1057YOPC   C2B14164   4.913  13.781   6.965  0.1484  0.0005 -0.1763
 1057YOPC   D3B14165   5.060  13.616   7.394 -0.0289 -0.0890 -0.0417
 1057YOPC   C4B14166   5.067  13.778   7.839 -0.2488 -0.0123  0.1060
 1058YOPC   NC314167   6.855  13.640   5.591 -0.0884 -0.1550  0.1176
 1058YOPC   PO414168   6.603  13.955   5.733 -0.0769 -0.0306 -0.1110
 1058YOPC   GL114169   6.816  14.167   6.036  0.0046 -0.1827 -0.0889
 1058YOPC   GL214170   6.918  14.427   5.918 -0.2792  0.2478 -0.1921
 1058YOPC   C1A14171   6.881  14.297   6.434 -0.3223 -0.0639  0.2745
 1058YOPC   D2A14172   6.824  14.359   6.839 -0.0494  0.1660 -0.1389
 1058YOPC   C3A14173   7.133  14.629   7.130 -0.1789  0.1950  0.1019
 1058YOPC   C4A14174   7.233  14.468   7.517 -0.4023 -0.2972 -0.3023
 1058YOPC   C1B14175   7.407  14.534   6.074  0.1824  0.3281  0.0034
 1058YOPC   C2B14176   7.430  14.280   6.277 -0.0072 -0.2820 -0.1250
 1058YOPC   D3B14177   7.797  14.183   6.291 -0.1654  0.0056  0.0436
 1058YOPC   C4B14178   8.046  13.985   6.511  0.0988 -0.0712  0.1260
 1059YOPC   NC314179  11.636  13.992   5.807 -0.2412  0.0821 -0.1531
 1059YOPC   PO414180  11.556  14.422   5.708 -0.1047  0.0179  0.0065
 1059YOPC   GL114181  11.212  14.537   6.035  0.0745  0.1716  0.2017
 1059YOPC   GL214182  11.004  14.226   6.038 -0.4201 -0.0660  0.0310
 1059YOPC   C1A14183  11.019  14.504   6.477  0.0364 -0.0288  0.2022
 1059YOPC   D2A14184  11.043  14.249   6.787 -0.0430 -0.1594  0.2104
 1059YOPC   C3A14185  11.143  14.558   7.070 -0.0246  0.1575  0.2710
 1059YOPC   C4A14186  11.461  14.709   7.411  0.1323  0.1948 -0.3742
 1059YOPC   C1B14187  11.199  14.041   6.388 -0.1212  0.3100 -0.0704
 1059YOPC   C2B14188  11.474  13.973   6.719  0.2966 -0.1055  0.1869
 1059YOPC   D3B14189  11.575  14.100   7.048 -0.2527 -0.5311 -0.2418
 1059YOPC   C4B14190  11.593  14.253   7.398 -0.1319 -0.2035  0.1613
 1060YOPC   NC314191   2.763  17.295   5.295 -0.0678  0.0358 -0.2269
 1060YOPC   PO414192   3.267  17.262   5.445  0.0747  0.0582 -0.1270
 1060YOPC   GL114193   3.331  17.394   5.884 -0.2240 -0.0606 -0.1088
 1060YOPC   GL214194   3.241  17.798   5.978 -0.1120  0.0000  0.0612
 1060YOPC   C1A14195   3.310  17.383   6.371 -0.0830  0.1448 -0.0992
 1060YOPC   D2A14196   3.512  17.425   6.679 -0.0663 -0.2805 -0.2279
 1060YOPC   C3A14197   3.873  17.258   6.986  0.3762  0.1838  0.2013
 1060YOPC   C4A14198   4.024  17.174   7.340 -0.0960 -0.3638  0.0037
 1060YOPC   C1B14199   3.044  17.923   6.319  0.1280 -0.2759  0.2586
 1060YOPC   C2B14200   3.091  18.249   6.507  0.0767 -0.0738  0.1104
 1060YOPC   D3B14201   3.319  18.351   6.674  0.3707 -0.2586 -0.0268
 1060YOPC   C4B14202   3.306  18.382   7.050 -0.2054  0.0509  0.2363
 1061YOPC   NC314203   4.773   3.526   5.549  0.0653  0.2175 -0.1548
 1061YOPC   PO414204   4.428   3.784   5.455 -0.3624 -0.1149  0.2868
 1061YOPC   GL114205   4.516   3.868   5.924 -0.0270 -0.0112 -0.0681
 1061YOPC   GL214206   4.545   4.201   6.090  0.0989 -0.2459 -0.0333
 1061YOPC   C1A14207   4.438   3.731   6.370 -0.0919 -0.2302  0.1302
 1061YOPC   D2A14208   4.489   3.515   6.726 -0.0136 -0.1283 -0.3655
 1061YOPC   C3A14209   4.569   3.661   7.116 -0.0602  0.2854 -0.2285
 1061YOPC   C4A14210   4.480   3.736   7.513  0.2913  0.0496 -0.2104
 1061YOPC   C1B14211   4.320   4.259   6.474  0.3991 -0.0513  0.2383
 1061YOPC   C2B14212   4.188   3.968   6.921 -0.2673 -0.0077  0.1889
 1061YOPC   D3B14213   4.153   4.041   7.324  0.2237  0.0618 -0.0052
 1061YOPC   C4B14214   3.941   4.307   7.617 -0.3330 -0.0101 -0.3687
 1062YOPC   NC314215  16.451  16.421   5.579 -0.1794  0.2980  0.3265
 1062YOPC   PO414216  16.924  16.330   5.484 -0.0138  0.5073  0.0246
 1062YOPC   GL114217  16.826  16.253   5.933  0.3661  0.1576 -0.0963
 1062YOPC   GL214218  16.450  16.166   6.038  0.2719  0.3424  0.2282
 1062YOPC   C1A14219  17.032  16.450   6.354 -0.0112  0.2230  0.1613
 1062YOPC   D2A14220  16.975  16.449   6.732  0.2280  0.1696  0.1292
 1062YOPC   C3A14221  16.612  16.540   6.852  0.1901  0.0415 -0.1629
 1062YOPC   C4A14222  16.217  16.468   6.983 -0.0930  0.1639  0.2003
 1062YOPC   C1B14223  16.541  16.450   6.307  0.0663  0.0550  0.1057
 1062YOPC   C2B14224  16.759  16.831   6.482 -0.0390  0.1537  0.1606
 1062YOPC   D3B14225  16.835  17.264   6.498  0.1266  0.0633  0.0542
 1062YOPC   C4B14226  16.734  17.630   6.467  0.0632  0.4254 -0.2493
 1063YOPC   NC314227  15.944   6.165   4.679  0.0825 -0.0019 -0.1983
 1063YOPC   PO414228  15.908   5.728   4.770  0.0737  0.1005  0.0436
 1063YOPC   GL114229  15.893   5.715   5.254  0.1299  0.1926 -0.0988
 1063YOPC   GL214230  15.701   5.635   5.518  0.3776 -0.1503  0.2852
 1063YOPC   C1A14231  16.161   5.698   5.644  0.0627 -0.3387 -0.0966
 1063YOPC   D2A14232  16.177   5.773   6.119  0.0968  0.0763 -0.2058
 1063YOPC   C3A14233  16.516   5.745   6.397  0.0543 -0.0075  0.2019
 1063YOPC   C4A14234  16.532   5.563   6.785  0.1507  0.0892  0.0519
 1063YOPC   C1B14235  15.676   5.368   5.833  0.0163  0.0132  0.3606
 1063YOPC   C2B14236  15.361   5.130   6.054  0.0680 -0.1520  0.2852
 1063YOPC   D3B14237  15.410   4.631   6.128  0.2742 -0.1737 -0.1799
 1063YOPC   C4B14238  15.760   4.418   6.343  0.3787  0.1117 -0.0956
 1064YOPC   NC314239  16.113  13.975   5.132 -0.0631  0.0033  0.2739
 1064YOPC   PO414240  16.162  13.717   5.567  0.2424  0.2030  0.0610
 1064YOPC   GL114241  16.384  13.633   5.965 -0.0350  0.1063 -0.0949
 1064YOPC   GL214242  16.694  13.521   5.935 -0.0362 -0.1186  0.2940
 1064YOPC   C1A14243  16.390  13.632   6.463  0.0946  0.2010 -0.1546
 1064YOPC   D2A14244  16.496  14.035   6.611 -0.2422 -0.1328 -0.2434
 1064YOPC   C3A14245  16.379  14.012   7.028  0.0361 -0.1821  0.3656
 1064YOPC   C4A14246  16.404  13.762   7.343 -0.6104  0.1660 -0.0223
 1064YOPC   C1B14247  16.816  13.856   6.228 -0.0311  0.0530 -0.1610
 1064YOPC   C2B14248  16.967  14.204   6.296 -0.1974 -0.0585 -0.0567
 1064YOPC   D3B14249  17.299  14.430   6.348  0.0084  0.0095 -0.2702
 1064YOPC   C4B14250  17.454  14.651   6.702  0.2721 -0.2505 -0.0387
 1065YOPC   NC314251   5.042   1.640   5.147 -0.4207  0.3002  0.2358
 1065YOPC   PO414252   5.022   1.747   5.561 -0.1015 -0.0759  0.1300
 1065YOPC   GL114253   5.168   1.861   5.946  0.2288 -0.1507 -0.1493
 1065YOPC   GL214254   5.289   1.759   6.092 -0.2422 -0.2054 -0.1440
 1065YOPC   C1A14255   5.006   2.047   6.389  0.2352 -0.3088  0.0851
 1065YOPC   D2A14256   4.712   1.895   6.621 -0.0937  0.0417 -0.0447
 1065YOPC   C3A14257   4.682   2.022   6.977  0.0313 -0.2564 -0.2989
 1065YOPC   C4A14258   4.853   2.276   7.285  0.1603 -0.1494 -0.1592
 1065YOPC   C1B14259   5.458   1.830   6.628  0.0603  0.1730  0.2137
 1065YOPC   C2B14260   5.807   1.926   6.798 -0.1312 -0.4167  0.2255
 1065YOPC   D3B14261   5.862   1.740   7.212 -0.0364 -0.1703 -0.0305
 1065YOPC   C4B14262   5.795   1.679   7.681  0.2851 -0.0594  0.0348
 1066YOPC   NC314263   0.824  10.298   5.102 -0.0999  0.1781  0.1874
 1066YOPC   PO414264   0.578  10.663   5.002 -0.1127  0.0327  0.0743
 1066YOPC   GL114265   0.422  10.391   5.399  0.0119 -0.0990 -0.1327
 1066YOPC   GL214266   0.196  10.123   5.667 -0.1438 -0.4098 -0.4229
 1066YOPC   C1A14267   0.594  10.447   5.812 -0.1626  0.3116  0.0185
 1066YOPC   D2A14268   0.608  10.165   6.227  0.1173  0.0395 -0.1904
 1066YOPC   C3A14269   0.516   9.751   6.421 -0.0178 -0.1073  0.0263
 1066YOPC   C4A14270   0.663   9.401   6.525 -0.2846 -0.2672  0.2872
 1066YOPC   C1B14271   0.711  10.022   5.655 -0.4181  0.0859  0.0222
 1066YOPC   C2B14272   1.256   9.935   5.698 -0.0332 -0.2010  0.0088
 1066YOPC   D3B14273   1.478  10.119   6.131  0.0973  0.1246 -0.2409
 1066YOPC   C4B14274   1.579  10.445   6.052 -0.1636  0.0996 -0.2965
 1067YOPC   NC314275  10.815   6.659   5.655  0.0951 -0.0089 -0.0107
 1067YOPC   PO414276  11.045   6.284   5.762  0.1150 -0.0366 -0.0554
 1067YOPC   GL114277  11.446   6.233   6.094  0.2107  0.4034 -0.0956
 1067YOPC   GL214278  11.714   6.400   6.129  0.1872 -0.0718  0.2591
 1067YOPC   C1A14279  11.581   6.088   6.474 -0.1850 -0.0733 -0.1610
 1067YOPC   D2A14280  11.847   5.895   6.341 -0.0072 -0.1907  0.4215
 1067YOPC   C3A14281  11.994   5.730   6.592 -0.0021 -0.1172  0.0848
 1067YOPC   C4A14282  12.112   5.674   7.007  0.1291 -0.3457  0.0029
 1067YOPC   C1B14283  11.939   6.423   6.476 -0.0633  0.0739  0.1291
 1067YOPC   C2B14284  12.158   6.167   6.713  0.1109 -0.1418  0.0170
 1067YOPC   D3B14285  12.349   6.162   7.106  0.3463 -0.0658 -0.3072
 1067YOPC   C4B14286  12.256   5.927   7.413  0.0661  0.0251 -0.0643
 1068YOPC   NC314287  16.933   0.422   6.249  0.2221  0.1198 -0.4758
 1068YOPC   PO414288  16.549   0.272   5.980 -0.0328  0.0669 -0.0586
 1068YOPC   GL114289  16.513   0.283   6.457  0.2724 -0.1329  0.1384
 1068YOPC   GL214290  16.202   0.147   6.470  0.0364 -0.0608 -0.0853
 1068YOPC   C1A14291  16.665   0.215   6.872 -0.1315 -0.2586  0.1924
 1068YOPC   D2A14292  16.487   0.306   7.231 -0.0980  0.0858 -0.1562
 1068YOPC   C3A14293  16.473   0.114   7.684 -0.1657  0.2516 -0.1561
 1068YOPC   C4A14294  16.526  -0.014   8.100  0.0945  0.0803 -0.2123
 1068YOPC   C1B14295  16.063   0.395   6.807  0.1367  0.3522  0.1382
 1068YOPC   C2B14296  15.851   0.677   7.143  0.0030  0.2279  0.0251
 1068YOPC   D3B14297  16.126   0.753   7.546 -0.0931  0.6126 -0.0268
 1068YOPC   C4B14298  16.478   0.700   7.613 -0.1885 -0.0881 -0.3593
 1069YOPC   NC314299  13.010  13.400   5.877 -0.0927  0.0950 -0.0600
 1069YOPC   PO414300  12.740  12.958   5.840  0.0940 -0.0625 -0.1163
 1069YOPC   GL114301  12.749  12.709   6.201  0.0499  0.3306  0.0546
 1069YOPC   GL214302  12.632  12.911   6.417  0.0916 -0.0134 -0.0669
 1069YOPC   C1A14303  12.992  12.552   6.516 -0.0267 -0.1700  0.0843
 1069YOPC   D2A14304  12.793  12.623   7.002  0.0046 -0.0948  0.2902
 1069YOPC   C3A14305  12.875  12.512   7.310 -0.2047 -0.0616 -0.1521
 1069YOPC   C4A14306  12.943  12.164   7.639  0.0515 -0.1317 -0.0846
 1069YOPC   C1B14307  12.375  13.002   6.787  0.0389  0.2977  0.0745
 1069YOPC   C2B14308  12.489  13.051   7.269  0.0823  0.1074 -0.1386
 1069YOPC   D3B14309  12.741  13.400   7.350 -0.0504  0.3442  0.1479
 1069YOPC   C4B14310  12.976  13.831   7.447 -0.1636 -0.3698  0.1647
 1070YOPC   NC314311  14.544   8.970   5.253  0.1117  0.2918 -0.1283
 1070YOPC   PO414312  14.681   9.438   5.402 -0.2047  0.1881  0.3283
 1070YOPC   GL114313  14.812   9.158   5.717  0.1211 -0.0125  0.0483
 1070YOPC   GL214314  14.797   9.193   6.041 -0.1432 -0.1812 -0.1243
 1070YOPC   C1A14315  15.329   9.283   5.966 -0.1220  0.2344 -0.2292
 1070YOPC   D2A14316  15.713   9.340   6.123 -0.3150  0.1972 -0.0095
 1070YOPC   C3A14317  15.774   9.256   6.635  0.1407  0.2816  0.0749
 1070YOPC   C4A14318  15.648   9.568   6.853 -0.1057 -0.1598 -0.1462
 1070YOPC   C1B14319  15.003   9.126   6.335 -0.1846 -0.1719  0.1274
 1070YOPC   C2B14320  14.875   8.954   6.710 -0.0493 -0.2410  0.0890
 1070YOPC   D3B14321  14.877   9.068   7.123  0.2921 -0.4559 -0.1767
 1070YOPC   C4B14322  14.603   8.907   7.511 -0.0146 -0.3822  0.0530
 1071YOPC   NC314323   9.649   6.731   6.153  0.1283  0.0591  0.0449
 1071YOPC   PO414324   9.975   7.045   6.265 -0.0946  0.2511 -0.3042
 1071YOPC   GL114325  10.045   6.910   6.613  0.1639 -0.0658 -0.1873
 1071YOPC   GL214326  10.237   6.567   6.811  0.1770 -0.2657  0.0581
 1071YOPC   C1A14327  10.198   6.955   7.091  0.0073  0.1019  0.1138
 1071YOPC   D2A14328  10.333   6.613   7.364  0.1982  0.2229  0.0767
 1071YOPC   C3A14329  10.698   6.471   7.238  0.0442  0.0958 -0.0310
 1071YOPC   C4A14330  11.053   6.262   7.543  0.0832 -0.0811  0.1349
 1071YOPC   C1B14331  10.121   6.336   6.997  0.1837  0.3810  0.0563
 1071YOPC   C2B14332  10.248   5.973   7.353 -0.2460 -0.0489 -0.0127
 1071YOPC   D3B14333  10.449   6.168   7.674  0.0680 -0.1333  0.3178
 1071YOPC   C4B14334  10.774   6.471   7.914  0.2412  0.0270  0.1701
 1072YOPC   NC314335   5.885   2.435   6.083 -0.0477 -0.2453  0.0246
 1072YOPC   PO414336   6.052   2.792   5.798  0.1544  0.3344  0.0787
 1072YOPC   GL114337   5.840   2.918   6.136  0.0704 -0.1050 -0.0263
 1072YOPC   GL214338   5.482   3.061   6.070 -0.3066 -0.1951  0.0444
 1072YOPC   C1A14339   5.804   2.807   6.603 -0.2518 -0.1045  0.4415
 1072YOPC   D2A14340   5.693   2.789   6.960  0.3045  0.1463 -0.0585
 1072YOPC   C3A14341   5.910   2.949   7.384  0.0145 -0.1464  0.3095
 1072YOPC   C4A14342   6.097   3.136   7.805 -0.2163 -0.1043  0.2718
 1072YOPC   C1B14343   5.272   3.158   6.495 -0.0172  0.1768  0.1024
 1072YOPC   C2B14344   5.272   3.081   6.898  0.2524 -0.1636  0.0416
 1072YOPC   D3B14345   5.488   3.231   7.196  0.0548 -0.0664 -0.1659
 1072YOPC   C4B14346   5.759   3.628   7.222 -0.1672 -0.0746  0.0226
 1073YOPC   NC314347  11.045  13.272   5.507  0.1430  0.1374 -0.0144
 1073YOPC   PO414348  11.100  13.145   5.881 -0.0573 -0.0828  0.0131
 1073YOPC   GL114349  11.006  13.397   6.204  0.2257  0.1261  0.0069
 1073YOPC   GL214350  10.822  13.714   6.247  0.0525 -0.0794 -0.3293
 1073YOPC   C1A14351  11.288  13.454   6.548  0.1803  0.1569 -0.1314
 1073YOPC   D2A14352  11.491  13.557   6.919  0.2284 -0.2376 -0.0861
 1073YOPC   C3A14353  11.484  13.712   7.349 -0.0829  0.2296  0.0563
 1073YOPC   C4A14354  11.399  13.948   7.717 -0.1386  0.3230 -0.2007
 1073YOPC   C1B14355  10.913  13.726   6.627 -0.1506 -0.1316  0.1775
 1073YOPC   C2B14356  11.070  13.812   7.003 -0.2060  0.1449  0.0234
 1073YOPC   D3B14357  11.050  14.116   7.294 -0.1059 -0.1422  0.0465
 1073YOPC   C4B14358  11.137  14.351   7.710 -0.3249 -0.3299 -0.2201
 1074YOPC   NC314359  18.258   3.220   5.257 -0.1885 -0.1795  0.0097
 1074YOPC   PO414360  18.714   3.022   5.298  0.1479 -0.1508  0.3855
 1074YOPC   GL114361  18.587   3.020   5.616  0.2288 -0.1176 -0.2130
 1074YOPC   GL214362  18.755   3.034   5.874  0.0442  0.0319  0.0632
 1074YOPC   C1A14363  18.299   2.976   5.888  0.1261  0.0125 -0.0623
 1074YOPC   D2A14364  17.968   3.119   6.077  0.3639  0.0142 -0.1823
 1074YOPC   C3A14365  17.829   3.070   6.354  0.2312 -0.2803 -0.2197
 1074YOPC   C4A14366  17.781   3.229   6.778  0.1144 -0.0547  0.2049
 1074YOPC   C1B14367  18.756   2.985   6.272  0.0877 -0.1189  0.2490
 1074YOPC   C2B14368  18.668   2.811   6.726 -0.1210  0.0770  0.0634
 1074YOPC   D3B14369  18.876   2.845   7.092 -0.0202  0.0394 -0.1468
 1074YOPC   C4B14370  19.105   2.700   7.475 -0.1304 -0.1568  0.1057
 1075YOPC   NC314371  10.316   4.661   6.166 -0.0257 -0.1117 -0.4616
 1075YOPC   PO414372  10.408   4.307   6.317  0.0827  0.0713 -0.0872
 1075YOPC   GL114373  10.015   4.464   6.581  0.1723  0.0621  0.1140
 1075YOPC   GL214374   9.990   4.743   6.593 -0.0529 -0.0495 -0.2759
 1075YOPC   C1A14375   9.959   4.225   6.865 -0.1183 -0.0509 -0.0776
 1075YOPC   D2A14376   9.947   4.072   7.186 -0.4106  0.0009  0.0452
 1075YOPC   C3A14377   9.964   4.111   7.594  0.4388 -0.3019 -0.1034
 1075YOPC   C4A14378   9.775   4.229   7.912 -0.1199 -0.1430 -0.2312
 1075YOPC   C1B14379   9.871   4.799   7.011 -0.2543 -0.1284  0.2623
 1075YOPC   C2B14380   9.820   4.934   7.455  0.1154 -0.1713 -0.0575
 1075YOPC   D3B14381  10.094   5.108   7.730  0.1404 -0.0467  0.0380
 1075YOPC   C4B14382  10.055   5.040   8.180  0.0623 -0.0295 -0.2043
 1076YOPC   NC314383  16.329  10.728   5.663 -0.2224 -0.0697  0.1920
 1076YOPC   PO414384  15.892  10.818   5.860 -0.1867  0.0041  0.2606
 1076YOPC   GL114385  16.089  10.924   6.186 -0.0566 -0.0416 -0.0236
 1076YOPC   GL214386  16.257  11.198   6.208 -0.0193  0.2135  0.1956
 1076YOPC   C1A14387  16.243  10.678   6.605 -0.2690  0.0106 -0.2389
 1076YOPC   D2A14388  16.328  10.379   6.824 -0.2881 -0.1324 -0.1563
 1076YOPC   C3A14389  16.425  10.535   7.236 -0.0182  0.0237  0.3075
 1076YOPC   C4A14390  16.286  10.435   7.672 -0.2938 -0.2327 -0.0990
 1076YOPC   C1B14391  16.261  11.291   6.598 -0.1929 -0.2911 -0.1871
 1076YOPC   C2B14392  16.550  10.951   6.873 -0.1086 -0.0063 -0.0005
 1076YOPC   D3B14393  16.686  11.200   7.187 -0.0187  0.3822  0.1312
 1076YOPC   C4B14394  16.729  11.613   7.369  0.0776  0.0984  0.0868
 1077YOPC   NC314395   9.423   8.204   5.881 -0.1044  0.0078 -0.1137
 1077YOPC   PO414396   9.102   8.480   5.857 -0.6171  0.2632  0.2131
 1077YOPC   GL114397   9.314   8.562   6.295  0.0086  0.3555 -0.1183
 1077YOPC   GL214398   9.497   8.261   6.380 -0.0283  0.1377  0.1963
 1077YOPC   C1A14399   9.051   8.640   6.658  0.0756 -0.0598 -0.1173
 1077YOPC   D2A14400   8.734   8.362   6.803  0.2192  0.1319  0.0283
 1077YOPC   C3A14401   8.384   8.261   7.046 -0.1762 -0.1132 -0.1619
 1077YOPC   C4A14402   8.039   8.039   7.272  0.0390 -0.0003  0.2377
 1077YOPC   C1B14403   9.667   8.562   6.725  0.1468  0.0357 -0.1460
 1077YOPC   C2B14404   9.764   8.682   7.226 -0.0917  0.0080 -0.1375
 1077YOPC   D3B14405   9.624   8.374   7.608 -0.2325  0.0186  0.2068
 1077YOPC   C4B14406   9.368   8.566   7.957 -0.3390  0.1041 -0.0248
 1078YOPC   NC314407   8.634   8.693   5.720 -0.3685  0.1871  0.2784
 1078YOPC   PO414408   8.965   8.998   5.704  0.0518 -0.1133  0.1316
 1078YOPC   GL114409   9.186   9.081   6.106  0.1205  0.3168 -0.0554
 1078YOPC   GL214410   9.225   9.481   6.287  0.0616  0.1300  0.2728
 1078YOPC   C1A14411   9.371   9.029   6.579  0.0446  0.1730  0.0517
 1078YOPC   D2A14412   9.374   8.961   6.994 -0.0560 -0.1157 -0.0539
 1078YOPC   C3A14413   9.185   9.092   7.317  0.2915  0.1514  0.4226
 1078YOPC   C4A14414   9.083   9.219   7.701  0.0117  0.1115 -0.3072
 1078YOPC   C1B14415   8.895   9.601   6.526 -0.1612 -0.1840  0.3978
 1078YOPC   C2B14416   8.572   9.457   6.629  0.0113 -0.2834  0.0104
 1078YOPC   D3B14417   8.437   9.415   7.138 -0.0941 -0.2901 -0.0895
 1078YOPC   C4B14418   8.629   9.261   7.528  0.1625  0.0867 -0.0607
 1079YOPC   NC314419  15.496   3.526   5.704  0.2233 -0.1114 -0.0424
 1079YOPC   PO414420  15.792   3.218   5.729  0.1030  0.4553  0.2717
 1079YOPC   GL114421  15.807   3.493   6.109 -0.0247  0.0890  0.2914
 1079YOPC   GL214422  15.486   3.536   6.181 -0.2750 -0.3323  0.0528
 1079YOPC   C1A14423  15.868   3.589   6.535  0.2745 -0.2259  0.2369
 1079YOPC   D2A14424  15.722   3.890   6.797 -0.1298  0.1378  0.0679
 1079YOPC   C3A14425  15.731   4.063   7.197 -0.1977 -0.0655 -0.2451
 1079YOPC   C4A14426  15.404   4.257   7.447 -0.1070 -0.1182  0.1827
 1079YOPC   C1B14427  15.454   3.825   6.405 -0.3458  0.5085 -0.0159
 1079YOPC   C2B14428  15.370   4.177   6.855  0.0232 -0.0371  0.3062
 1079YOPC   D3B14429  15.650   4.465   6.906  0.1463  0.5355  0.1959
 1079YOPC   C4B14430  16.051   4.670   7.216  0.0028  0.2827 -0.1696
 1080YOPC   NC314431   8.747  14.973   6.152  0.3346  0.1436  0.0060
 1080YOPC   PO414432   8.440  14.675   5.929  0.2677  0.0674 -0.0496
 1080YOPC   GL114433   8.427  14.612   6.360 -0.1294  0.2542  0.1737
 1080YOPC   GL214434   8.189  14.465   6.494  0.2999  0.2137  0.1445
 1080YOPC   C1A14435   8.651  14.577   6.796 -0.1524  0.1418 -0.2434
 1080YOPC   D2A14436   8.632  14.403   7.142  0.2828 -0.0857 -0.0852
 1080YOPC   C3A14437   8.933  14.114   7.420 -0.3167  0.1067 -0.0819
 1080YOPC   C4A14438   9.184  14.017   7.657 -0.0694  0.0163  0.2100
 1080YOPC   C1B14439   8.163  14.412   6.883  0.0272 -0.1132 -0.1798
 1080YOPC   C2B14440   8.181  14.427   7.285 -0.0511  0.0448  0.1608
 1080YOPC   D3B14441   8.330  14.092   7.565 -0.1805 -0.2794 -0.2500
 1080YOPC   C4B14442   8.212  13.672   7.671 -0.0150 -0.0892  0.0688
 1081YOPC   NC314443  11.171   0.727   6.530  0.2558  0.0846 -0.0859
 1081YOPC   PO414444  10.999   0.391   6.480  0.3048 -0.1595  0.3507
 1081YOPC   GL114445  11.082   0.337   6.920 -0.1294  0.1211 -0.2971
 1081YOPC   GL214446  11.284   0.094   6.865  0.0112  0.1301 -0.1694
 1081YOPC   C1A14447  11.162   0.451   7.454  0.2938 -0.1123 -0.0982
 1081YOPC   D2A14448  11.278   0.258   7.846 -0.5860  0.0566 -0.1648
 1081YOPC   C3A14449  10.996  -0.053   8.079  0.1420 -0.1459 -0.0033
 1081YOPC   C4A14450  10.675  -0.070   8.385  0.1558  0.3480 -0.1073
 1081YOPC   C1B14451  11.402  -0.017   7.256  0.1539  0.1223  0.1416
 1081YOPC   C2B14452  11.805  -0.015   7.429  0.0243  0.0799  0.0103
 1081YOPC   D3B14453  11.915  -0.385   7.521 -0.0347  0.0783  0.1256
 1081YOPC   C4B14454  12.008  -0.790   7.289 -0.0987  0.1081 -0.1392
 1082YOPC   NC314455  12.579   7.457   5.843  0.0921  0.0707 -0.4022
 1082YOPC   PO414456  13.102   7.462   5.864  0.3536  0.3714 -0.1411
 1082YOPC   GL114457  13.317   7.275   6.237 -0.3168 -0.1255 -0.0756
 1082YOPC   GL214458  13.614   7.461   6.083 -0.1516 -0.0881 -0.0502
 1082YOPC   C1A14459  13.416   7.091   6.565 -0.1115  0.0732 -0.1579
 1082YOPC   D2A14460  13.362   7.063   7.080 -0.2031 -0.2505 -0.1768
 1082YOPC   C3A14461  13.391   7.423   7.348 -0.1363 -0.1516  0.1096
 1082YOPC   C4A14462  13.277   7.371   7.776  0.0771 -0.1475  0.0026
 1082YOPC   C1B14463  13.610   7.667   6.456 -0.2683 -0.3350  0.0194
 1082YOPC   C2B14464  13.543   7.542   6.863  0.1249  0.3017  0.2752
 1082YOPC   D3B14465  13.818   7.307   7.127  0.2058  0.0334  0.2154
 1082YOPC   C4B14466  14.017   6.954   7.352  0.0490  0.1035  0.2547
 1083YOPC   NC314467  12.470  13.413   5.823 -0.1861 -0.1399  0.1741
 1083YOPC   PO414468  12.786  13.802   6.044 -0.3395 -0.0500 -0.0820
 1083YOPC   GL114469  12.684  13.841   6.515 -0.0671  0.0951  0.1601
 1083YOPC   GL214470  12.372  13.982   6.592 -0.1206 -0.0998 -0.1560
 1083YOPC   C1A14471  12.690  13.556   6.710 -0.5350 -0.0660 -0.0485
 1083YOPC   D2A14472  12.833  13.147   6.772  0.1735  0.1674 -0.0488
 1083YOPC   C3A14473  13.022  13.045   7.168 -0.2337  0.2043  0.0540
 1083YOPC   C4A14474  12.879  12.956   7.573 -0.0321  0.1435 -0.0624
 1083YOPC   C1B14475  12.553  13.980   6.989  0.1001  0.1803  0.2853
 1083YOPC   C2B14476  12.617  14.207   7.352 -0.2219 -0.0278  0.0190
 1083YOPC   D3B14477  12.488  14.196   7.752  0.0080  0.0886 -0.1508
 1083YOPC   C4B14478  12.488  14.292   8.162  0.1491 -0.0150 -0.2272
 1084YOPC   NC314479  10.430   3.942   5.997 -0.0284 -0.0590  0.1726
 1084YOPC   PO414480  10.105   3.668   6.101 -0.0439 -0.1872 -0.0275
 1084YOPC   GL114481  10.210   3.735   6.566 -0.0618 -0.3170 -0.0587
 1084YOPC   GL214482   9.987   3.703   6.802  0.1059  0.1829 -0.0883
 1084YOPC   C1A14483  10.390   3.970   6.892 -0.0404  0.0854  0.0382
 1084YOPC   D2A14484  10.390   3.935   7.324  0.1795  0.0407  0.0820
 1084YOPC   C3A14485  10.575   4.239   7.603 -0.1700 -0.1284  0.1666
 1084YOPC   C4A14486  10.580   4.571   7.978 -0.1725  0.0181  0.0665
 1084YOPC   C1B14487  10.234   3.472   7.080  0.2474  0.1348  0.1986
 1084YOPC   C2B14488  10.317   3.528   7.556 -0.0497 -0.0506 -0.1175
 1084YOPC   D3B14489  10.136   3.743   7.840 -0.2084 -0.0853 -0.1692
 1084YOPC   C4B14490  10.309   4.138   8.035  0.1694  0.1238  0.2167
 1085YOPC   NC314491   4.308   7.032   5.274 -0.2401  0.0721  0.2526
 1085YOPC   PO414492   3.982   7.227   5.486 -0.1362 -0.0996 -0.2447
 1085YOPC   GL114493   3.989   7.561   5.781 -0.4586 -0.2115 -0.2513
 1085YOPC   GL214494   3.647   7.519   5.786  0.1901 -0.1473 -0.1319
 1085YOPC   C1A14495   4.145   7.731   6.266 -0.0741  0.0115 -0.4146
 1085YOPC   D2A14496   4.383   7.631   6.584  0.0357  0.0149  0.1947
 1085YOPC   C3A14497   4.197   7.859   7.031 -0.4325 -0.3732 -0.0986
 1085YOPC   C4A14498   4.130   7.989   7.316  0.1036  0.0495  0.0610
 1085YOPC   C1B14499   3.316   7.401   6.047  0.1192  0.2267  0.4299
 1085YOPC   C2B14500   3.005   7.512   6.323  0.2131  0.0389 -0.0529
 1085YOPC   D3B14501   2.969   7.314   6.731 -0.3641 -0.3572 -0.2790
 1085YOPC   C4B14502   3.107   7.042   7.068 -0.0086 -0.0994 -0.1072
 1086YOPC   NC314503  16.823  18.534   6.217  0.0552  0.1635  0.1001
 1086YOPC   PO414504  17.193  18.518   6.019 -0.0052 -0.2163  0.3901
 1086YOPC   GL114505  17.342  18.738   6.369 -0.3384  0.3005 -0.0908
 1086YOPC   GL214506  17.652  18.603   6.371  0.3703 -0.4014  0.2179
 1086YOPC   C1A14507  17.272  18.679   6.797 -0.0209 -0.0615  0.1207
 1086YOPC   D2A14508  17.290  18.700   7.292 -0.0149  0.2155  0.0008
 1086YOPC   C3A14509  16.930  18.541   7.458 -0.0086 -0.1230 -0.1705
 1086YOPC   C4A14510  16.856  18.372   7.846 -0.0592 -0.1217  0.1836
 1086YOPC   C1B14511  17.824  18.656   6.779  0.1743 -0.1270  0.1868
 1086YOPC   C2B14512  17.786  18.672   7.229 -0.2347 -0.1041  0.1565
 1086YOPC   D3B14513  18.081  18.829   7.346 -0.0260 -0.3697 -0.1060
 1086YOPC   C4B14514  18.213  18.744   7.763 -0.0269  0.1499 -0.0916
 1087YOPC   NC314515  12.594   1.021   6.438  0.0068 -0.1020 -0.2056
 1087YOPC   PO414516  12.160   1.079   6.569 -0.2082 -0.0853 -0.0397
 1087YOPC   GL114517  12.267   1.182   6.933  0.3962  0.1282  0.0005
 1087YOPC   GL214518  12.296   1.083   7.162  0.0269 -0.2990  0.0168
 1087YOPC   C1A14519  12.695   1.365   7.086 -0.1185  0.1144  0.0200
 1087YOPC   D2A14520  12.915   1.441   7.549  0.0557  0.0922  0.0559
 1087YOPC   C3A14521  13.138   1.359   7.966  0.1627  0.2716 -0.1026
 1087YOPC   C4A14522  13.542   1.231   8.148  0.1308  0.0588  0.2527
 1087YOPC   C1B14523  12.449   1.253   7.485 -0.0384 -0.0883  0.0490
 1087YOPC   C2B14524  12.552   1.264   7.870 -0.1497 -0.0329  0.0906
 1087YOPC   D3B14525  12.338   1.607   8.060  0.0246 -0.0130 -0.1810
 1087YOPC   C4B14526  12.322   1.918   7.760 -0.0248  0.4127 -0.0081
 1088YOPC   NC314527  11.985   0.525   6.596 -0.1551  0.1084  0.4592
 1088YOPC   PO414528  11.804   0.129   6.590  0.1082 -0.0689  0.0649
 1088YOPC   GL114529  11.719  -0.232   6.839 -0.4483  0.2011 -0.1610
 1088YOPC   GL214530  11.722  -0.646   6.761 -0.0446  0.0541  0.0360
 1088YOPC   C1A14531  11.583  -0.499   7.228 -0.0023 -0.1624  0.6830
 1088YOPC   D2A14532  11.560  -0.824   7.490  0.0380 -0.1596  0.2498
 1088YOPC   C3A14533  11.848  -0.837   7.784 -0.0569 -0.1305  0.1006
 1088YOPC   C4A14534  12.113  -0.693   7.923 -0.1640  0.4020 -0.1405
 1088YOPC   C1B14535  11.316  -0.850   7.064  0.0969  0.4776  0.1216
 1088YOPC   C2B14536  11.027  -1.014   7.304 -0.1189 -0.1439  0.1029
 1088YOPC   D3B14537  11.136  -1.169   7.698  0.1291  0.1155  0.0590
 1088YOPC   C4B14538  11.441  -1.006   8.023 -0.4432 -0.4143  0.1410
 1089YOPC   NC314539   8.890   5.201   6.111  0.2065  0.3020  0.1860
 1089YOPC   PO414540   9.163   4.931   6.294 -0.1222  0.0611 -0.0354
 1089YOPC   GL114541   9.229   4.733   6.645  0.2581  0.0190  0.2918
 1089YOPC   GL214542   9.550   4.880   6.721  0.1191 -0.0558  0.2306
 1089YOPC   C1A14543   9.120   4.494   7.058  0.0111  0.0906  0.0695
 1089YOPC   D2A14544   9.042   4.613   7.460 -0.4710  0.1523  0.2044
 1089YOPC   C3A14545   8.653   4.535   7.659  0.1939 -0.0301  0.1383
 1089YOPC   C4A14546   8.271   4.590   7.827 -0.0001 -0.0689 -0.3074
 1089YOPC   C1B14547   9.416   4.861   7.168  0.1558 -0.2511  0.1940
 1089YOPC   C2B14548   9.203   5.079   7.526 -0.2757 -0.0676 -0.0178
 1089YOPC   D3B14549   8.892   5.029   7.833 -0.2325 -0.0574 -0.2307
 1089YOPC   C4B14550   8.839   4.725   8.112 -0.2618 -0.3546 -0.1611
 1090YOPC   NC314551   1.961  15.738   5.218  0.2957  0.0067 -0.0715
 1090YOPC   PO414552   1.669  15.571   5.564  0.4013 -0.1457  0.3045
 1090YOPC   GL114553   1.682  15.695   6.098  0.0615  0.1833  0.2612
 1090YOPC   GL214554   1.427  15.819   6.253  0.1122 -0.4632 -0.1944
 1090YOPC   C1A14555   1.863  15.557   6.506 -0.0530 -0.2319  0.0696
 1090YOPC   D2A14556   1.650  15.547   6.752 -0.2019  0.2897 -0.1198
 1090YOPC   C3A14557   1.724  15.438   7.174 -0.3052 -0.2280  0.2858
 1090YOPC   C4A14558   1.751  15.642   7.571  0.0683  0.1710  0.1868
 1090YOPC   C1B14559   1.302  15.950   6.699  0.4543 -0.0054 -0.1930
 1090YOPC   C2B14560   1.409  15.935   7.152 -0.2497  0.0671 -0.1532
 1090YOPC   D3B14561   1.077  16.093   7.323  0.2314  0.1376  0.2389
 1090YOPC   C4B14562   0.809  16.209   7.628 -0.0043  0.0629  0.1461
 1091YOPC   NC314563   5.967   8.806   5.571 -0.2935 -0.0140 -0.0719
 1091YOPC   PO414564   5.726   8.583   5.318 -0.1387 -0.0671 -0.2439
 1091YOPC   GL114565   5.697   8.256   5.705  0.0234  0.0974 -0.2320
 1091YOPC   GL214566   5.389   8.236   5.876  0.0131 -0.0167 -0.0136
 1091YOPC   C1A14567   5.835   8.462   6.051  0.1220 -0.0582 -0.0852
 1091YOPC   D2A14568   5.833   8.545   6.425 -0.0377  0.2370 -0.0954
 1091YOPC   C3A14569   5.662   8.237   6.810 -0.1450  0.0153  0.1102
 1091YOPC   C4A14570   5.525   8.058   7.088 -0.2768 -0.0156 -0.0424
 1091YOPC   C1B14571   5.425   8.179   6.281 -0.0360 -0.2197 -0.0393
 1091YOPC   C2B14572   5.795   7.967   6.413 -0.0154  0.1323 -0.1794
 1091YOPC   D3B14573   6.133   8.162   6.338  0.3143  0.0392 -0.3508
 1091YOPC   C4B14574   6.274   8.198   5.916 -0.2031  0.1823 -0.3346
 1092YOPC   NC314575   8.297   4.541   6.018 -0.0539 -0.3438 -0.2110
 1092YOPC   PO414576   7.896   4.380   5.921  0.0325 -0.5278 -0.1094
 1092YOPC   GL114577   7.629   4.386   6.130  0.1554  0.0529  0.0660
 1092YOPC   GL214578   7.539   4.680   6.359 -0.0156 -0.2946  0.1895
 1092YOPC   C1A14579   7.227   4.379   6.194  0.2194  0.2363  0.2728
 1092YOPC   D2A14580   6.953   4.007   6.389 -0.0034  0.1292  0.1683
 1092YOPC   C3A14581   6.756   4.148   6.832 -0.1140  0.1345  0.1535
 1092YOPC   C4A14582   6.616   4.113   7.244 -0.0231  0.1848 -0.1815
 1092YOPC   C1B14583   7.395   4.767   6.782  0.0693 -0.1222  0.0110
 1092YOPC   C2B14584   7.235   4.738   7.095 -0.0073  0.0160  0.2511
 1092YOPC   D3B14585   7.062   5.097   7.448 -0.2247 -0.2756  0.2241
 1092YOPC   C4B14586   6.823   5.326   7.633  0.1442  0.1309 -0.1513
 1093YOPC   NC314587  18.093  10.065   5.128 -0.0766 -0.0943  0.0921
 1093YOPC   PO414588  18.009  10.441   5.265  0.0345 -0.0195 -0.2543
 1093YOPC   GL114589  17.914  10.377   5.661  0.0121 -0.1131  0.1544
 1093YOPC   GL214590  18.269  10.334   5.725  0.0500 -0.1219  0.2813
 1093YOPC   C1A14591  18.088  10.649   6.079 -0.1269 -0.4324 -0.3976
 1093YOPC   D2A14592  18.064  10.831   6.521  0.1916  0.1915 -0.3324
 1093YOPC   C3A14593  18.110  10.719   6.914 -0.0602 -0.2159 -0.1710
 1093YOPC   C4A14594  17.962  10.813   7.350  0.0871 -0.3780 -0.1610
 1093YOPC   C1B14595  18.214  10.191   6.154  0.1838 -0.0796  0.0668
 1093YOPC   C2B14596  18.057   9.810   6.484 -0.3238 -0.1608  0.1840
 1093YOPC   D3B14597  18.133   9.608   6.837 -0.1575 -0.3368  0.0362
 1093YOPC   C4B14598  18.159   9.786   7.253 -0.2851  0.0769 -0.0463
 1094YOPC   NC314599  13.260  14.922   5.981  0.0017  0.6667  0.1164
 1094YOPC   PO414600  12.940  15.139   6.106 -0.0289 -0.0639  0.0105
 1094YOPC   GL114601  13.095  15.225   6.427 -0.1760 -0.0233 -0.0008
 1094YOPC   GL214602  13.274  15.373   6.441  0.1147  0.0238  0.0669
 1094YOPC   C1A14603  13.099  15.103   6.932 -0.0080 -0.1655  0.0542
 1094YOPC   D2A14604  13.054  14.968   7.357 -0.3421  0.1746  0.3338
 1094YOPC   C3A14605  13.130  14.923   7.778  0.1497  0.5446  0.2892
 1094YOPC   C4A14606  13.055  14.930   8.237 -0.4910  0.1133 -0.0647
 1094YOPC   C1B14607  13.394  15.561   6.932  0.0847  0.1444 -0.1348
 1094YOPC   C2B14608  13.204  15.422   7.309  0.1357  0.0032  0.4023
 1094YOPC   D3B14609  13.407  15.416   7.764  0.2017  0.1016 -0.0844
 1094YOPC   C4B14610  13.552  15.117   8.089 -0.2228 -0.0176 -0.2375
 1095YOPC   NC314611  17.530  12.586   5.114 -0.1158  0.0021 -0.0461
 1095YOPC   PO414612  17.905  12.824   5.331  0.0450 -0.1999  0.3621
 1095YOPC   GL114613  17.808  12.870   5.773 -0.0177  0.0449 -0.0090
 1095YOPC   GL214614  17.967  12.575   5.892 -0.2184  0.2031 -0.1957
 1095YOPC   C1A14615  17.762  12.883   6.257  0.1995  0.3609  0.2140
 1095YOPC   D2A14616  17.947  13.045   6.575  0.0857  0.0386  0.2888
 1095YOPC   C3A14617  18.162  12.930   6.970  0.1475  0.0986  0.1169
 1095YOPC   C4A14618  18.464  12.741   7.150 -0.1440  0.1075 -0.1156
 1095YOPC   C1B14619  18.068  12.475   6.313  0.0545 -0.1438  0.2076
 1095YOPC   C2B14620  18.358  12.649   6.624  0.2492 -0.0656  0.0949
 1095YOPC   D3B14621  18.768  12.691   6.523 -0.4793  0.0107 -0.0829
 1095YOPC   C4B14622  19.076  12.377   6.700  0.1319 -0.1404 -0.2251
 1096YOPC   NC314623  16.249   7.062   5.116  0.0239  0.0422 -0.4288
 1096YOPC   PO414624  15.968   7.168   5.420  0.0578  0.0955  0.1076
 1096YOPC   GL114625  15.982   7.041   5.848 -0.2624 -0.0441 -0.0752
 1096YOPC   GL214626  16.118   6.742   5.939 -0.1422  0.2289  0.1939
 1096YOPC   C1A14627  15.897   7.020   6.313 -0.1806 -0.1102 -0.1202
 1096YOPC   D2A14628  16.148   7.082   6.677  0.2944 -0.4037  0.1150
 1096YOPC   C3A14629  16.462   7.416   6.839  0.1774  0.0997  0.2484
 1096YOPC   C4A14630  16.632   7.592   7.190 -0.0361  0.2374  0.0363
 1096YOPC   C1B14631  16.379   6.848   6.303  0.2405  0.1212  0.1754
 1096YOPC   C2B14632  16.585   6.837   6.746 -0.1123  0.1211  0.0871
 1096YOPC   D3B14633  16.602   6.564   7.074  0.1530 -0.0485  0.1166
 1096YOPC   C4B14634  16.909   6.510   7.407  0.1098 -0.1201 -0.3999
 1097YOPC   NC314635  10.258  17.210   5.739 -0.0731  0.4486 -0.1311
 1097YOPC   PO414636   9.895  17.467   6.094 -0.0425  0.2296  0.2445
 1097YOPC   GL114637   9.791  17.234   6.395 -0.1041  0.0703 -0.1592
 1097YOPC   GL214638   9.563  17.434   6.533  0.1528 -0.2123 -0.3820
 1097YOPC   C1A14639   9.582  16.946   6.708  0.0401 -0.1106  0.1122
 1097YOPC   D2A14640   9.560  16.913   7.107 -0.1223 -0.2070  0.0389
 1097YOPC   C3A14641   9.424  16.979   7.452 -0.2317 -0.2655 -0.0155
 1097YOPC   C4A14642   9.539  17.126   7.886 -0.1399  0.0145  0.1430
 1097YOPC   C1B14643   9.418  17.484   6.968 -0.1420 -0.0883 -0.1822
 1097YOPC   C2B14644   9.376  17.461   7.424 -0.1472 -0.1121  0.2494
 1097YOPC   D3B14645   9.217  17.598   7.772 -0.1694  0.1953 -0.2048
 1097YOPC   C4B14646   9.140  17.337   8.216 -0.5636 -0.1152 -0.0277
 1098YOPC   NC314647   3.062  16.379   5.813  0.0346 -0.2876  0.1959
 1098YOPC   PO414648   2.730  16.608   5.929  0.1733  0.3891  0.0456
 1098YOPC   GL114649   2.930  16.684   6.287  0.0726 -0.1183  0.0448
 1098YOPC   GL214650   2.981  16.998   6.354 -0.1028  0.0961 -0.1734
 1098YOPC   C1A14651   2.772  16.746   6.706  0.1504 -0.0168 -0.1902
 1098YOPC   D2A14652   2.662  16.652   7.043  0.3165  0.1080 -0.1414
 1098YOPC   C3A14653   2.274  16.873   7.253 -0.1995  0.1199 -0.0762
 1098YOPC   C4A14654   1.937  17.202   7.509 -0.3429 -0.1749  0.3372
 1098YOPC   C1B14655   3.179  17.024   6.740  0.1100 -0.1950  0.0962
 1098YOPC   C2B14656   3.266  17.105   7.065 -0.1121 -0.0295 -0.1270
 1098YOPC   D3B14657   3.131  16.930   7.445  0.0134 -0.0125  0.0270
 1098YOPC   C4B14658   3.410  16.697   7.644  0.0879 -0.2308  0.0915
 1099YOPC   NC314659   0.503   2.826   5.516  0.0560  0.0944  0.1564
 1099YOPC   PO414660   0.424   2.506   5.765  0.0197  0.2338  0.1132
 1099YOPC   GL114661   0.628   2.906   5.983 -0.0594  0.0222  0.2913
 1099YOPC   GL214662   0.911   2.973   5.911  0.0635  0.1039  0.0306
 1099YOPC   C1A14663   0.642   3.240   6.215 -0.1548  0.1685  0.0594
 1099YOPC   D2A14664   0.876   3.328   6.629  0.0064  0.2553  0.2415
 1099YOPC   C3A14665   0.766   3.347   7.027  0.0748 -0.1183 -0.1333
 1099YOPC   C4A14666   0.674   3.441   7.355  0.1785  0.0185 -0.1270
 1099YOPC   C1B14667   1.125   3.045   6.271 -0.1344  0.0599  0.0680
 1099YOPC   C2B14668   1.318   3.312   6.397 -0.0283 -0.1643 -0.0294
 1099YOPC   D3B14669   1.290   3.346   6.825 -0.2229 -0.0922 -0.0555
 1099YOPC   C4B14670   1.179   3.273   7.334 -0.1193  0.1594 -0.2510
 1100YOPC   NC314671  10.674   2.654   6.009 -0.0354  0.0550 -0.2294
 1100YOPC   PO414672  10.596   2.332   6.351 -0.0218 -0.1371 -0.2359
 1100YOPC   GL114673  10.688   2.132   6.751  0.1754  0.1331  0.0983
 1100YOPC   GL214674  10.948   2.090   6.592 -0.3097 -0.1464  0.2668
 1100YOPC   C1A14675  10.694   2.178   7.185 -0.1003 -0.4380 -0.0516
 1100YOPC   D2A14676  10.632   2.041   7.532 -0.0677 -0.0085 -0.0565
 1100YOPC   C3A14677  10.529   2.352   7.881  0.2382  0.0548  0.3547
 1100YOPC   C4A14678  10.469   2.369   8.252  0.2301  0.2516  0.1436
 1100YOPC   C1B14679  11.143   2.264   6.967  0.1811  0.1064 -0.0381
 1100YOPC   C2B14680  11.052   2.560   7.246 -0.0288  0.2490 -0.2811
 1100YOPC   D3B14681  11.057   2.276   7.473 -0.1372  0.1095  0.0113
 1100YOPC   C4B14682  11.000   2.289   7.827 -0.0963 -0.2893 -0.1574
 1101YOPC   NC314683   4.712  11.034   5.238  0.0763 -0.0350 -0.2151
 1101YOPC   PO414684   4.521  10.792   5.494 -0.1896 -0.2433 -0.3108
 1101YOPC   GL114685   4.264  10.675   5.832 -0.4213  0.0557 -0.1459
 1101YOPC   GL214686   4.225  10.854   5.956 -0.1977 -0.0763 -0.0284
 1101YOPC   C1A14687   3.912  10.394   6.045  0.5733 -0.0848 -0.4638
 1101YOPC   D2A14688   3.680  10.421   6.507 -0.0429 -0.0054 -0.0220
 1101YOPC   C3A14689   3.818  10.791   6.800 -0.0522 -0.2879 -0.0519
 1101YOPC   C4A14690   3.957  11.220   6.975  0.0903  0.1142 -0.0546
 1101YOPC   C1B14691   3.990  10.836   6.297 -0.3072 -0.3015 -0.0919
 1101YOPC   C2B14692   3.870  11.183   6.490  0.0147 -0.1758  0.0947
 1101YOPC   D3B14693   3.521  11.263   6.684 -0.1645 -0.0172 -0.0391
 1101YOPC   C4B14694   3.106  11.268   6.891 -0.0847  0.3984  0.0408
 1102YOPC   NC314695  15.563  18.085   5.870 -0.2651 -0.0761  0.3560
 1102YOPC   PO414696  15.140  17.986   6.137  0.0044 -0.0674  0.1070
 1102YOPC   GL114697  15.128  17.949   6.518  0.2844  0.3221  0.0691
 1102YOPC   GL214698  15.500  17.866   6.530  0.1551  0.0690 -0.1447
 1102YOPC   C1A14699  15.273  18.158   6.944  0.2137 -0.3636 -0.3519
 1102YOPC   D2A14700  15.588  18.258   7.259 -0.1595  0.1205  0.0652
 1102YOPC   C3A14701  15.724  18.190   7.649 -0.0017 -0.0830 -0.1050
 1102YOPC   C4A14702  15.887  17.993   7.993 -0.1880  0.1450 -0.1098
 1102YOPC   C1B14703  15.579  17.723   6.933 -0.1987 -0.1035  0.1395
 1102YOPC   C2B14704  15.742  17.740   7.297 -0.3281 -0.0112 -0.1375
 1102YOPC   D3B14705  15.588  17.338   7.423 -0.0606  0.1160  0.0106
 1102YOPC   C4B14706  15.484  16.939   7.312  0.0318 -0.0148 -0.3095
 1103YOPC   NC314707   2.167  17.291   5.371 -0.2057 -0.0762  0.0689
 1103YOPC   PO414708   2.495  16.903   5.521  0.1297  0.2680 -0.1149
 1103YOPC   GL114709   2.353  17.004   5.929  0.3501 -0.0585  0.0413
 1103YOPC   GL214710   2.042  17.113   5.903 -0.1129 -0.3685  0.3861
 1103YOPC   C1A14711   2.487  16.977   6.358  0.1408  0.0305  0.1292
 1103YOPC   D2A14712   2.571  17.195   6.796  0.0529 -0.1738 -0.2440
 1103YOPC   C3A14713   2.756  17.166   7.152  0.0424 -0.0105  0.0036
 1103YOPC   C4A14714   3.030  17.390   7.537  0.1114 -0.2712 -0.0066
 1103YOPC   C1B14715   2.035  17.052   6.346 -0.1188  0.0640  0.2145
 1103YOPC   C2B14716   2.126  16.923   6.762 -0.0758  0.3402  0.0313
 1103YOPC   D3B14717   1.836  16.703   7.035 -0.4613  0.0379  0.2458
 1103YOPC   C4B14718   1.802  16.726   7.456 -0.0738  0.0149 -0.0943
 1104YOPC   NC314719   3.898   4.230   5.549  0.1423 -0.3383  0.0257
 1104YOPC   PO414720   3.507   4.160   5.255  0.2227  0.0338  0.2610
 1104YOPC   GL114721   3.481   3.845   5.608  0.4630 -0.1471  0.0965
 1104YOPC   GL214722   3.285   3.623   5.675  0.0932  0.2383  0.0389
 1104YOPC   C1A14723   3.551   3.914   6.057  0.2410 -0.2905 -0.1497
 1104YOPC   D2A14724   3.597   4.101   6.497 -0.1262  0.0892 -0.0711
 1104YOPC   C3A14725   3.637   4.237   6.879 -0.0551 -0.1546  0.1042
 1104YOPC   C4A14726   3.566   4.266   7.249 -0.0046  0.2616 -0.1528
 1104YOPC   C1B14727   3.602   3.458   5.900  0.4685 -0.0423  0.2066
 1104YOPC   C2B14728   3.714   3.334   6.282 -0.3454 -0.1791  0.1133
 1104YOPC   D3B14729   3.443   3.568   6.468  0.1291 -0.1180  0.0027
 1104YOPC   C4B14730   3.132   3.504   6.203 -0.2386 -0.1677 -0.1627
 1105YOPC   NC314731   2.287  16.186   5.830 -0.1242  0.2194 -0.1645
 1105YOPC   PO414732   1.985  15.955   5.734 -0.3167  0.2069  0.0975
 1105YOPC   GL114733   2.173  15.794   6.115 -0.1475  0.1230 -0.0480
 1105YOPC   GL214734   2.359  15.537   6.269 -0.0709  0.1336 -0.1685
 1105YOPC   C1A14735   2.351  16.017   6.420 -0.0758 -0.1452  0.1470
 1105YOPC   D2A14736   2.328  15.997   6.914 -0.0074 -0.1108 -0.1321
 1105YOPC   C3A14737   2.594  15.642   7.180 -0.2210 -0.0170 -0.0485
 1105YOPC   C4A14738   2.758  15.435   7.405 -0.0289 -0.2170 -0.0140
 1105YOPC   C1B14739   2.513  15.576   6.639  0.0594 -0.1973  0.0256
 1105YOPC   C2B14740   2.166  15.560   6.902  0.2566 -0.3880 -0.1637
 1105YOPC   D3B14741   2.143  15.779   7.310  0.0195 -0.1840  0.1778
 1105YOPC   C4B14742   2.332  15.518   7.642 -0.0939  0.1273 -0.0313
 1106YOPC   NC314743  15.695   0.217   5.395  0.4669  0.0502 -0.3496
 1106YOPC   PO414744  15.906   0.183   5.861  0.0368  0.1982  0.2400
 1106YOPC   GL114745  15.635  -0.017   6.149  0.0657 -0.3257 -0.3005
 1106YOPC   GL214746  15.667  -0.348   6.352  0.0475  0.0826 -0.1374
 1106YOPC   C1A14747  15.234  -0.053   6.396  0.2172  0.2618 -0.2501
 1106YOPC   D2A14748  15.223   0.091   6.685  0.1020 -0.2220 -0.0217
 1106YOPC   C3A14749  15.568   0.443   6.683  0.2182 -0.2223  0.0311
 1106YOPC   C4A14750  15.808   0.774   6.665  0.2393  0.0220  0.0373
 1106YOPC   C1B14751  15.783  -0.096   6.737  0.2259  0.1729 -0.0443
 1106YOPC   C2B14752  15.618   0.163   7.085  0.0873  0.1438 -0.1729
 1106YOPC   D3B14753  15.247   0.013   7.152  0.3131 -0.1687 -0.1332
 1106YOPC   C4B14754  14.915  -0.024   7.059 -0.0203 -0.0690  0.0150
 1107YOPC   NC314755   3.588  16.855   5.398  0.2550  0.0874 -0.3389
 1107YOPC   PO414756   3.516  16.442   5.504 -0.0782  0.3420  0.0542
 1107YOPC   GL114757   3.546  16.369   6.046  0.2529  0.2837 -0.0798
 1107YOPC   GL214758   3.362  16.278   6.217  0.0911 -0.0883 -0.0133
 1107YOPC   C1A14759   3.803  16.234   6.498 -0.1540 -0.1702 -0.3169
 1107YOPC   D2A14760   4.073  16.357   6.749 -0.0596 -0.2412 -0.0974
 1107YOPC   C3A14761   3.942  16.215   7.192 -0.3294 -0.0493 -0.0372
 1107YOPC   C4A14762   3.787  16.005   7.612  0.0486  0.1066  0.1169
 1107YOPC   C1B14763   3.222  16.451   6.595 -0.3767  0.1013 -0.2636
 1107YOPC   C2B14764   3.141  16.528   6.978  0.0280 -0.3603  0.1760
 1107YOPC   D3B14765   2.878  16.427   7.437 -0.0356  0.2231 -0.1907
 1107YOPC   C4B14766   2.681  16.842   7.579  0.2863  0.0538 -0.0579
 1108YOPC   NC314767  11.728   2.560   6.413 -0.2446  0.1906  0.0936
 1108YOPC   PO414768  11.894   2.869   6.415 -0.3522  0.3718 -0.0295
 1108YOPC   GL114769  11.863   2.810   6.891 -0.1777 -0.1992  0.0391
 1108YOPC   GL214770  11.947   2.465   6.943  0.2854 -0.0054  0.2189
 1108YOPC   C1A14771  11.897   2.881   7.305  0.1161  0.2395 -0.1209
 1108YOPC   D2A14772  11.919   2.946   7.645 -0.1170  0.0446  0.1095
 1108YOPC   C3A14773  11.972   2.770   8.059  0.1872  0.0865  0.2406
 1108YOPC   C4A14774  12.079   2.724   8.493 -0.1641  0.1089  0.0082
 1108YOPC   C1B14775  11.552   2.465   7.189  0.0665  0.0269 -0.0509
 1108YOPC   C2B14776  11.436   2.683   7.602 -0.3878  0.0192 -0.0017
 1108YOPC   D3B14777  11.445   2.471   7.926 -0.5231  0.1414 -0.2246
 1108YOPC   C4B14778  11.568   2.583   8.268 -0.0750  0.0165 -0.5390
 1109YOPC   NC314779   7.834  18.411   5.691 -0.1851  0.2700  0.0819
 1109YOPC   PO414780   7.483  18.701   5.665  0.1507 -0.0773  0.1082
 1109YOPC   GL114781   7.395  18.843   6.086  0.1424 -0.3136 -0.0463
 1109YOPC   GL214782   7.214  19.061   6.077 -0.0580 -0.1889 -0.0370
 1109YOPC   C1A14783   7.221  18.705   6.465 -0.1675  0.0448  0.5363
 1109YOPC   D2A14784   7.262  18.719   6.910  0.1544  0.0476 -0.1963
 1109YOPC   C3A14785   7.040  18.496   7.212  0.0408  0.0997 -0.1409
 1109YOPC   C4A14786   6.646  18.529   7.484 -0.2350  0.0771 -0.1594
 1109YOPC   C1B14787   7.134  19.237   6.432 -0.0522 -0.2523  0.2332
 1109YOPC   C2B14788   7.041  19.242   6.755 -0.0515 -0.1739 -0.1430
 1109YOPC   D3B14789   7.031  19.605   7.096  0.1123 -0.0421 -0.0277
 1109YOPC   C4B14790   6.869  19.503   7.460 -0.1531 -0.1247  0.1404
 1110YOPC   NC314791   0.381  17.828   6.218 -0.1399 -0.0975  0.0281
 1110YOPC   PO414792   0.510  17.506   5.888 -0.1290 -0.2882  0.0961
 1110YOPC   GL114793   0.812  17.435   6.159 -0.0097  0.1155 -0.0762
 1110YOPC   GL214794   0.855  17.704   6.387 -0.0047 -0.1135 -0.1942
 1110YOPC   C1A14795   1.070  17.102   6.241 -0.1882  0.0702  0.0454
 1110YOPC   D2A14796   1.393  17.048   6.415 -0.0698 -0.1572  0.1669
 1110YOPC   C3A14797   1.457  16.923   6.836  0.0178  0.1565 -0.2518
 1110YOPC   C4A14798   1.358  16.926   7.218  0.3852 -0.0184  0.0916
 1110YOPC   C1B14799   0.703  17.374   6.668  0.1079 -0.1898 -0.1485
 1110YOPC   C2B14800   0.447  17.077   6.617 -0.0017  0.0545 -0.1055
 1110YOPC   D3B14801   0.474  16.700   6.822  0.0976  0.1424 -0.1029
 1110YOPC   C4B14802   0.476  16.398   7.157 -0.2389 -0.0566 -0.1944
 1111YOPC   NC314803   3.569  13.080   5.075 -0.2508  0.0643  0.1111
 1111YOPC   PO414804   3.467  12.620   5.126  0.0470  0.0509 -0.1970
 1111YOPC   GL114805   3.360  12.796   5.503  0.0249  0.2246  0.3210
 1111YOPC   GL214806   3.556  12.642   5.842 -0.0709 -0.0633 -0.0867
 1111YOPC   C1A14807   3.056  12.881   5.924  0.2257 -0.1701 -0.2080
 1111YOPC   D2A14808   2.836  12.984   6.265 -0.2566  0.0652 -0.0435
 1111YOPC   C3A14809   2.620  13.207   6.604 -0.2212  0.0772 -0.2349
 1111YOPC   C4A14810   2.745  13.460   6.945 -0.0740  0.1253  0.0009
 1111YOPC   C1B14811   3.350  12.521   6.218 -0.0374 -0.0061 -0.0862
 1111YOPC   C2B14812   3.338  12.286   6.561 -0.0362  0.2516 -0.0131
 1111YOPC   D3B14813   3.402  12.208   6.957  0.0796  0.2254 -0.1763
 1111YOPC   C4B14814   3.404  11.956   7.398  0.0090  0.0346 -0.0880
 1112YOPC   NC314815  14.304  18.140   6.579  0.2358 -0.2916  0.1103
 1112YOPC   PO414816  14.006  18.182   6.228  0.1273  0.0399 -0.0206
 1112YOPC   GL114817  13.828  18.088   6.555  0.2066  0.1417 -0.1368
 1112YOPC   GL214818  13.904  18.322   6.852 -0.0778 -0.0112  0.0352
 1112YOPC   C1A14819  13.812  17.841   6.852  0.1973 -0.0635 -0.1686
 1112YOPC   D2A14820  13.963  17.697   7.302  0.0663 -0.0916 -0.2281
 1112YOPC   C3A14821  14.345  17.761   7.514  0.0093  0.0033  0.1634
 1112YOPC   C4A14822  14.785  17.745   7.547 -0.0932  0.1962 -0.0802
 1112YOPC   C1B14823  14.090  18.209   7.199  0.1752  0.1230 -0.0591
 1112YOPC   C2B14824  14.398  18.281   7.267 -0.1592  0.1133 -0.1773
 1112YOPC   D3B14825  14.506  18.663   7.404  0.1655 -0.1232 -0.1034
 1112YOPC   C4B14826  14.256  18.880   7.692 -0.0342 -0.2176  0.1000
 1113YOPC   NC314827  15.549   7.279   5.739  0.0863  0.0489  0.0698
 1113YOPC   PO414828  15.736   7.626   5.648 -0.2074  0.0003 -0.1138
 1113YOPC   GL114829  16.074   7.558   5.896 -0.0753  0.1165 -0.0560
 1113YOPC   GL214830  16.317   7.799   5.773 -0.0182 -0.3628 -0.5701
 1113YOPC   C1A14831  16.287   7.611   6.298 -0.0952 -0.2039 -0.0938
 1113YOPC   D2A14832  16.560   7.894   6.561 -0.0830  0.1116 -0.0509
 1113YOPC   C3A14833  16.411   7.998   7.004 -0.0602 -0.0633 -0.3740
 1113YOPC   C4A14834  16.322   8.011   7.466  0.2999 -0.4761 -0.1075
 1113YOPC   C1B14835  16.625   7.908   6.022 -0.2464 -0.0698 -0.0632
 1113YOPC   C2B14836  16.842   8.214   6.236 -0.1979  0.0263 -0.0961
 1113YOPC   D3B14837  16.751   8.548   6.538  0.2771 -0.0776  0.1607
 1113YOPC   C4B14838  16.935   8.875   6.415 -0.0888 -0.2479  0.1503
 1114YOPC   NC314839  15.211  16.557   5.488  0.0856 -0.3374  0.1892
 1114YOPC   PO414840  15.050  16.923   5.674 -0.1596 -0.1406 -0.0500
 1114YOPC   GL114841  15.208  17.085   6.046 -0.2660 -0.0686  0.1554
 1114YOPC   GL214842  15.431  17.149   6.340 -0.0025  0.1141 -0.0095
 1114YOPC   C1A14843  15.018  16.920   6.519  0.0818 -0.2716  0.2712
 1114YOPC   D2A14844  15.011  16.391   6.506 -0.1138 -0.2114  0.3457
 1114YOPC   C3A14845  15.096  16.189   6.791 -0.2956  0.3459  0.4010
 1114YOPC   C4A14846  15.425  16.063   7.204 -0.2016  0.0087  0.1314
 1114YOPC   C1B14847  15.752  17.383   6.567 -0.1786  0.1648 -0.1128
 1114YOPC   C2B14848  16.094  17.641   6.812  0.0118 -0.0343 -0.0752
 1114YOPC   D3B14849  16.540  17.419   6.864 -0.6551 -0.2292 -0.3917
 1114YOPC   C4B14850  16.866  17.080   6.996 -0.0178  0.0161  0.2496
 1115YOPC   NC314851   3.793  18.244   5.651  0.2071 -0.1508  0.1944
 1115YOPC   PO414852   3.383  18.263   5.530 -0.0806 -0.2419 -0.2678
 1115YOPC   GL114853   3.525  18.655   5.874 -0.0402 -0.0096 -0.0461
 1115YOPC   GL214854   3.843  18.566   6.042  0.3469  0.3827  0.0147
 1115YOPC   C1A14855   3.390  18.698   6.337  0.0278 -0.1626  0.1145
 1115YOPC   D2A14856   3.130  18.820   6.806  0.0250  0.0899  0.2262
 1115YOPC   C3A14857   3.228  18.838   7.175  0.0372  0.0957  0.0544
 1115YOPC   C4A14858   3.264  18.801   7.683  0.0692  0.0493  0.1913
 1115YOPC   C1B14859   3.922  18.679   6.477  0.2618  0.1071 -0.0009
 1115YOPC   C2B14860   3.593  18.781   6.812  0.1041  0.0751 -0.2171
 1115YOPC   D3B14861   3.687  18.619   7.305 -0.0880 -0.1864  0.0926
 1115YOPC   C4B14862   3.600  18.408   7.693 -0.4352 -0.0924  0.1731
 1116YOPC   NC314863   1.433  12.024   5.106 -0.2787  0.0707  0.2751
 1116YOPC   PO414864   1.130  12.060   5.368  0.2147  0.2167  0.1416
 1116YOPC   GL114865   1.225  12.012   5.759 -0.2131  0.0619 -0.2702
 1116YOPC   GL214866   1.095  11.666   5.830 -0.0774 -0.0040 -0.1462
 1116YOPC   C1A14867   1.447  11.842   6.268  0.2874 -0.0793  0.1930
 1116YOPC   D2A14868   1.436  11.756   6.750  0.1294 -0.0455  0.0610
 1116YOPC   C3A14869   1.776  11.568   6.589 -0.2548 -0.0138  0.2560
 1116YOPC   C4A14870   2.196  11.417   6.388  0.0854  0.2205  0.3167
 1116YOPC   C1B14871   1.281  11.402   6.233 -0.1416  0.2135  0.0104
 1116YOPC   C2B14872   1.380  11.301   6.575 -0.2003 -0.0872  0.0961
 1116YOPC   D3B14873   1.391  11.337   6.941 -0.2220 -0.0017  0.1402
 1116YOPC   C4B14874   1.443  11.367   7.289  0.2750  0.0066 -0.1967
 1117YOPC   NC314875   8.737  15.142   5.494  0.0313  0.0187 -0.3271
 1117YOPC   PO414876   8.414  15.126   5.787  0.0496  0.0718 -0.1552
 1117YOPC   GL114877   8.209  15.072   6.184 -0.2428  0.1805  0.2722
 1117YOPC   GL214878   8.085  15.266   6.116 -0.2146  0.0980  0.0139
 1117YOPC   C1A14879   8.208  15.012   6.580 -0.1682  0.1631  0.1490
 1117YOPC   D2A14880   8.077  15.002   7.040  0.0381  0.1445  0.1805
 1117YOPC   C3A14881   7.802  15.311   7.201  0.1432 -0.0294  0.1591
 1117YOPC   C4A14882   7.463  15.313   7.426  0.1755 -0.1394  0.1335
 1117YOPC   C1B14883   7.749  15.264   6.394  0.1938 -0.1882 -0.3775
 1117YOPC   C2B14884   7.625  15.291   6.762 -0.1793 -0.0452 -0.2999
 1117YOPC   D3B14885   7.420  15.618   7.045 -0.0274 -0.0543  0.2000
 1117YOPC   C4B14886   7.363  15.763   7.531  0.0319 -0.1964  0.0561
 1118YOPC   NC314887   8.937   9.884   5.128 -0.0818  0.1423  0.0621
 1118YOPC   PO414888   9.263   9.834   5.549  0.1129  0.0143 -0.0142
 1118YOPC   GL114889   9.192   9.958   6.029  0.0359 -0.0675  0.2006
 1118YOPC   GL214890   9.248  10.195   5.922 -0.2085 -0.3410 -0.0862
 1118YOPC   C1A14891   9.240   9.953   6.467  0.2338  0.3636  0.1456
 1118YOPC   D2A14892   9.175   9.930   6.908 -0.0331  0.2488  0.0921
 1118YOPC   C3A14893   9.068  10.089   7.326  0.1147  0.0568 -0.0867
 1118YOPC   C4A14894   8.845  10.233   7.745 -0.0194  0.0123 -0.4719
 1118YOPC   C1B14895   9.615  10.257   6.227 -0.1577  0.1006  0.0895
 1118YOPC   C2B14896   9.741  10.458   6.520 -0.2019  0.0339 -0.0179
 1118YOPC   D3B14897  10.161  10.450   6.605  0.0035 -0.0525 -0.0728
 1118YOPC   C4B14898  10.488  10.246   6.732 -0.0099 -0.1002  0.1408
 1119YOPC   NC314899  14.431  11.284   5.455  0.1832  0.1528  0.0724
 1119YOPC   PO414900  14.083  11.023   5.621  0.2570 -0.1074  0.2574
 1119YOPC   GL114901  14.076  10.879   6.035  0.1591  0.2310 -0.3922
 1119YOPC   GL214902  13.866  10.522   6.165  0.3034  0.0089  0.4853
 1119YOPC   C1A14903  13.987  10.848   6.541 -0.0865 -0.0808  0.3141
 1119YOPC   D2A14904  13.868  10.871   6.860  0.1162  0.1741 -0.2196
 1119YOPC   C3A14905  14.055  10.879   7.346  0.2279 -0.0446 -0.1125
 1119YOPC   C4A14906  14.496  10.780   7.471 -0.2406  0.0768 -0.0550
 1119YOPC   C1B14907  13.526  10.429   6.326  0.0453 -0.2890 -0.1003
 1119YOPC   C2B14908  13.377  10.076   6.387  0.0715 -0.0009 -0.0702
 1119YOPC   D3B14909  13.280  10.101   6.800 -0.1386 -0.0063 -0.0814
 1119YOPC   C4B14910  13.250  10.178   7.203  0.1324 -0.1973 -0.0091
 1120YOPC   NC314911  15.250   0.760   5.929  0.3177 -0.1520 -0.0612
 1120YOPC   PO414912  14.871   0.807   6.328  0.1213 -0.2050  0.1442
 1120YOPC   GL114913  14.877   0.444   6.584 -0.2758  0.6307  0.2036
 1120YOPC   GL214914  14.601   0.327   6.789  0.0812  0.0733 -0.1750
 1120YOPC   C1A14915  15.164   0.472   6.984  0.1861  0.0736  0.0522
 1120YOPC   D2A14916  15.402   0.571   7.366 -0.0503 -0.4902  0.0357
 1120YOPC   C3A14917  15.242   0.698   7.775 -0.3140  0.0120  0.0428
 1120YOPC   C4A14918  14.937   0.575   8.013  0.3165 -0.0808 -0.3555
 1120YOPC   C1B14919  14.724   0.447   7.213 -0.0463  0.1188  0.0049
 1120YOPC   C2B14920  14.694   0.588   7.577 -0.0103  0.0533  0.1944
 1120YOPC   D3B14921  14.771   1.067   7.871 -0.5649  0.1994  0.3272
 1120YOPC   C4B14922  14.940   1.482   7.909  0.0788 -0.0296  0.3705
 1121YOPC   NC314923   6.393  16.102   5.488  0.1485 -0.0128 -0.2725
 1121YOPC   PO414924   6.416  16.526   5.541  0.1453 -0.0144 -0.0348
 1121YOPC   GL114925   6.397  16.757   5.965  0.1342  0.0620  0.3721
 1121YOPC   GL214926   6.615  16.823   6.312 -0.0031  0.3044 -0.2685
 1121YOPC   C1A14927   6.230  16.508   6.365  0.2972  0.1100 -0.0663
 1121YOPC   D2A14928   6.395  16.272   6.638 -0.1333 -0.1890  0.0521
 1121YOPC   C3A14929   6.408  16.099   7.082 -0.2491 -0.0148  0.0701
 1121YOPC   C4A14930   6.332  15.785   7.266  0.2493  0.2035  0.0184
 1121YOPC   C1B14931   6.516  16.766   6.765  0.2261 -0.1263 -0.1672
 1121YOPC   C2B14932   6.791  16.753   6.958  0.1782 -0.2509 -0.1134
 1121YOPC   D3B14933   7.270  16.541   6.944  0.3587  0.2559  0.1461
 1121YOPC   C4B14934   7.563  16.214   7.077 -0.1550 -0.1242 -0.0976
 1122YOPC   NC314935   7.361  17.948   5.175 -0.1598  0.1921 -0.1117
 1122YOPC   PO414936   7.386  18.151   5.653  0.0751  0.0220 -0.0180
 1122YOPC   GL114937   7.303  18.223   6.064 -0.1487  0.0849 -0.4373
 1122YOPC   GL214938   7.564  18.376   6.098  0.2488 -0.0633 -0.0677
 1122YOPC   C1A14939   7.278  18.190   6.460  0.1086  0.1228  0.1088
 1122YOPC   D2A14940   7.180  18.138   6.858  0.0280 -0.1141  0.2676
 1122YOPC   C3A14941   6.734  18.212   7.001  0.1432  0.1882  0.0400
 1122YOPC   C4A14942   6.381  18.217   7.052 -0.0167 -0.1629 -0.0930
 1122YOPC   C1B14943   7.757  18.411   6.539  0.1141 -0.1292  0.2405
 1122YOPC   C2B14944   7.718  18.331   7.053 -0.2012  0.1956  0.3136
 1122YOPC   D3B14945   8.024  18.119   7.242 -0.0976 -0.0438  0.0025
 1122YOPC   C4B14946   8.144  17.684   7.174  0.2030  0.2365  0.0491
 1123YOPC   NC314947   5.870   0.700   5.640  0.0751 -0.3277  0.0569
 1123YOPC   PO414948   5.559   1.015   5.922 -0.2285  0.1563  0.1068
 1123YOPC   GL114949   5.454   0.840   6.369 -0.1608 -0.3271  0.3035
 1123YOPC   GL214950   5.537   0.896   6.576  0.2356  0.0403  0.1920
 1123YOPC   C1A14951   5.659   0.414   6.576 -0.3623 -0.4658 -0.0250
 1123YOPC   D2A14952   5.543   0.301   6.942  0.0832  0.3054  0.2093
 1123YOPC   C3A14953   5.776   0.427   7.304  0.0836  0.1289 -0.1592
 1123YOPC   C4A14954   5.664   0.289   7.679 -0.2154  0.3049  0.0080
 1123YOPC   C1B14955   5.584   0.822   6.999 -0.2795  0.1512  0.2293
 1123YOPC   C2B14956   5.666   0.898   7.480  0.1944 -0.2446  0.1861
 1123YOPC   D3B14957   5.277   0.790   7.763 -0.3021  0.1618  0.3876
 1123YOPC   C4B14958   4.894   0.685   8.078 -0.1311 -0.0868 -0.0860
 1124YOPC   NC314959  12.892   9.730   5.469 -0.1198 -0.0380 -0.0259
 1124YOPC   PO414960  13.349   9.713   5.525 -0.2567 -0.0024 -0.0389
 1124YOPC   GL114961  13.132   9.556   5.938 -0.1160 -0.0580  0.0504
 1124YOPC   GL214962  13.302   9.629   6.161 -0.2339 -0.3857  0.1746
 1124YOPC   C1A14963  12.720   9.562   6.133 -0.0362  0.1061 -0.0975
 1124YOPC   D2A14964  12.356   9.749   6.351  0.0857 -0.1534  0.0496
 1124YOPC   C3A14965  12.069   9.822   6.767 -0.1205 -0.2239 -0.1655
 1124YOPC   C4A14966  11.956   9.911   7.214 -0.1663 -0.3262 -0.2681
 1124YOPC   C1B14967  13.414   9.252   6.363 -0.3192  0.2432 -0.1023
 1124YOPC   C2B14968  13.417   9.256   6.772  0.0558  0.3619  0.1815
 1124YOPC   D3B14969  13.392   8.828   6.915  0.0542 -0.3459 -0.1658
 1124YOPC   C4B14970  13.240   8.753   7.327 -0.1980 -0.0374  0.0951
 1125YOPC   NC314971  16.882  12.437   5.605  0.0417 -0.1837  0.2625
 1125YOPC   PO414972  16.523  12.315   5.345 -0.0910 -0.1047  0.2120
 1125YOPC   GL114973  16.490  12.320   5.880  0.0484  0.3883 -0.1801
 1125YOPC   GL214974  16.161  12.207   5.925  0.0033  0.1267  0.0734
 1125YOPC   C1A14975  16.719  12.186   6.366  0.3115  0.0829 -0.2098
 1125YOPC   D2A14976  16.714  12.286   6.866  0.2730  0.2561  0.1020
 1125YOPC   C3A14977  16.763  11.887   6.966 -0.1626 -0.3604 -0.0838
 1125YOPC   C4A14978  16.826  11.394   6.803  0.2664 -0.0453  0.4061
 1125YOPC   C1B14979  16.171  12.098   6.354 -0.2421  0.3470  0.1107
 1125YOPC   C2B14980  16.275  12.154   6.664  0.2413 -0.3330 -0.1197
 1125YOPC   D3B14981  16.153  12.352   6.827 -0.2112  0.0548  0.2119
 1125YOPC   C4B14982  15.856  12.464   6.985  0.2660  0.0842 -0.0962
 1126YOPC   NC314983   9.278  18.221   5.622  0.1068 -0.1558 -0.1816
 1126YOPC   PO414984   9.149  18.101   6.051  0.0088  0.0849  0.2633
 1126YOPC   GL114985   9.212  18.282   6.333 -0.2362 -0.0082  0.0046
 1126YOPC   GL214986   9.488  18.322   6.486 -0.1371  0.2974  0.2718
 1126YOPC   C1A14987   9.084  18.502   6.759 -0.0811 -0.2154  0.0497
 1126YOPC   D2A14988   8.736  18.711   6.947  0.0300  0.1289 -0.0015
 1126YOPC   C3A14989   8.426  18.645   6.553  0.0474 -0.0063 -0.0802
 1126YOPC   C4A14990   8.242  18.180   6.364  0.0469 -0.2005 -0.0530
 1126YOPC   C1B14991   9.289  18.086   6.855  0.0740  0.1771 -0.4716
 1126YOPC   C2B14992   9.213  17.895   7.202  0.2190 -0.1649 -0.0409
 1126YOPC   D3B14993   8.912  18.048   7.497 -0.0227 -0.3463 -0.1995
 1126YOPC   C4B14994   8.961  18.332   7.785 -0.1991 -0.1789 -0.0953
 1127YOPC   NC314995   7.319   9.125   5.297 -0.1524  0.1253  0.0806
 1127YOPC   PO414996   7.169   9.464   5.693 -0.0892  0.1540  0.0672
 1127YOPC   GL114997   7.212   9.787   6.052 -0.3900 -0.1779 -0.2651
 1127YOPC   GL214998   7.032  10.025   6.242 -0.0095  0.4911  0.2416
 1127YOPC   C1A14999   7.538   9.879   6.361 -0.0529 -0.1384  0.3195
 1127YOPC   D2A15000   7.733  10.117   6.681  0.1574  0.0692 -0.2734
 1127YOPC   C3A15001   7.667  10.173   7.103 -0.3131 -0.0823  0.2150
 1127YOPC   C4A15002   7.650  10.029   7.477  0.0560  0.0781 -0.0830
 1127YOPC   C1B15003   6.826  10.184   6.569  0.2373  0.1993  0.1871
 1127YOPC   C2B15004   6.764  10.155   7.085  0.0277 -0.3244 -0.0766
 1127YOPC   D3B15005   6.468   9.925   7.346  0.1180 -0.3098 -0.1318
 1127YOPC   C4B15006   6.263   9.687   7.656  0.0092 -0.0519  0.1097
 1128YOPC   NC315007   4.662  12.113   5.311  0.0323  0.0699  0.0110
 1128YOPC   PO415008   4.966  11.945   5.551 -0.0915 -0.0310 -0.0677
 1128YOPC   GL115009   5.163  11.873   5.895 -0.3631 -0.1989  0.0037
 1128YOPC   GL215010   5.369  11.638   5.852 -0.0308 -0.0820  0.3188
 1128YOPC   C1A15011   5.223  11.787   6.350 -0.5509  0.2335 -0.0075
 1128YOPC   D2A15012   5.255  11.566   6.772 -0.0803  0.4420  0.0364
 1128YOPC   C3A15013   5.152  11.386   7.204 -0.1135 -0.0220  0.2686
 1128YOPC   C4A15014   5.199  11.450   7.727 -0.1588 -0.1161  0.2300
 1128YOPC   C1B15015   5.815  11.699   6.046 -0.0762 -0.1699  0.0757
 1128YOPC   C2B15016   6.164  11.878   6.109 -0.0833  0.0951 -0.0359
 1128YOPC   D3B15017   6.125  12.019   6.505 -0.3072  0.2037 -0.4792
 1128YOPC   C4B15018   6.024  12.018   6.876  0.1497 -0.1310  0.1280
 1129YOPC   NC315019   9.195  11.049   5.546  0.2559 -0.0698 -0.0494
 1129YOPC   PO415020   9.047  11.496   5.479 -0.3379  0.0325 -0.0694
 1129YOPC   GL115021   9.148  11.523   5.959 -0.0094  0.2193 -0.0480
 1129YOPC   GL215022   8.871  11.544   6.135  0.1487  0.0872  0.2477
 1129YOPC   C1A15023   9.301  11.280   6.295 -0.2107 -0.1442 -0.2626
 1129YOPC   D2A15024   9.116  11.169   6.626 -0.0911  0.1221  0.1803
 1129YOPC   C3A15025   9.111  10.759   6.859 -0.0081 -0.1656  0.0573
 1129YOPC   C4A15026   9.404  10.438   7.095  0.2439 -0.0259  0.0679
 1129YOPC   C1B15027   8.591  11.490   6.508  0.0462  0.1061 -0.1871
 1129YOPC   C2B15028   8.630  11.384   6.957  0.2972 -0.0406  0.1015
 1129YOPC   D3B15029   8.796  11.563   7.327 -0.1886  0.0682 -0.1644
 1129YOPC   C4B15030   8.876  11.462   7.724  0.1735  0.0095 -0.1965
 1130YOPC   NC315031  18.477  17.405   5.727 -0.1680 -0.1728 -0.1860
 1130YOPC   PO415032  18.507  17.592   6.111 -0.0168  0.0341  0.1420
 1130YOPC   GL115033  18.479  17.811   6.466  0.1260 -0.3008 -0.0345
 1130YOPC   GL215034  18.713  18.048   6.495 -0.2975  0.3312  0.0581
 1130YOPC   C1A15035  18.335  17.755   6.836  0.1267  0.0545 -0.0307
 1130YOPC   D2A15036  18.019  17.643   7.218 -0.1488  0.1411 -0.3765
 1130YOPC   C3A15037  18.155  17.736   7.605  0.0588 -0.0008 -0.0879
 1130YOPC   C4A15038  18.370  17.653   7.979  0.2743  0.1028 -0.0641
 1130YOPC   C1B15039  18.810  17.527   6.769  0.1341 -0.0290  0.0655
 1130YOPC   C2B15040  19.092  17.410   7.159  0.2218 -0.2099 -0.0855
 1130YOPC   D3B15041  18.782  17.167   7.482  0.3645 -0.0143 -0.0888
 1130YOPC   C4B15042  18.430  17.338   7.644 -0.3054 -0.1637  0.0130
 1131YOPC   NC315043   6.330  17.266   5.849  0.0577 -0.2188  0.1042
 1131YOPC   PO415044   6.668  17.559   5.862  0.3335 -0.1041  0.2643
 1131YOPC   GL115045   6.726  17.626   6.300 -0.2160  0.0478 -0.1880
 1131YOPC   GL215046   6.894  17.896   6.400 -0.0779 -0.0513 -0.0543
 1131YOPC   C1A15047   6.800  17.251   6.707 -0.2063  0.0988  0.0479
 1131YOPC   D2A15048   6.814  17.258   7.151 -0.0615  0.0968  0.1489
 1131YOPC   C3A15049   7.083  16.966   7.390  0.0241 -0.0990  0.1404
 1131YOPC   C4A15050   7.064  16.748   7.872  0.1668  0.1314  0.1965
 1131YOPC   C1B15051   6.996  17.707   6.781 -0.2454  0.0068 -0.0534
 1131YOPC   C2B15052   7.099  17.626   7.154 -0.1385  0.0125  0.1162
 1131YOPC   D3B15053   7.065  17.967   7.398 -0.4302 -0.0308  0.1657
 1131YOPC   C4B15054   6.845  18.138   7.708  0.2309  0.0206  0.3179
 1132YOPC   NC315055   3.946   8.443   5.463  0.0351  0.1100 -0.1148
 1132YOPC   PO415056   4.259   8.172   5.611 -0.1557 -0.0262  0.0735
 1132YOPC   GL115057   4.299   8.343   5.958  0.3353  0.0515 -0.2203
 1132YOPC   GL215058   4.070   8.540   6.030  0.0018 -0.1937 -0.3701
 1132YOPC   C1A15059   4.431   8.125   6.307 -0.1097  0.0139 -0.0580
 1132YOPC   D2A15060   4.406   8.254   6.695 -0.0336  0.2067 -0.0336
 1132YOPC   C3A15061   4.678   8.186   7.053 -0.0383 -0.1510  0.0408
 1132YOPC   C4A15062   4.813   8.087   7.431  0.0473 -0.1948 -0.1270
 1132YOPC   C1B15063   4.320   8.637   6.422  0.0483 -0.0678 -0.0847
 1132YOPC   C2B15064   4.532   8.682   6.821  0.1759 -0.0209  0.1537
 1132YOPC   D3B15065   4.269   8.794   7.050 -0.1236 -0.5066  0.1884
 1132YOPC   C4B15066   3.994   9.096   7.231 -0.0136 -0.1315  0.2956
 1133YOPC   NC315067   4.271   3.361   5.679  0.0844  0.0658  0.0330
 1133YOPC   PO415068   4.564   3.087   5.727  0.2440  0.2365  0.4265
 1133YOPC   GL115069   4.439   3.035   6.114  0.0718 -0.0389  0.1760
 1133YOPC   GL215070   4.240   2.795   6.151  0.1996  0.0317  0.0185
 1133YOPC   C1A15071   4.170   3.235   6.410  0.1078  0.3486  0.2214
 1133YOPC   D2A15072   3.939   3.177   6.813  0.1725 -0.1027  0.1761
 1133YOPC   C3A15073   3.533   3.303   6.861 -0.0068  0.2011 -0.0589
 1133YOPC   C4A15074   3.231   3.416   7.111  0.1298 -0.2608 -0.2229
 1133YOPC   C1B15075   4.088   2.705   6.593  0.0633 -0.1171  0.2767
 1133YOPC   C2B15076   4.060   2.496   6.856  0.0740 -0.0659 -0.0452
 1133YOPC   D3B15077   4.012   2.750   7.156 -0.1575 -0.1041  0.0626
 1133YOPC   C4B15078   3.778   3.027   7.324 -0.0149  0.0524  0.0370
 1134YOPC   NC315079  16.433   1.380   5.904 -0.1955  0.1824  0.1095
 1134YOPC   PO415080  16.762   1.731   5.969 -0.2596 -0.1651 -0.0527
 1134YOPC   GL115081  16.829   1.842   6.362 -0.0859 -0.0864 -0.0800
 1134YOPC   GL215082  16.851   2.108   6.350 -0.1684 -0.0217  0.1769
 1134YOPC   C1A15083  17.102   1.721   6.787 -0.0118  0.0825 -0.1910
 1134YOPC   D2A15084  17.299   1.641   7.204 -0.2838  0.3316 -0.1765
 1134YOPC   C3A15085  17.349   1.948   7.595  0.1458 -0.0820  0.3317
 1134YOPC   C4A15086  17.389   2.332   7.967  0.1698 -0.1819  0.2023
 1134YOPC   C1B15087  16.754   2.120   6.807 -0.0207  0.1953 -0.0902
 1134YOPC   C2B15088  16.519   2.326   7.196 -0.3739 -0.0372 -0.0570
 1134YOPC   D3B15089  16.476   2.089   7.602 -0.0869 -0.2153  0.0969
 1134YOPC   C4B15090  16.424   1.711   7.752 -0.0118 -0.0780  0.1312
 1135YOPC   NC315091   0.681   5.746   4.931  0.1948  0.1031 -0.1208
 1135YOPC   PO415092   0.474   5.395   5.119 -0.0126  0.3626  0.1910
 1135YOPC   GL115093   0.400   5.692   5.342  0.2272 -0.2164 -0.1096
 1135YOPC   GL215094   0.259   5.901   5.206  0.0210 -0.2485 -0.0586
 1135YOPC   C1A15095   0.405   5.802   5.784  0.1680  0.0277  0.0610
 1135YOPC   D2A15096   0.394   5.805   6.186  0.2887  0.1188  0.2331
 1135YOPC   C3A15097   0.246   5.433   6.416  0.0096  0.3293  0.0499
 1135YOPC   C4A15098   0.160   5.110   6.707 -0.0129  0.1244 -0.0530
 1135YOPC   C1B15099  -0.058   6.095   5.506 -0.1905  0.0904 -0.2587
 1135YOPC   C2B15100  -0.042   6.249   5.852 -0.3359 -0.0341 -0.0503
 1135YOPC   D3B15101  -0.226   6.691   6.005 -0.0107 -0.1342  0.0094
 1135YOPC   C4B15102  -0.539   6.916   5.879 -0.1191 -0.0700 -0.1312
 1136YOPC   NC315103   2.054  14.369   5.248  0.2478  0.3214 -0.2115
 1136YOPC   PO415104   2.154  14.568   5.668  0.1103  0.0633 -0.0535
 1136YOPC   GL115105   2.490  14.246   5.962  0.1100  0.1652 -0.0457
 1136YOPC   GL215106   2.667  13.889   5.859  0.0006  0.1931 -0.2376
 1136YOPC   C1A15107   2.458  14.195   6.411  0.2698  0.1927  0.2139
 1136YOPC   D2A15108   2.256  14.113   6.795  0.0204 -0.1416  0.3292
 1136YOPC   C3A15109   1.966  13.854   6.999 -0.0962 -0.1873 -0.1303
 1136YOPC   C4A15110   1.704  13.827   7.327  0.0835 -0.0134  0.0182
 1136YOPC   C1B15111   2.230  13.824   6.149 -0.1363  0.1177  0.0077
 1136YOPC   C2B15112   1.771  13.611   6.277 -0.3903  0.3255  0.1660
 1136YOPC   D3B15113   1.571  13.647   6.664 -0.0099  0.0481 -0.1163
 1136YOPC   C4B15114   1.395  13.966   6.937  0.0677  0.1368 -0.1244
 1137YOPC   NC315115  11.121  15.689   5.927 -0.3658  0.1726 -0.0483
 1137YOPC   PO415116  11.056  16.098   5.751  0.0977  0.1255 -0.0769
 1137YOPC   GL115117  10.908  16.037   6.239  0.0684  0.1360 -0.1965
 1137YOPC   GL215118  10.971  16.376   6.422  0.1199  0.0806 -0.2367
 1137YOPC   C1A15119  11.219  15.972   6.578 -0.2803  0.0842  0.2350
 1137YOPC   D2A15120  11.247  16.072   7.051 -0.0295 -0.0608  0.3353
 1137YOPC   C3A15121  11.299  15.969   7.413 -0.2794 -0.1139  0.1552
 1137YOPC   C4A15122  11.203  16.098   7.714  0.0947 -0.1046 -0.0816
 1137YOPC   C1B15123  11.185  16.584   6.713  0.0877  0.4253 -0.0512
 1137YOPC   C2B15124  11.494  16.824   6.841  0.0610 -0.3312  0.0178
 1137YOPC   D3B15125  11.403  17.252   6.783  0.2665 -0.1559  0.1952
 1137YOPC   C4B15126  11.042  17.490   6.743 -0.0518 -0.1814 -0.1000
 1138YOPC   NC315127  11.306   4.153   6.172 -0.0591  0.1218 -0.3629
 1138YOPC   PO415128  11.030   4.341   6.457  0.0662  0.4038 -0.3202
 1138YOPC   GL115129  11.215   4.367   6.696 -0.0258 -0.1110  0.2145
 1138YOPC   GL215130  11.495   4.321   6.607 -0.1188  0.0589 -0.0586
 1138YOPC   C1A15131  11.162   4.583   7.106 -0.0358  0.1549 -0.3020
 1138YOPC   D2A15132  10.911   4.585   7.452  0.1715 -0.0901  0.2891
 1138YOPC   C3A15133  10.716   4.930   7.739 -0.1173  0.0584  0.0372
 1138YOPC   C4A15134  10.518   5.256   8.020  0.2846 -0.1747  0.2927
 1138YOPC   C1B15135  11.565   4.295   7.068  0.2266  0.3332  0.1491
 1138YOPC   C2B15136  11.583   4.492   7.490 -0.0907  0.1015  0.0845
 1138YOPC   D3B15137  11.782   4.916   7.636  0.0014 -0.0720 -0.1186
 1138YOPC   C4B15138  11.955   5.110   8.011  0.3990  0.0862 -0.0370
 1139YOPC   NC315139  13.149   4.620   5.914 -0.0813 -0.0061  0.3428
 1139YOPC   PO415140  13.131   5.063   5.712 -0.0974  0.1046 -0.0558
 1139YOPC   GL115141  13.270   5.366   6.119  0.2253 -0.0962  0.0215
 1139YOPC   GL215142  13.084   5.640   6.215 -0.1163  0.0016 -0.1137
 1139YOPC   C1A15143  13.389   5.364   6.571  0.0418 -0.5453 -0.0245
 1139YOPC   D2A15144  13.487   5.397   7.047 -0.0616 -0.2202  0.0688
 1139YOPC   C3A15145  13.846   5.106   7.277 -0.1198 -0.1105  0.2625
 1139YOPC   C4A15146  13.703   4.883   7.725 -0.0363  0.1000 -0.0849
 1139YOPC   C1B15147  13.207   5.865   6.538  0.0580  0.2674  0.0154
 1139YOPC   C2B15148  13.303   5.890   6.944  0.1834  0.0697 -0.0557
 1139YOPC   D3B15149  13.674   6.126   7.085  0.0227  0.0022 -0.1912
 1139YOPC   C4B15150  13.828   6.485   7.236  0.1078 -0.0782 -0.0744
 1140YOPC   NC315151   7.370   2.195   5.384  0.0890 -0.2706  0.1262
 1140YOPC   PO415152   7.730   2.390   5.608 -0.0117  0.0417  0.1837
 1140YOPC   GL115153   7.791   2.417   6.086  0.2337  0.0987 -0.0453
 1140YOPC   GL215154   8.078   2.642   6.257 -0.2473  0.0145  0.1385
 1140YOPC   C1A15155   7.796   2.292   6.594 -0.2145 -0.1238  0.1311
 1140YOPC   D2A15156   7.904   2.288   7.064  0.1282 -0.0354 -0.0045
 1140YOPC   C3A15157   7.671   2.115   7.316 -0.0803  0.3713 -0.1805
 1140YOPC   C4A15158   7.252   1.893   7.427  0.0318  0.0493  0.0580
 1140YOPC   C1B15159   7.918   2.813   6.685 -0.0590 -0.2708  0.2591
 1140YOPC   C2B15160   7.896   2.828   7.165  0.2033  0.0899  0.2783
 1140YOPC   D3B15161   7.943   3.166   7.405  0.2946 -0.0845  0.0884
 1140YOPC   C4B15162   7.934   3.282   7.827 -0.1931 -0.1348 -0.0739
 1141YOPC   NC315163  15.461  11.030   5.873 -0.1359  0.1859  0.3228
 1141YOPC   PO415164  15.340  10.542   6.025  0.3188  0.0595 -0.1886
 1141YOPC   GL115165  15.627  10.492   6.269  0.3162 -0.1062  0.0613
 1141YOPC   GL215166  15.844  10.219   6.265  0.0720 -0.2693 -0.0911
 1141YOPC   C1A15167  15.808  10.535   6.722 -0.1381 -0.1157  0.0320
 1141YOPC   D2A15168  15.916  10.441   7.206  0.1284  0.0599 -0.1353
 1141YOPC   C3A15169  15.987  10.821   7.478 -0.0634  0.1768 -0.0933
 1141YOPC   C4A15170  15.993  11.205   7.743 -0.0676  0.3218  0.0906
 1141YOPC   C1B15171  15.855   9.761   6.468  0.0673  0.1844 -0.3781
 1141YOPC   C2B15172  16.165   9.480   6.392 -0.0417 -0.0992  0.0689
 1141YOPC   D3B15173  16.275   9.388   5.947 -0.0075  0.3525  0.1333
 1141YOPC   C4B15174  16.462   9.028   5.718  0.1390 -0.1702  0.0699
 1142YOPC   NC315175  14.963   8.137   5.504  0.0849  0.2127 -0.2396
 1142YOPC   PO415176  14.794   7.877   5.769 -0.0206 -0.4381  0.1672
 1142YOPC   GL115177  14.910   7.600   5.856  0.1373  0.1482 -0.0346
 1142YOPC   GL215178  15.115   7.602   6.032 -0.0879  0.0647 -0.1233
 1142YOPC   C1A15179  14.754   7.304   6.147 -0.1011 -0.0340 -0.0181
 1142YOPC   D2A15180  14.710   6.854   6.324 -0.1130  0.0638 -0.0422
 1142YOPC   C3A15181  14.587   6.764   6.758 -0.2662 -0.1656 -0.0758
 1142YOPC   C4A15182  14.311   6.622   7.095  0.0228  0.0288  0.0981
 1142YOPC   C1B15183  15.175   7.395   6.323  0.1830 -0.3523 -0.1083
 1142YOPC   C2B15184  15.222   7.369   6.795  0.1911 -0.2799 -0.1766
 1142YOPC   D3B15185  14.900   7.199   6.830 -0.0752  0.1551  0.0151
 1142YOPC   C4B15186  14.599   7.258   6.589  0.0433  0.2457 -0.0031
 1143YOPC   NC315187   0.532   7.455   4.627 -0.4651  0.0773 -0.0074
 1143YOPC   PO415188   0.556   7.223   4.880  0.2289  0.1586  0.2693
 1143YOPC   GL115189   0.695   7.050   5.266 -0.2936  0.1256  0.0571
 1143YOPC   GL215190   0.876   7.205   5.446  0.0678 -0.1609  0.1608
 1143YOPC   C1A15191   0.520   6.859   5.574 -0.3180  0.0108  0.0051
 1143YOPC   D2A15192   0.301   6.905   5.992  0.0416  0.0325 -0.2669
 1143YOPC   C3A15193   0.433   6.836   6.404 -0.0621  0.0992 -0.2043
 1143YOPC   C4A15194   0.660   6.831   6.720  0.1643 -0.0048 -0.3926
 1143YOPC   C1B15195   0.550   7.295   5.799 -0.0046  0.2981 -0.3038
 1143YOPC   C2B15196   0.633   7.436   6.277  0.1267  0.2362  0.2341
 1143YOPC   D3B15197   0.334   7.325   6.631  0.2489  0.0254 -0.0214
 1143YOPC   C4B15198   0.147   7.322   7.004  0.0554 -0.2627  0.0967
 1144ERGO   ROH15199   0.099  11.410   6.008  0.3922  0.2247 -0.0587
 1144ERGO    R115200   0.133  11.342   6.281  0.1801  0.3187 -0.0070
 1144ERGO    R215201   0.372  11.248   6.382  0.0165  0.0610  0.1476
 1144ERGO    R315202   0.342  11.453   6.557  0.1996  0.1930  0.0301
 1144ERGO    R415203   0.452  11.234   6.718 -0.0999  0.1447  0.1801
 1144ERGO    R515204   0.271  11.347   6.760  0.0148  0.3790  0.0673
 1144ERGO    C115205   0.470  11.418   7.078  0.0043  0.3172  0.0887
 1144ERGO    C215206   0.527  11.635   7.309  0.0110  0.1948  0.3266
 1145ERGO   ROH15207  16.062  13.240   5.767 -0.1803 -0.0871  0.1128
 1145ERGO    R115208  16.155  13.145   6.017 -0.0251 -0.2300  0.0022
 1145ERGO    R215209  16.404  13.030   6.050  0.1360  0.0702 -0.1527
 1145ERGO    R315210  16.431  13.219   6.243 -0.0984 -0.0951  0.0499
 1145ERGO    R415211  16.635  13.017   6.306  0.2773  0.1625 -0.2727
 1145ERGO    R515212  16.481  13.094   6.441  0.1999 -0.2440 -0.1101
 1145ERGO    C115213  16.795  13.188   6.637  0.1394  0.0610 -0.1524
 1145ERGO    C215214  16.958  13.131   6.951  0.0833 -0.1505 -0.0668
 1146ERGO   ROH15215   3.631   1.233   5.876 -0.0099  0.3619  0.1382
 1146ERGO    R115216   3.508   1.201   6.129  0.0186  0.0726  0.1190
 1146ERGO    R215217   3.574   0.995   6.302  0.3461  0.1163  0.0527
 1146ERGO    R315218   3.617   1.199   6.477 -0.0027  0.1324  0.1264
 1146ERGO    R415219   3.557   0.967   6.646 -0.1262  0.0939  0.0342
 1146ERGO    R515220   3.458   1.161   6.652 -0.2355  0.0452 -0.0960
 1146ERGO    C115221   3.587   1.141   7.010 -0.7287  0.0959  0.0925
 1146ERGO    C215222   3.576   1.330   7.358  0.0966  0.0496  0.0653
 1147ERGO   ROH15223  10.163   8.814   6.376 -0.0384  0.1983  0.0268
 1147ERGO    R115224  10.119   8.851   6.653  0.1633  0.2859  0.0474
 1147ERGO    R215225  10.134   8.644   6.834 -0.1764  0.2507  0.0317
 1147ERGO    R315226  10.312   8.807   6.959  0.2208 -0.1096 -0.0383
 1147ERGO    R415227  10.251   8.598   7.156 -0.3970  0.1639  0.1023
 1147ERGO    R515228  10.237   8.813   7.186  0.1520  0.2462 -0.0602
 1147ERGO    C115229  10.487   8.724   7.460 -0.1525 -0.2248  0.0776
 1147ERGO    C215230  10.457   8.682   7.872  0.4562  0.2340 -0.1216
 1148ERGO   ROH15231   4.019  18.058   6.202  0.0946 -0.0364  0.1943
 1148ERGO    R115232   4.033  18.230   6.427  0.0800 -0.0301  0.1928
 1148ERGO    R215233   3.830  18.248   6.614 -0.0206  0.1139  0.0850
 1148ERGO    R315234   4.030  18.192   6.789 -0.1494 -0.0129  0.1913
 1148ERGO    R415235   3.806  18.282   6.957 -0.1456  0.1856  0.0686
 1148ERGO    R515236   4.009  18.361   6.958 -0.0909  0.0233  0.1526
 1148ERGO    C115237   3.980  18.249   7.321 -0.3394  0.1081  0.1589
 1148ERGO    C215238   4.046  18.139   7.552  0.1006 -0.2256 -0.0993
 1149ERGO   ROH15239  10.816  10.070   6.403 -0.1695 -0.0487  0.0250
 1149ERGO    R115240  10.963   9.970   6.623 -0.0642 -0.0165 -0.0298
 1149ERGO    R215241  11.026  10.124   6.843 -0.1873 -0.0569  0.0330
 1149ERGO    R315242  10.905   9.922   6.980  0.0021 -0.2257 -0.0452
 1149ERGO    R415243  11.119  10.014   7.157 -0.1831  0.0232  0.0601
 1149ERGO    R515244  11.085   9.810   7.090  0.0991 -0.0163  0.0181
 1149ERGO    C115245  11.061   9.760   7.468 -0.0029 -0.0887  0.0025
 1149ERGO    C215246  10.971   9.809   7.849 -0.0589  0.0532 -0.1057
 1150ERGO   ROH15247  17.309   0.655   6.514  0.1315 -0.3229  0.0099
 1150ERGO    R115248  17.204   0.712   6.771  0.0788 -0.2749 -0.0222
 1150ERGO    R215249  16.990   0.575   6.878  0.0353 -0.2304 -0.0557
 1150ERGO    R315250  17.161   0.531   7.084 -0.0207 -0.2274 -0.0078
 1150ERGO    R415251  16.895   0.536   7.208 -0.0446 -0.0724 -0.0586
 1150ERGO    R515252  17.068   0.655   7.266 -0.0048 -0.1218 -0.0697
 1150ERGO    C115253  17.001   0.472   7.594 -0.1438  0.0226 -0.0153
 1150ERGO    C215254  17.014   0.420   7.881  0.0465  0.2251 -0.1617
 1151ERGO   ROH15255  14.380  14.450   6.153  0.0955  0.0635 -0.0317
 1151ERGO    R115256  14.560  14.272   6.278  0.0289 -0.0075 -0.0351
 1151ERGO    R215257  14.682  14.328   6.520  0.0380 -0.0657 -0.0234
 1151ERGO    R315258  14.576  14.088   6.592 -0.0501 -0.0332 -0.0468
 1151ERGO    R415259  14.828  14.103   6.739 -0.0354 -0.1539 -0.0655
 1151ERGO    R515260  14.764  13.941   6.608 -0.1087 -0.1100 -0.0805
 1151ERGO    C115261  14.813  13.747   6.933 -0.1607 -0.1750 -0.1120
 1151ERGO    C215262  14.768  13.524   7.240  0.1712  0.0309 -0.0728
 1152ERGO   ROH15263   8.631  17.892   6.227  0.1805 -0.1557  0.1605
 1152ERGO    R115264   8.647  17.927   6.507  0.2480 -0.1192  0.1519
 1152ERGO    R215265   8.816  18.110   6.625  0.0702  0.0974  0.0719
 1152ERGO    R315266   8.587  18.197   6.744  0.0078 -0.1744  0.1583
 1152ERGO    R415267   8.785  18.186   6.961  0.1226  0.1013  0.0763
 1152ERGO    R515268   8.589  18.091   6.960  0.2364 -0.1493  0.1736
 1152ERGO    C115269   8.553  18.312   7.268  0.0947 -0.1515  0.1601
 1152ERGO    C215270   8.458  18.472   7.605 -0.0415  0.1539 -0.1013
 1153ERGO   ROH15271   9.443   6.876   6.574 -0.1100  0.1288 -0.0901
 1153ERGO    R115272   9.584   6.900   6.819 -0.0917  0.0501 -0.0912
 1153ERGO    R215273   9.476   6.821   7.060 -0.0954  0.0189 -0.0979
 1153ERGO    R315274   9.705   6.675   7.078 -0.1240 -0.0299 -0.1465
 1153ERGO    R415275   9.628   6.728   7.357 -0.0085  0.0514 -0.1333
 1153ERGO    R515276   9.822   6.771   7.264 -0.0340 -0.0162 -0.2121
 1153ERGO    C115277   9.931   6.538   7.546  0.0152  0.0244 -0.1996
 1153ERGO    C215278   9.938   6.197   7.797 -0.0125  0.0623  0.0138
 1154ERGO   ROH15279  16.399   2.530   6.209 -0.1393  0.1645 -0.0363
 1154ERGO    R115280  16.318   2.552   6.479 -0.2096  0.0746 -0.0481
 1154ERGO    R215281  16.468   2.685   6.669 -0.1968 -0.0876  0.0664
 1154ERGO    R315282  16.237   2.822   6.710 -0.1423  0.0068  0.0531
 1154ERGO    R415283  16.373   2.827   6.970 -0.0874  0.1018  0.0127
 1154ERGO    R515284  16.169   2.760   6.931 -0.1128  0.1482  0.0983
 1154ERGO    C115285  16.100   3.037   7.183  0.0275  0.3007 -0.0310
 1154ERGO    C215286  16.112   3.247   7.566 -0.1918 -0.0805 -0.0826
 1155ERGO   ROH15287  16.830  10.526   5.655  0.2899  0.1186 -0.1257
 1155ERGO    R115288  16.852  10.473   5.933  0.1056  0.1752 -0.0986
 1155ERGO    R215289  17.058  10.323   6.040 -0.1365 -0.0776  0.0338
 1155ERGO    R315290  17.092  10.542   6.197  0.0989 -0.0689 -0.0274
 1155ERGO    R415291  17.282  10.346   6.302 -0.0045 -0.1855 -0.0694
 1155ERGO    R515292  17.131  10.453   6.416  0.1286 -0.0476 -0.0265
 1155ERGO    C115293  17.445  10.565   6.602  0.2935 -0.2403 -0.1869
 1155ERGO    C215294  17.558  10.735   6.814  0.1594  0.1982 -0.1139
 1156ERGO   ROH15295  10.483  12.206   6.288 -0.6372  0.0080  0.0645
 1156ERGO    R115296  10.383  12.197   6.553 -0.1978 -0.0412  0.2377
 1156ERGO    R215297  10.543  12.135   6.770  0.1998  0.0336 -0.0134
 1156ERGO    R315298  10.450  12.371   6.866  0.2421 -0.0089  0.1307
 1156ERGO    R415299  10.455  12.194   7.099  0.0460 -0.1893 -0.0133
 1156ERGO    R515300  10.284  12.309   7.028  0.1346 -0.0685 -0.0085
 1156ERGO    C115301  10.316  12.450   7.381 -0.0037 -0.3589  0.1220
 1156ERGO    C215302  10.349  12.499   7.775 -0.2418 -0.2159 -0.3124
 1157ERGO   ROH15303  12.916  10.475   6.006 -0.0345  0.1524 -0.0517
 1157ERGO    R115304  12.945  10.355   6.261  0.1425  0.1381 -0.0754
 1157ERGO    R215305  13.058  10.488   6.476  0.0070  0.2433 -0.0557
 1157ERGO    R315306  12.825  10.419   6.599  0.0963 -0.0671 -0.0545
 1157ERGO    R415307  12.989  10.539   6.811 -0.1738  0.3988 -0.1165
 1157ERGO    R515308  12.892  10.343   6.816  0.1735  0.2339  0.0235
 1157ERGO    C115309  12.730  10.504   7.121 -0.1953  0.1978 -0.1508
 1157ERGO    C215310  12.536  10.563   7.437  0.2044  0.1819 -0.0268
 1158ERGO   ROH15311  11.579   6.485   7.408  0.0345  0.1094 -0.2516
 1158ERGO    R115312  11.771   6.559   7.603  0.0438 -0.0087 -0.2159
 1158ERGO    R215313  12.036   6.484   7.586  0.0607  0.0762 -0.3220
 1158ERGO    R315314  12.080   6.751   7.611 -0.0067  0.0684 -0.0953
 1158ERGO    R415315  12.263   6.627   7.804  0.1343 -0.0594 -0.3079
 1158ERGO    R515316  12.117   6.783   7.846  0.1086 -0.1402 -0.0823
 1158ERGO    C115317  12.437   6.961   7.954  0.1138 -0.1457 -0.0869
 1158ERGO    C215318  12.577   7.089   8.196 -0.0980  0.0094 -0.2321
 1159ERGO   ROH15319  17.140  12.445   7.560  0.2741  0.0152  0.1668
 1159ERGO    R115320  17.312  12.665   7.515  0.2130  0.0147 -0.0894
 1159ERGO    R215321  17.278  12.840   7.304 -0.2713  0.1784  0.1064
 1159ERGO    R315322  17.279  13.027   7.501  0.2349  0.0334  0.2552
 1159ERGO    R415323  17.364  13.172   7.262 -0.2466  0.1783  0.1634
 1159ERGO    R515324  17.468  13.164   7.453  0.1821 -0.0010 -0.0665
 1159ERGO    C115325  17.416  13.541   7.424  0.2434  0.0422  0.3364
 1159ERGO    C215326  17.516  13.838   7.513  0.1429 -0.3219 -0.0728
 1160ERGO   ROH15327  14.655   2.443   5.883 -0.0329  0.0680 -0.2152
 1160ERGO    R115328  14.646   2.381   6.158 -0.0228  0.0930 -0.2093
 1160ERGO    R215329  14.828   2.212   6.279 -0.0691  0.0382 -0.2179
 1160ERGO    R315330  14.864   2.423   6.447  0.0256  0.0380 -0.2374
 1160ERGO    R415331  14.874   2.187   6.621 -0.2855  0.0571 -0.1861
 1160ERGO    R515332  14.746   2.361   6.646 -0.1447  0.1794 -0.2919
 1160ERGO    C115333  14.934   2.370   6.977 -0.3227  0.0678 -0.1859
 1160ERGO    C215334  15.073   2.119   7.302  0.0658  0.0419 -0.2112
 1161ERGO   ROH15335   7.685  17.801   5.982 -0.0641 -0.1126  0.1174
 1161ERGO    R115336   7.629  17.881   6.248 -0.0682 -0.0181  0.0887
 1161ERGO    R215337   7.477  17.728   6.421 -0.0702  0.0430  0.1408
 1161ERGO    R315338   7.694  17.751   6.582 -0.0731  0.1005  0.1365
 1161ERGO    R415339   7.465  17.771   6.764 -0.0771  0.0106  0.1445
 1161ERGO    R515340   7.630  17.913   6.747 -0.1229  0.0665  0.1516
 1161ERGO    C115341   7.662  17.818   7.114 -0.0839  0.0459  0.1427
 1161ERGO    C215342   7.632  17.816   7.363  0.4805 -0.2329  0.3296
 1162ERGO   ROH15343   5.603   7.498   6.428 -0.1452  0.0773  0.2454
 1162ERGO    R115344   5.713   7.441   6.683 -0.0753 -0.0452  0.1880
 1162ERGO    R215345   5.731   7.630   6.883  0.0439 -0.1237  0.2493
 1162ERGO    R315346   5.597   7.443   7.028  0.0424 -0.1386  0.2299
 1162ERGO    R415347   5.720   7.617   7.229 -0.0128 -0.1145  0.2484
 1162ERGO    R515348   5.738   7.401   7.216  0.0179 -0.1150  0.2560
 1162ERGO    C115349   5.587   7.434   7.565 -0.0472 -0.1232  0.2295
 1162ERGO    C215350   5.396   7.501   7.758  0.1385  0.0961  0.0153
 1163ERGO   ROH15351   1.798  18.148   6.120 -0.1488  0.1421  0.4032
 1163ERGO    R115352   2.044  18.019   6.171 -0.0658  0.1695  0.0998
 1163ERGO    R215353   2.280  18.157   6.208 -0.0958  0.2188  0.1431
 1163ERGO    R315354   2.290  18.015   6.439  0.0846 -0.0740 -0.0393
 1163ERGO    R415355   2.550  18.154   6.424 -0.0925  0.2748  0.1387
 1163ERGO    R515356   2.518  17.940   6.451  0.1804  0.1962 -0.1404
 1163ERGO    C115357   2.717  18.019   6.767  0.0788  0.0326 -0.0350
 1163ERGO    C215358   2.820  18.189   6.902 -0.2043 -0.5629  0.2692
 1164ERGO   ROH15359  14.301   8.002   6.637  0.2173  0.0217  0.1006
 1164ERGO    R115360  14.369   7.840   6.858  0.0957 -0.0281  0.1024
 1164ERGO    R215361  14.301   7.905   7.118 -0.0334 -0.0783  0.0826
 1164ERGO    R315362  14.190   7.657   7.117 -0.0472 -0.0720 -0.0268
 1164ERGO    R415363  14.184   7.739   7.398 -0.2360 -0.1153 -0.0218
 1164ERGO    R515364  14.269   7.555   7.319 -0.1929 -0.1066  0.0119
 1164ERGO    C115365  14.012   7.409   7.560 -0.3668 -0.1308 -0.1854
 1164ERGO    C215366  13.771   7.337   7.706  0.0200  0.1364  0.1559
 1165ERGO   ROH15367   0.732  12.018   5.798  0.0244  0.1308  0.1081
 1165ERGO    R115368   0.732  11.950   6.073  0.1410  0.0036  0.0776
 1165ERGO    R215369   0.964  11.943   6.224  0.1845  0.0955  0.0149
 1165ERGO    R315370   0.825  12.112   6.385  0.1055 -0.0752  0.1298
 1165ERGO    R415371   1.053  12.026   6.548  0.2261  0.0280  0.0211
 1165ERGO    R515372   0.843  12.015   6.603  0.2494 -0.1547  0.0852
 1165ERGO    C115373   0.975  12.234   6.886  0.1763 -0.1717  0.1327
 1165ERGO    C215374   1.253  12.446   6.989  0.1025 -0.1492 -0.0455
 1166ERGO   ROH15375  11.852  16.890   8.039 -0.0669 -0.0288 -0.0146
 1166ERGO    R115376  12.018  17.119   8.056 -0.1653  0.0514 -0.1474
 1166ERGO    R215377  11.918  17.371   8.108 -0.2273 -0.0346  0.1157
 1166ERGO    R315378  12.102  17.366   8.309  0.0730 -0.0212 -0.1492
 1166ERGO    R415379  12.027  17.648   8.284 -0.4600 -0.0842  0.3467
 1166ERGO    R515380  12.229  17.567   8.278 -0.3091  0.2541 -0.0624
 1166ERGO    C115381  12.263  17.805   8.575 -0.3134 -0.1007  0.2325
 1166ERGO    C215382  12.441  17.851   8.920 -0.3573 -0.4870 -0.4231
 1167ERGO   ROH15383   6.708  11.344   5.998  0.2490  0.0478 -0.0773
 1167ERGO    R115384   6.763  11.186   6.226  0.2122  0.0998 -0.0315
 1167ERGO    R215385   6.778  11.292   6.481  0.1396  0.1537 -0.0465
 1167ERGO    R315386   6.593  11.101   6.536  0.1465  0.1454 -0.0560
 1167ERGO    R415387   6.665  11.211   6.798  0.1528  0.1181 -0.0515
 1167ERGO    R515388   6.669  11.001   6.740  0.1542  0.1267 -0.0707
 1167ERGO    C115389   6.427  10.984   7.034  0.1669  0.0897 -0.0633
 1167ERGO    C215390   6.218  10.964   7.268  0.3256  0.0232  0.3030
 1168ERGO   ROH15391   5.258   9.171   6.079 -0.1812 -0.1339  0.0519
 1168ERGO    R115392   5.446   9.261   6.271 -0.0654 -0.3139  0.0237
 1168ERGO    R215393   5.412   9.494   6.414  0.2481 -0.2098 -0.0758
 1168ERGO    R315394   5.446   9.330   6.628  0.0149 -0.1684 -0.0020
 1168ERGO    R415395   5.478   9.601   6.737  0.3114 -0.1445 -0.1089
 1168ERGO    R515396   5.618   9.436   6.757  0.1206 -0.3093 -0.0158
 1168ERGO    C115397   5.548   9.508   7.125  0.1294 -0.0677 -0.0589
 1168ERGO    C215398   5.768   9.554   7.470 -0.0562 -0.0197  0.1766
 1169ERGO   ROH15399  12.517   7.499   6.748  0.1606  0.0639 -0.2326
 1169ERGO    R115400  12.498   7.392   7.010 -0.2155  0.0251 -0.2700
 1169ERGO    R215401  12.319   7.193   7.077  0.0141 -0.3352 -0.6844
 1169ERGO    R315402  12.542   7.067   7.166  0.0818  0.1010 -0.1869
 1169ERGO    R415403  12.321   6.909   7.274  0.1173 -0.3625 -0.7239
 1169ERGO    R515404  12.486   6.995   7.387 -0.2965 -0.0360 -0.3165
 1169ERGO    C115405  12.532   6.626   7.473  0.2409  0.0311 -0.2798
 1169ERGO    C215406  12.539   6.292   7.569 -0.2209  0.3236 -0.2990
 1170ERGO   ROH15407  17.928   5.406   5.545  0.0481 -0.0705 -0.0181
 1170ERGO    R115408  17.894   5.547   5.788 -0.0465 -0.0495 -0.0425
 1170ERGO    R215409  17.750   5.444   6.001  0.0047 -0.1015 -0.0292
 1170ERGO    R315410  17.979   5.494   6.138 -0.0284  0.0580 -0.0311
 1170ERGO    R415411  17.764   5.573   6.321 -0.0836 -0.2442  0.0330
 1170ERGO    R515412  17.933   5.696   6.259 -0.2125 -0.0464  0.0741
 1170ERGO    C115413  17.988   5.696   6.636 -0.1662 -0.1775  0.0673
 1170ERGO    C215414  17.949   5.624   7.029  0.1593 -0.0630 -0.1126
 1171ERGO   ROH15415   9.003  12.817   6.011 -0.3481 -0.0033  0.0382
 1171ERGO    R115416   9.077  12.862   6.281 -0.1207 -0.1509  0.0036
 1171ERGO    R215417   8.906  12.976   6.465  0.1702  0.1365  0.1104
 1171ERGO    R315418   8.963  12.752   6.608 -0.1376  0.0184  0.0539
 1171ERGO    R415419   8.869  12.945   6.807  0.1660  0.1053  0.1067
 1171ERGO    R515420   9.056  12.834   6.813  0.0050 -0.1671  0.0617
 1171ERGO    C115421   8.900  12.717   7.141 -0.1255 -0.0236  0.0515
 1171ERGO    C215422   8.940  12.511   7.482  0.2741 -0.1954 -0.1400
 1172ERGO   ROH15423   5.005   4.530   6.015 -0.3029  0.1082 -0.0148
 1172ERGO    R115424   4.998   4.627   6.281 -0.0169  0.0183  0.0297
 1172ERGO    R215425   4.806   4.547   6.463  0.0137  0.1616  0.1275
 1172ERGO    R315426   5.022   4.485   6.615  0.0515 -0.1370 -0.0409
 1172ERGO    R415427   4.801   4.507   6.806  0.2561  0.3247  0.1528
 1172ERGO    R515428   4.992   4.611   6.816  0.4478  0.0085 -0.0656
 1172ERGO    C115429   5.002   4.424   7.149  0.4327  0.1394  0.0095
 1172ERGO    C215430   4.931   4.386   7.411 -0.0670 -0.0345  0.0797
 1173ERGO   ROH15431   2.764  14.700   6.411  0.0196  0.1020  0.0476
 1173ERGO    R115432   2.916  14.693   6.650  0.1304 -0.0307 -0.0271
 1173ERGO    R215433   2.959  14.918   6.806  0.2569 -0.1097  0.0370
 1173ERGO    R315434   2.857  14.761   7.003  0.3192 -0.1587  0.0336
 1173ERGO    R415435   2.955  15.000   7.141  0.2306 -0.1038  0.0367
 1173ERGO    R515436   3.006  14.793   7.188  0.3178 -0.0947  0.0338
 1173ERGO    C115437   2.856  14.901   7.522  0.2737 -0.1463  0.0332
 1173ERGO    C215438   2.768  15.163   7.780  0.4174  0.4730 -0.2008
 1174ERGO   ROH15439  12.375  14.477   6.437 -0.1316  0.0686  0.1634
 1174ERGO    R115440  12.476  14.605   6.668 -0.1438  0.0598  0.1732
 1174ERGO    R215441  12.321  14.653   6.891 -0.0940 -0.1525  0.2520
 1174ERGO    R315442  12.521  14.521   7.019  0.0637 -0.0405  0.1252
 1174ERGO    R415443  12.435  14.728   7.209 -0.0689 -0.2009  0.2547
 1174ERGO    R515444  12.639  14.693   7.138 -0.0531  0.0125  0.1720
 1174ERGO    C115445  12.690  14.649   7.514  0.0938 -0.1239  0.1371
 1174ERGO    C215446  12.804  14.560   7.825  0.1011 -0.1107 -0.1071
 1175ERGO   ROH15447   1.439   8.407   5.861 -0.1323  0.3603  0.2132
 1175ERGO    R115448   1.506   8.345   6.129 -0.2108  0.0890  0.1746
 1175ERGO    R215449   1.391   8.136   6.267 -0.0345 -0.2505 -0.1638
 1175ERGO    R315450   1.649   8.061   6.307  0.0404  0.0230 -0.1257
 1175ERGO    R415451   1.505   7.961   6.543  0.1207 -0.1270 -0.1494
 1175ERGO    R515452   1.683   8.088   6.543 -0.0163  0.0592 -0.1255
 1175ERGO    C115453   1.815   7.790   6.741  0.2813  0.2017 -0.1053
 1175ERGO    C215454   2.159   7.673   7.036 -0.3299 -0.0892  0.1758
 1176ERGO   ROH15455   9.784   3.245   6.867  0.0371 -0.0612 -0.0769
 1176ERGO    R115456   9.812   3.297   7.144  0.1367  0.0291 -0.1032
 1176ERGO    R215457   9.803   3.553   7.248 -0.0240  0.0506 -0.1608
 1176ERGO    R315458   9.609   3.448   7.406  0.1443 -0.0776 -0.0367
 1176ERGO    R415459   9.787   3.589   7.592  0.0727  0.1832 -0.1695
 1176ERGO    R515460   9.724   3.381   7.605  0.2890  0.1260 -0.0516
 1176ERGO    C115461   9.595   3.511   7.940  0.2871  0.1401 -0.0581
 1176ERGO    C215462   9.732   3.746   8.125  0.0033  0.3812  0.2719
 1177ERGO   ROH15463  11.222  14.972   6.375 -0.0911  0.0183  0.1213
 1177ERGO    R115464  11.348  14.949   6.628 -0.0274  0.0487  0.0932
 1177ERGO    R215465  11.554  15.116   6.708 -0.0062  0.0591  0.0224
 1177ERGO    R315466  11.391  15.160   6.921  0.0459  0.0846  0.0562
 1177ERGO    R415467  11.660  15.219   7.020  0.0733  0.0558 -0.0038
 1177ERGO    R515468  11.517  15.083   7.109  0.0770  0.0759  0.0311
 1177ERGO    C115469  11.570  15.322   7.402  0.1682  0.0776  0.0127
 1177ERGO    C215470  11.762  15.515   7.624 -0.3190  0.0131  0.0640
 1178ERGO   ROH15471   9.648  15.203   6.309  0.0799  0.3965  0.1061
 1178ERGO    R115472   9.584  15.110   6.569  0.0319  0.2451  0.0415
 1178ERGO    R215473   9.696  14.882   6.677 -0.0773  0.1145 -0.1137
 1178ERGO    R315474   9.764  15.050   6.880 -0.0002 -0.0566  0.0039
 1178ERGO    R415475   9.742  14.786   7.005 -0.3500 -0.0983 -0.1342
 1178ERGO    R515476   9.640  14.968   7.068 -0.1867 -0.0180 -0.0997
 1178ERGO    C115477   9.833  14.887   7.387 -0.4365 -0.3829 -0.0356
 1178ERGO    C215478   9.817  14.677   7.686  0.0283 -0.0332 -0.1627
 1179ERGO   ROH15479   3.862   0.598   6.504  0.0400 -0.1973 -0.0118
 1179ERGO    R115480   3.972   0.597   6.764  0.0038 -0.0606  0.0043
 1179ERGO    R215481   3.858   0.735   6.975 -0.1547 -0.1360 -0.0335
 1179ERGO    R315482   3.864   0.491   7.096  0.0516 -0.1150  0.0030
 1179ERGO    R415483   3.881   0.684   7.316 -0.3901 -0.0605 -0.0036
 1179ERGO    R515484   4.018   0.519   7.277 -0.1404  0.1073  0.1375
 1179ERGO    C115485   3.901   0.426   7.628 -0.3335  0.0031  0.0482
 1179ERGO    C215486   3.856   0.294   8.042 -0.0696 -0.0758  0.2342
 1180ERGO   ROH15487   1.885  16.174   6.159  0.3687  0.3473 -0.1593
 1180ERGO    R115488   1.792  16.160   6.426  0.2442  0.1503 -0.2114
 1180ERGO    R215489   1.916  16.008   6.620  0.1372 -0.0163 -0.2709
 1180ERGO    R315490   1.920  16.243   6.757  0.1032 -0.1208 -0.0857
 1180ERGO    R415491   1.864  16.038   6.960  0.0381 -0.2720 -0.2606
 1180ERGO    R515492   1.747  16.218   6.921  0.0560 -0.2401 -0.1548
 1180ERGO    C115493   1.837  16.276   7.287 -0.0514 -0.5193 -0.0808
 1180ERGO    C215494   1.751  16.161   7.556  0.0953 -0.0485  0.3381
 1181ERGO   ROH15495  13.527  14.897   6.668 -0.1170  0.0636  0.1517
 1181ERGO    R115496  13.649  14.904   6.923 -0.1236 -0.2750  0.1665
 1181ERGO    R215497  13.541  15.042   7.137  0.1205 -0.1519  0.2060
 1181ERGO    R315498  13.562  14.801   7.261 -0.3504 -0.2476  0.1200
 1181ERGO    R415499  13.539  14.995   7.480  0.5331 -0.1858  0.2097
 1181ERGO    R515500  13.695  14.845   7.455  0.0983 -0.6347 -0.0729
 1181ERGO    C115501  13.557  14.743   7.796  0.3312 -0.2953  0.1312
 1181ERGO    C215502  13.525  14.634   8.118  0.2090 -0.1326 -0.1131
 1182ERGO   ROH15503   2.344  14.649   6.182  0.0109  0.2961 -0.0304
 1182ERGO    R115504   2.299  14.730   6.449 -0.1518  0.0270  0.0266
 1182ERGO    R215505   2.199  14.559   6.642  0.2348 -0.3261 -0.0788
 1182ERGO    R315506   2.422  14.634   6.778  0.0858  0.0789 -0.0426
 1182ERGO    R415507   2.219  14.590   6.985  0.1998 -0.6345 -0.0451
 1182ERGO    R515508   2.339  14.770   6.957 -0.2315 -0.2967  0.1164
 1182ERGO    C115509   2.440  14.678   7.313  0.0396 -0.4339  0.0085
 1182ERGO    C215510   2.373  14.816   7.688 -0.0277 -0.3179 -0.1148
 1183ERGO   ROH15511  12.006  12.018   6.198  0.0639  0.1575  0.0690
 1183ERGO    R115512  11.972  12.209   6.404 -0.0501  0.0447  0.1563
 1183ERGO    R215513  11.759  12.203   6.579 -0.0512 -0.1579  0.1498
 1183ERGO    R315514  11.955  12.205   6.768 -0.0562 -0.1320  0.1551
 1183ERGO    R415515  11.705  12.189   6.921 -0.0583 -0.1428  0.1496
 1183ERGO    R515516  11.864  12.336   6.946 -0.0708 -0.1290  0.1454
 1183ERGO    C115517  11.857  12.184   7.296 -0.0673 -0.1096  0.1543
 1183ERGO    C215518  11.611  12.059   7.534  0.3116 -0.0729  0.3603
 1184ERGO   ROH15519  16.260   3.729   6.043  0.0830  0.0516  0.0543
 1184ERGO    R115520  16.359   3.633   6.290  0.1223 -0.0057  0.0173
 1184ERGO    R215521  16.607   3.513   6.314  0.2288  0.1995 -0.0071
 1184ERGO    R315522  16.644   3.703   6.505  0.0210  0.1242  0.1096
 1184ERGO    R415523  16.855   3.505   6.554  0.3560  0.4127 -0.1285
 1184ERGO    R515524  16.710   3.579   6.700  0.3036  0.0850 -0.0081
 1184ERGO    C115525  17.034   3.678   6.874  0.2349  0.4662 -0.0896
 1184ERGO    C215526  17.173   3.622   7.307 -0.0965 -0.1318  0.1846
 1185ERGO   ROH15527  12.490  11.851   6.296 -0.0797 -0.0027 -0.0463
 1185ERGO    R115528  12.390  11.939   6.546 -0.1554 -0.0138 -0.0720
 1185ERGO    R215529  12.160  11.835   6.660 -0.1265 -0.1043 -0.0893
 1185ERGO    R315530  12.324  11.791   6.872 -0.1329 -0.0013 -0.0626
 1185ERGO    R415531  12.058  11.821   6.989 -0.1443 -0.0368 -0.0919
 1185ERGO    R515532  12.238  11.931   7.045 -0.1798  0.0237 -0.1092
 1185ERGO    C115533  12.153  11.771   7.381 -0.1606  0.0994 -0.0684
 1185ERGO    C215534  11.970  11.690   7.702  0.0001 -0.0109  0.2276
 1186ERGO   ROH15535   3.228   4.650   6.362  0.2032  0.0471  0.0331
 1186ERGO    R115536   3.311   4.778   6.601  0.0463  0.0649  0.0810
 1186ERGO    R215537   3.213   4.708   6.850  0.0960 -0.1165  0.0570
 1186ERGO    R315538   3.476   4.680   6.909  0.1224  0.1428  0.0637
 1186ERGO    R415539   3.345   4.715   7.169  0.1161  0.2253  0.0431
 1186ERGO    R515540   3.512   4.831   7.092  0.0143  0.3042 -0.0500
 1186ERGO    C115541   3.670   4.693   7.411  0.1527  0.6678  0.0414
 1186ERGO    C215542   3.795   4.805   7.678 -0.1321  0.0753 -0.2357
 1187ERGO   ROH15543   9.552  14.353   6.499 -0.0797 -0.2215 -0.0708
 1187ERGO    R115544   9.621  14.443   6.758 -0.1052  0.0330 -0.1500
 1187ERGO    R215545   9.446  14.429   6.972 -0.0915  0.1475 -0.1282
 1187ERGO    R315546   9.652  14.297   7.090 -0.0315  0.3323 -0.0222
 1187ERGO    R415547   9.469  14.361   7.310 -0.2699  0.0463 -0.1352
 1187ERGO    R515548   9.682  14.408   7.300 -0.3130  0.2871  0.0436
 1187ERGO    C115549   9.676  14.197   7.618 -0.3174  0.1608 -0.0399
 1187ERGO    C215550   9.850  14.144   7.915  0.1865 -0.0735 -0.0331
 1188ERGO   ROH15551  15.978  14.099   6.600 -0.0469  0.1378 -0.0999
 1188ERGO    R115552  15.904  13.836   6.673  0.0357  0.1179 -0.0890
 1188ERGO    R215553  16.039  13.692   6.868  0.0593  0.1816 -0.0605
 1188ERGO    R315554  15.790  13.667   6.975  0.0533  0.1008 -0.0913
 1188ERGO    R415555  15.946  13.451   7.097  0.1399  0.2158  0.0093
 1188ERGO    R515556  15.756  13.431   6.992  0.1643  0.0884 -0.0149
 1188ERGO    C115557  15.658  13.287   7.331  0.1813  0.1600  0.0211
 1188ERGO    C215558  15.515  12.878   7.567 -0.3837 -0.1208 -0.1361
 1189ERGO   ROH15559   6.323  17.794   6.471 -0.1577  0.2087 -0.0867
 1189ERGO    R115560   6.401  17.653   6.703 -0.1063  0.0497 -0.1996
 1189ERGO    R215561   6.530  17.774   6.915 -0.0072 -0.1068 -0.1703
 1189ERGO    R315562   6.326  17.666   7.059  0.0210 -0.1522 -0.1632
 1189ERGO    R415563   6.520  17.757   7.260  0.0131 -0.1163 -0.1698
 1189ERGO    R515564   6.435  17.557   7.243  0.0530 -0.1345 -0.1705
 1189ERGO    C115565   6.323  17.646   7.597  0.0513 -0.1645 -0.1629
 1189ERGO    C215566   6.113  17.759   7.965 -0.3463 -0.1932  0.2018
 1190ERGO   ROH15567  13.192  16.091   6.836  0.4734  0.0857  0.1982
 1190ERGO    R115568  13.112  15.954   7.071  0.1489  0.1151  0.1097
 1190ERGO    R215569  13.287  15.898   7.277 -0.0496 -0.1688  0.2107
 1190ERGO    R315570  13.100  16.027   7.427  0.0138  0.0277  0.1226
 1190ERGO    R415571  13.221  15.833   7.610 -0.2344 -0.0523  0.1975
 1190ERGO    R515572  13.008  15.856   7.568 -0.1964  0.1370  0.1183
 1190ERGO    C115573  13.007  15.916   7.944 -0.2824  0.2001  0.1073
 1190ERGO    C215574  13.049  15.936   8.148  0.0480 -0.0419 -0.0702
 1191ERGO   ROH15575   7.389  15.950   6.041 -0.1443 -0.0157  0.1741
 1191ERGO    R115576   7.174  15.955   6.225 -0.2073 -0.0476  0.0999
 1191ERGO    R215577   6.911  15.980   6.144 -0.1880 -0.2067  0.0029
 1191ERGO    R315578   6.878  15.753   6.290 -0.1343 -0.1641  0.0841
 1191ERGO    R415579   6.641  15.915   6.350 -0.2007 -0.2046 -0.0117
 1191ERGO    R515580   6.779  15.828   6.495 -0.1873 -0.1091  0.0446
 1191ERGO    C115581   6.453  15.665   6.607 -0.1576 -0.1633  0.0559
 1191ERGO    C215582   6.235  15.725   6.718 -0.2369 -0.0336  0.1616
 1192ERGO   ROH15583  14.401  11.076   6.398  0.0414 -0.1167  0.1245
 1192ERGO    R115584  14.464  11.074   6.674  0.0347 -0.0575  0.1240
 1192ERGO    R215585  14.476  11.305   6.826 -0.0631 -0.0430  0.0879
 1192ERGO    R315586  14.300  11.172   6.983 -0.0081 -0.0892  0.1155
 1192ERGO    R415587  14.405  11.385   7.154 -0.4417  0.3194 -0.0707
 1192ERGO    R515588  14.401  11.172   7.200 -0.1710  0.3548  0.2122
 1192ERGO    C115589  14.198  11.307   7.494 -0.6107  0.4872 -0.1371
 1192ERGO    C215590  14.024  11.542   7.659  0.1227  0.1546 -0.0765
 1193ERGO   ROH15591   1.937   3.363   5.795  0.3251  0.2477 -0.0660
 1193ERGO    R115592   1.891   3.285   6.063  0.2963  0.1398 -0.1035
 1193ERGO    R215593   2.070   3.338   6.266  0.1647  0.2618 -0.0285
 1193ERGO    R315594   1.853   3.451   6.385  0.0114  0.0247 -0.0718
 1193ERGO    R415595   2.024   3.364   6.608  0.1741  0.3733 -0.0346
 1193ERGO    R515596   1.814   3.314   6.578  0.2277  0.0585  0.0080
 1193ERGO    C115597   1.794   3.486   6.918  0.0355  0.2155 -0.0786
 1193ERGO    C215598   1.974   3.657   7.195 -0.2507  0.2572  0.2590
 1194ERGO   ROH15599  13.008  14.228   6.269 -0.0526  0.1425 -0.0864
 1194ERGO    R115600  13.270  14.197   6.371 -0.0727  0.0434 -0.0628
 1194ERGO    R215601  13.445  14.409   6.397  0.0238 -0.0308 -0.0950
 1194ERGO    R315602  13.460  14.324   6.654 -0.0334  0.0155 -0.0766
 1194ERGO    R415603  13.694  14.499   6.619 -0.0937  0.1084 -0.0187
 1194ERGO    R515604  13.695  14.293   6.693 -0.0338  0.1201  0.0130
 1194ERGO    C115605  13.853  14.471   6.991 -0.2157  0.2329  0.0430
 1194ERGO    C215606  14.049  14.590   7.236 -0.0389  0.2494  0.3137
 1195ERGO   ROH15607   5.233  10.954   6.121  0.1986 -0.0048 -0.0991
 1195ERGO    R115608   5.124  10.846   6.359  0.0717 -0.0728 -0.1865
 1195ERGO    R215609   5.118  10.574   6.410  0.1725 -0.0804 -0.2060
 1195ERGO    R315610   5.246  10.647   6.639 -0.0375 -0.0242 -0.1043
 1195ERGO    R415611   5.077  10.421   6.717 -0.0670 -0.0371 -0.2145
 1195ERGO    R515612   5.082  10.618   6.811 -0.1808 -0.0235 -0.2404
 1195ERGO    C115613   5.173  10.401   7.111 -0.4036  0.0410 -0.1240
 1195ERGO    C215614   5.235  10.448   7.550  0.1655  0.3787  0.3223
 1196ERGO   ROH15615   3.701  10.787   5.720 -0.3691  0.1041 -0.0997
 1196ERGO    R115616   3.526  10.882   5.921 -0.3549 -0.1245  0.0241
 1196ERGO    R215617   3.375  10.713   6.079  0.0800 -0.3344  0.2301
 1196ERGO    R315618   3.495  10.849   6.282  0.0359 -0.0470  0.0689
 1196ERGO    R415619   3.277  10.703   6.410  0.2069 -0.1216  0.2768
 1196ERGO    R515620   3.315  10.917   6.424  0.0277 -0.0743  0.0711
 1196ERGO    C115621   3.333  10.825   6.793  0.2395  0.2722  0.1527
 1196ERGO    C215622   3.473  10.896   7.137 -0.2426  0.2989 -0.0415
 1197ERGO   ROH15623  16.721  16.014   6.466 -0.0072 -0.0616 -0.0067
 1197ERGO    R115624  16.590  16.055   6.714  0.0363 -0.0527  0.0147
 1197ERGO    R215625  16.615  15.880   6.927  0.0361 -0.0694  0.0002
 1197ERGO    R315626  16.690  16.105   7.060  0.0954 -0.0906  0.0033
 1197ERGO    R415627  16.575  15.930   7.266  0.0663 -0.0719  0.0043
 1197ERGO    R515628  16.519  16.137   7.224  0.1111 -0.0568  0.0140
 1197ERGO    C115629  16.623  16.170   7.590  0.1393 -0.0934  0.0096
 1197ERGO    C215630  16.654  16.199   7.923 -0.3397  0.2352  0.1440
 1198ERGO   ROH15631  14.180  15.408   6.283  0.0777 -0.0044 -0.0164
 1198ERGO    R115632  14.395  15.298   6.430  0.1796  0.2498  0.0305
 1198ERGO    R215633  14.541  15.445   6.613 -0.2113  0.3569  0.2719
 1198ERGO    R315634  14.474  15.242   6.781  0.0300  0.0746  0.0368
 1198ERGO    R415635  14.670  15.401   6.930 -0.1051  0.0862  0.1933
 1198ERGO    R515636  14.679  15.187   6.891  0.1068  0.1422 -0.0752
 1198ERGO    C115637  14.683  15.184   7.273  0.1831 -0.3365 -0.0732
 1198ERGO    C215638  14.814  15.102   7.509 -0.0980  0.1608  0.0564
 1199ERGO   ROH15639  13.873   8.036   6.638 -0.1336  0.0855 -0.1195
 1199ERGO    R115640  13.889   7.921   6.896 -0.1112  0.0754 -0.1242
 1199ERGO    R215641  13.901   8.074   7.127 -0.1988  0.0684 -0.1085
 1199ERGO    R315642  13.687   7.923   7.199 -0.1439 -0.0262 -0.1465
 1199ERGO    R415643  13.824   7.984   7.451 -0.1663 -0.0532 -0.1350
 1199ERGO    R515644  13.768   7.786   7.378 -0.0981 -0.0481 -0.1882
 1199ERGO    C115645  13.577   7.790   7.708 -0.0960 -0.2127 -0.1861
 1199ERGO    C215646  13.371   7.876   7.984 -0.1530  0.2013  0.0159
 1200ERGO   ROH15647   0.094  13.844   7.326 -0.1228 -0.0729 -0.0269
 1200ERGO    R115648   0.318  13.673   7.356 -0.2231 -0.1912  0.0569
 1200ERGO    R215649   0.571  13.768   7.414 -0.0945 -0.2716 -0.3362
 1200ERGO    R315650   0.554  13.591   7.620 -0.0449  0.0857 -0.0119
 1200ERGO    R415651   0.841  13.633   7.581 -0.0454 -0.1956 -0.3531
 1200ERGO    R515652   0.738  13.441   7.584 -0.1927 -0.1177  0.0693
 1200ERGO    C115653   0.983  13.387   7.871  0.0296  0.1841 -0.0585
 1200ERGO    C215654   1.290  13.321   8.022 -0.0808 -0.0067  0.2407
 1201ERGO   ROH15655  15.048   3.252   6.514 -0.3906  0.0004 -0.0128
 1201ERGO    R115656  15.219   3.317   6.729 -0.1449  0.0480 -0.2181
 1201ERGO    R215657  15.269   3.578   6.806 -0.2443  0.0585 -0.1859
 1201ERGO    R315658  15.189   3.487   7.050  0.1552 -0.1025 -0.1059
 1201ERGO    R415659  15.285   3.760   7.099 -0.4646  0.1540 -0.2314
 1201ERGO    R515660  15.349   3.579   7.203  0.0581  0.3163 -0.2429
 1201ERGO    C115661  15.218   3.781   7.499 -0.2177  0.0584 -0.1828
 1201ERGO    C215662  15.069   3.989   7.726  0.2440 -0.1026  0.0427
 1202ERGO   ROH15663  11.417  18.430   7.702  0.1570  0.2166 -0.0108
 1202ERGO    R115664  11.539  18.218   7.845 -0.0504  0.0913 -0.0160
 1202ERGO    R215665  11.768  18.253   7.995  0.1216 -0.1883 -0.2086
 1202ERGO    R315666  11.617  18.145   8.193  0.1072  0.1240 -0.0434
 1202ERGO    R415667  11.888  18.155   8.304  0.2610 -0.4131 -0.3304
 1202ERGO    R515668  11.759  17.980   8.294 -0.1092 -0.1616 -0.1898
 1202ERGO    C115669  11.816  17.998   8.670  0.3287 -0.2506 -0.2462
 1202ERGO    C215670  11.887  17.940   8.923 -0.1365  0.1139 -0.0327
 1203ERGO   ROH15671   5.549  16.404   6.464 -0.0264  0.0598 -0.0675
 1203ERGO    R115672   5.659  16.550   6.680  0.0976  0.0381 -0.1142
 1203ERGO    R215673   5.725  16.432   6.922 -0.0393  0.0646 -0.0587
 1203ERGO    R315674   5.967  16.544   6.873  0.0769 -0.1923 -0.0866
 1203ERGO    R415675   5.984  16.449   7.150 -0.1059  0.0779  0.0155
 1203ERGO    R515676   6.026  16.651   7.080  0.0932 -0.0301 -0.1762
 1203ERGO    C115677   6.362  16.564   7.237 -0.0355 -0.1558  0.0326
 1203ERGO    C215678   6.637  16.708   7.441  0.0575  0.0541  0.0801
 1204ERGO   ROH15679  13.181   3.357   6.412 -0.0819  0.0556 -0.0025
 1204ERGO    R115680  13.199   3.372   6.694  0.1645 -0.1156 -0.0058
 1204ERGO    R215681  13.439   3.410   6.827  0.2452  0.1103 -0.2092
 1204ERGO    R315682  13.305   3.618   6.939  0.0695 -0.1382  0.0583
 1204ERGO    R415683  13.547   3.588   7.102  0.3320  0.1482 -0.2668
 1204ERGO    R515684  13.342   3.592   7.174  0.4124 -0.1951  0.0035
 1204ERGO    C115685  13.485   3.887   7.368  0.2177 -0.0630 -0.0493
 1204ERGO    C215686  13.443   4.170   7.392  0.1063  0.2338 -0.0623
 1205ERGO   ROH15687  16.648   5.433   5.794  0.0302 -0.2884 -0.1877
 1205ERGO    R115688  16.716   5.424   6.069  0.1154 -0.0210 -0.1981
 1205ERGO    R215689  16.616   5.233   6.241 -0.0114  0.2782  0.0698
 1205ERGO    R315690  16.879   5.190   6.294 -0.0321  0.0909  0.0291
 1205ERGO    R415691  16.744   5.158   6.553  0.0076  0.3968  0.0916
 1205ERGO    R515692  16.913   5.289   6.510  0.1109  0.2219 -0.0516
 1205ERGO    C115693  17.066   5.073   6.785 -0.0010  0.2900  0.0661
 1205ERGO    C215694  17.281   5.171   7.174 -0.0773 -0.0543 -0.0862
 1206ERGO   ROH15695   7.438   7.728   6.119  0.2632 -0.1861 -0.0492
 1206ERGO    R115696   7.390   7.879   6.354  0.0046 -0.1600 -0.1154
 1206ERGO    R215697   7.140   7.903   6.467 -0.0314 -0.6004 -0.0890
 1206ERGO    R315698   7.267   7.814   6.690  0.1884 -0.2430 -0.0622
 1206ERGO    R415699   7.043   7.973   6.792 -0.2095 -0.7406 -0.1101
 1206ERGO    R515700   7.253   7.997   6.844 -0.2519 -0.2227 -0.1109
 1206ERGO    C115701   7.106   7.930   7.190 -0.1068 -0.4867 -0.0971
 1206ERGO    C215702   6.964   7.766   7.471  0.4694 -0.1873 -0.1718
 1207ERGO   ROH15703   6.752   9.616   6.145  0.0959  0.1611 -0.0341
 1207ERGO    R115704   6.753   9.689   6.419  0.0333  0.0434 -0.0010
 1207ERGO    R215705   6.536   9.649   6.585  0.0049 -0.0561 -0.0590
 1207ERGO    R315706   6.718   9.518   6.738 -0.0082 -0.0995 -0.0814
 1207ERGO    R415707   6.563   9.676   6.928  0.2110  0.1328 -0.0890
 1207ERGO    R515708   6.780   9.675   6.907  0.2009 -0.0403 -0.2088
 1207ERGO    C115709   6.751   9.569   7.272  0.3187  0.2019 -0.1275
 1207ERGO    C215710   6.865   9.670   7.585  0.1762  0.2494  0.2745
 1208ERGO   ROH15711   2.295   4.727   5.683  0.0589  0.2536 -0.0793
 1208ERGO    R115712   2.368   4.820   5.940 -0.0887  0.1719 -0.0061
 1208ERGO    R215713   2.185   4.926   6.118 -0.1987  0.0738 -0.0594
 1208ERGO    R315714   2.286   4.737   6.285 -0.2509  0.0301 -0.0775
 1208ERGO    R415715   2.235   4.968   6.458  0.0185  0.1074 -0.0940
 1208ERGO    R515716   2.423   4.859   6.439 -0.0723 -0.0403 -0.1764
 1208ERGO    C115717   2.359   4.814   6.812  0.0959  0.0858 -0.1311
 1208ERGO    C215718   2.193   4.743   7.039  0.5472 -0.1464  0.0889
 1209ERGO   ROH15719  15.119  11.794   6.399 -0.0910 -0.0556  0.0571
 1209ERGO    R115720  15.226  11.929   6.624 -0.1125  0.0063  0.0317
 1209ERGO    R215721  15.106  11.924   6.873 -0.1268  0.0581  0.0301
 1209ERGO    R315722  15.351  11.836   6.953 -0.1257  0.0923  0.0602
 1209ERGO    R415723  15.220  11.928   7.199 -0.2595 -0.1537  0.0801
 1209ERGO    R515724  15.415  11.990   7.125 -0.2551 -0.0181  0.2079
 1209ERGO    C115725  15.516  11.848   7.464 -0.3358 -0.2451  0.1375
 1209ERGO    C215726  15.703  11.739   7.611  0.0286 -0.0234 -0.0157
 1210ERGO   ROH15727  18.066  18.361   6.403  0.0619  0.0627 -0.1684
 1210ERGO    R115728  18.298  18.379   6.565 -0.0600  0.3096 -0.0115
 1210ERGO    R215729  18.295  18.486   6.819 -0.4158  0.0223  0.1211
 1210ERGO    R315730  18.406  18.248   6.887 -0.0208  0.1373 -0.0956
 1210ERGO    R415731  18.388  18.396   7.139 -0.3918 -0.1779  0.0582
 1210ERGO    R515732  18.567  18.303   7.056 -0.1906  0.2307  0.0307
 1210ERGO    C115733  18.547  18.119   7.389 -0.0069 -0.1864 -0.1819
 1210ERGO    C215734  18.575  17.984   7.583  0.2554  0.1647  0.1037
 1211ERGO   ROH15735  14.035   0.734   6.483 -0.2693 -0.2452  0.1079
 1211ERGO    R115736  13.988   0.950   6.659 -0.4972 -0.2108  0.0077
 1211ERGO    R215737  13.784   0.948   6.846 -0.2178 -0.5458  0.3185
 1211ERGO    R315738  13.987   1.001   7.020 -0.0607  0.0595 -0.0203
 1211ERGO    R415739  13.742   1.072   7.166 -0.0482 -0.5347  0.3381
 1211ERGO    R515740  13.916   1.200   7.134 -0.4179 -0.0703  0.0046
 1211ERGO    C115741  13.907   1.195   7.515  0.1981  0.0401  0.0314
 1211ERGO    C215742  13.897   1.003   7.805 -0.3875 -0.2272  0.0382
 1212ERGO   ROH15743   5.903  17.509   6.560 -0.0548 -0.1303  0.0784
 1212ERGO    R115744   5.943  17.578   6.832 -0.1862 -0.0419  0.0763
 1212ERGO    R215745   5.761  17.514   7.030 -0.1930 -0.1458  0.0380
 1212ERGO    R315746   5.978  17.401   7.147 -0.1339  0.0501  0.1224
 1212ERGO    R415747   5.800  17.467   7.370 -0.2949 -0.1355  0.0514
 1212ERGO    R515748   6.009  17.525   7.349 -0.3389  0.0645  0.1467
 1212ERGO    C115749   6.027  17.333   7.678 -0.2987  0.0543  0.1384
 1212ERGO    C215750   6.227  17.272   8.032 -0.0190 -0.1835  0.1487
 1213ERGO   ROH15751   1.280  17.670   6.168 -0.0206  0.2731 -0.0737
 1213ERGO    R115752   1.320  17.537   6.415  0.0178  0.1860 -0.1243
 1213ERGO    R215753   1.405  17.668   6.643 -0.1013  0.1422 -0.0418
 1213ERGO    R315754   1.182  17.558   6.751 -0.0584 -0.0434 -0.1426
 1213ERGO    R415755   1.366  17.587   6.976 -0.1722  0.0201 -0.0803
 1213ERGO    R515756   1.264  17.405   6.915 -0.0195 -0.0268 -0.1585
 1213ERGO    C115757   1.134  17.437   7.272 -0.1732 -0.2250 -0.1973
 1213ERGO    C215758   0.958  17.358   7.534  0.3219 -0.0898  0.2141
 1214ERGO   ROH15759   0.555   0.171   6.208 -0.2181 -0.0339 -0.1101
 1214ERGO    R115760   0.476   0.223   6.475 -0.1484 -0.0964 -0.0765
 1214ERGO    R215761   0.636   0.161   6.692 -0.0605 -0.0824 -0.1351
 1214ERGO    R315762   0.599   0.424   6.752 -0.1179 -0.1019 -0.0863
 1214ERGO    R415763   0.645   0.294   7.011  0.1390 -0.1046 -0.1310
 1214ERGO    R515764   0.476   0.421   6.958  0.0453 -0.1674  0.0118
 1214ERGO    C115765   0.616   0.618   7.253  0.2013 -0.1358 -0.0827
 1214ERGO    C215766   0.751   0.850   7.370 -0.2797  0.2114  0.1447
 1215ERGO   ROH15767   2.624   0.360   5.631  0.1270  0.2514 -0.1321
 1215ERGO    R115768   2.666   0.483   5.882  0.1513  0.1775 -0.0981
 1215ERGO    R215769   2.469   0.499   6.076  0.1229  0.2422 -0.1213
 1215ERGO    R315770   2.658   0.380   6.231  0.0377  0.1046 -0.1242
 1215ERGO    R415771   2.535   0.582   6.405  0.1289  0.1121 -0.0904
 1215ERGO    R515772   2.747   0.559   6.363  0.1150  0.0131 -0.0630
 1215ERGO    C115773   2.750   0.519   6.742  0.0524 -0.0929 -0.0751
 1215ERGO    C215774   2.865   0.531   7.039 -0.0092 -0.0955 -0.3214
 1216ERGO   ROH15775   2.050   7.298   5.846  0.1440  0.0914  0.0922
 1216ERGO    R115776   2.015   7.058   5.992 -0.1259  0.0883  0.0252
 1216ERGO    R215777   2.157   7.002   6.222 -0.1311 -0.1685 -0.0365
 1216ERGO    R315778   1.909   6.966   6.328 -0.1494  0.1163  0.0268
 1216ERGO    R415779   2.082   6.785   6.481 -0.3265 -0.1690 -0.0914
 1216ERGO    R515780   1.898   6.732   6.376 -0.4355  0.1058 -0.0570
 1216ERGO    C115781   1.805   6.626   6.730 -0.4574  0.0981 -0.0640
 1216ERGO    C215782   1.621   6.753   6.957  0.0538  0.1116 -0.2828
 1217ERGO   ROH15783   4.942   4.957   6.004 -0.0762 -0.2338  0.0799
 1217ERGO    R115784   4.980   5.083   6.255 -0.0559 -0.1522  0.0368
 1217ERGO    R215785   4.833   5.015   6.479 -0.0154 -0.1040  0.0810
 1217ERGO    R315786   5.079   4.979   6.590  0.0064 -0.0389  0.0532
 1217ERGO    R415787   4.906   5.053   6.815  0.0857  0.2279  0.0254
 1217ERGO    R515788   5.094   5.149   6.759  0.0885  0.1320 -0.1242
 1217ERGO    C115789   5.179   5.041   7.115  0.1649  0.4822 -0.0331
 1217ERGO    C215790   5.069   5.202   7.450  0.0979 -0.1738  0.1417
 1218ERGO   ROH15791   9.605   1.993   6.666  0.2640 -0.0443 -0.1045
 1218ERGO    R115792   9.522   2.019   6.936  0.0943  0.1358 -0.1725
 1218ERGO    R215793   9.451   1.802   7.092 -0.0064  0.2416 -0.0741
 1218ERGO    R315794   9.639   1.903   7.260 -0.1123  0.3484 -0.0177
 1218ERGO    R415795   9.455   1.757   7.434  0.1773 -0.1770 -0.1239
 1218ERGO    R515796   9.517   1.964   7.456 -0.1558 -0.0908  0.1062
 1218ERGO    C115797   9.634   1.826   7.792  0.1851 -0.3204 -0.0999
 1218ERGO    C215798   9.544   1.663   8.021  0.0377  0.0613 -0.1933
 1219ERGO   ROH15799   0.315   9.625   5.750 -0.0670  0.2370 -0.0986
 1219ERGO    R115800   0.385   9.456   5.966  0.0566  0.3043 -0.0841
 1219ERGO    R215801   0.226   9.427   6.190  0.0899  0.2285 -0.0662
 1219ERGO    R315802   0.243   9.163   6.129  0.2517  0.2331 -0.0414
 1219ERGO    R415803   0.208   9.170   6.420 -0.0411  0.2280 -0.0775
 1219ERGO    R515804   0.367   9.068   6.311  0.1065  0.2853  0.0839
 1219ERGO    C115805   0.213   8.772   6.496  0.0346  0.2321 -0.0609
 1219ERGO    C215806   0.052   8.736   6.814  0.2175 -0.0773  0.2067
 1220ERGO   ROH15807   3.740  16.756   6.406 -0.1734  0.0102  0.1047
 1220ERGO    R115808   3.737  16.850   6.673 -0.4158 -0.0119  0.1129
 1220ERGO    R215809   3.592  16.725   6.872 -0.1110 -0.4071  0.1071
 1220ERGO    R315810   3.832  16.721   6.999 -0.0832  0.1967  0.1012
 1220ERGO    R415811   3.638  16.646   7.206  0.1084 -0.3397  0.0932
 1220ERGO    R515812   3.785  16.806   7.218 -0.2985  0.0475  0.1122
 1220ERGO    C115813   3.890  16.596   7.519  0.2623  0.2658  0.0797
 1220ERGO    C215814   3.867  16.452   7.822  0.0762  0.0085  0.0054
 1221ERGO   ROH15815   8.525   2.037   6.767 -0.0153 -0.2086  0.0487
 1221ERGO    R115816   8.589   2.033   7.043 -0.1106 -0.1810  0.0716
 1221ERGO    R215817   8.715   2.244   7.169  0.0616 -0.2627  0.0414
 1221ERGO    R315818   8.502   2.228   7.337 -0.0136  0.0081 -0.0238
 1221ERGO    R415819   8.728   2.300   7.510  0.0591 -0.4339  0.0708
 1221ERGO    R515820   8.591   2.133   7.538 -0.2227 -0.2278 -0.0404
 1221ERGO    C115821   8.534   2.318   7.866 -0.0128 -0.2793  0.0267
 1221ERGO    C215822   8.408   2.536   8.085  0.0316  0.3836 -0.1855
 1222ERGO   ROH15823  12.542   2.110   6.924 -0.2294 -0.2816  0.1198
 1222ERGO    R115824  12.546   2.323   7.110 -0.0478 -0.1585 -0.0201
 1222ERGO    R215825  12.318   2.417   7.234  0.0260  0.1314 -0.0892
 1222ERGO    R315826  12.460   2.369   7.460 -0.0258  0.1501 -0.0536
 1222ERGO    R415827  12.297   2.605   7.523 -0.0235  0.1639 -0.1146
 1222ERGO    R515828  12.513   2.587   7.544 -0.0313  0.1543 -0.0663
 1222ERGO    C115829  12.419   2.670   7.904 -0.1009  0.2004 -0.0960
 1222ERGO    C215830  12.425   2.918   8.180  0.1121  0.0322  0.0601
 1223ERGO   ROH15831   4.741  12.151   6.345  0.0642  0.2348  0.0741
 1223ERGO    R115832   4.742  11.889   6.451 -0.1156  0.1397 -0.1552
 1223ERGO    R215833   4.844  11.829   6.700  0.0179 -0.1779 -0.2854
 1223ERGO    R315834   4.598  11.719   6.739 -0.0632  0.0298 -0.1914
 1223ERGO    R415835   4.766  11.599   6.946 -0.1405  0.0791 -0.0887
 1223ERGO    R515836   4.643  11.493   6.801 -0.2203  0.0443 -0.0035
 1223ERGO    C115837   4.490  11.362   7.126 -0.3088  0.4238  0.1140
 1223ERGO    C215838   4.390  11.152   7.360 -0.2169 -0.0230 -0.0629
 1224ERGO   ROH15839   4.995   6.322   6.166 -0.1493  0.2153  0.0355
 1224ERGO    R115840   4.811   6.261   6.372 -0.0845  0.0828  0.0559
 1224ERGO    R215841   4.861   6.068   6.564  0.0112  0.0117 -0.0329
 1224ERGO    R315842   4.808   6.272   6.735  0.0044 -0.0691  0.0606
 1224ERGO    R415843   4.806   6.033   6.903  0.0650 -0.1274 -0.0384
 1224ERGO    R515844   4.648   6.182   6.889  0.0441 -0.1500  0.0478
 1224ERGO    C115845   4.724   6.203   7.262  0.0900 -0.2841  0.0461
 1224ERGO    C215846   4.567   6.166   7.585 -0.0876 -0.1451 -0.0766
 1225ERGO   ROH15847  18.543   5.469   5.151  0.2591 -0.0813  0.0855
 1225ERGO    R115848  18.482   5.597   5.396  0.1263  0.0055  0.0102
 1225ERGO    R215849  18.362   5.466   5.608 -0.0608  0.0956 -0.0265
 1225ERGO    R315850  18.577   5.559   5.745 -0.1222  0.0706  0.0843
 1225ERGO    R415851  18.350   5.601   5.925 -0.1892  0.0889 -0.0293
 1225ERGO    R515852  18.494   5.751   5.862 -0.1494  0.0701  0.0507
 1225ERGO    C115853  18.544   5.767   6.240 -0.3219  0.0614  0.0730
 1225ERGO    C215854  18.619   5.817   6.563  0.1315  0.0442 -0.1430
 1226ERGO   ROH15855   6.731   3.057   6.458 -0.0922  0.1967 -0.1733
 1226ERGO    R115856   6.717   3.245   6.669 -0.1124  0.0467 -0.0395
 1226ERGO    R215857   6.687   3.171   6.933  0.1082 -0.1536 -0.0711
 1226ERGO    R315858   6.910   3.323   6.968  0.0107  0.0016 -0.1047
 1226ERGO    R415859   6.718   3.425   7.166  0.0321 -0.2787  0.0786
 1226ERGO    R515860   6.825   3.542   7.016 -0.1441 -0.0922  0.0860
 1226ERGO    C115861   6.946   3.715   7.334 -0.1036 -0.2059  0.1342
 1226ERGO    C215862   6.923   3.672   7.658 -0.3589 -0.3414 -0.0914
 1227ERGO   ROH15863   4.688   2.514   6.044  0.3772  0.3442 -0.0785
 1227ERGO    R115864   4.607   2.428   6.301  0.2266  0.2249 -0.1657
 1227ERGO    R215865   4.776   2.434   6.520  0.1061  0.0933 -0.0760
 1227ERGO    R315866   4.573   2.578   6.631  0.0648  0.0603 -0.1039
 1227ERGO    R415867   4.738   2.493   6.859  0.1158  0.1726 -0.0871
 1227ERGO    R515868   4.524   2.462   6.835  0.1181  0.0950 -0.0656
 1227ERGO    C115869   4.526   2.662   7.160  0.0828  0.1879 -0.1197
 1227ERGO    C215870   4.701   2.821   7.414 -0.0353  0.1456 -0.1592
 1228ERGO   ROH15871   6.327  15.311   6.423 -0.1951  0.3499 -0.0807
 1228ERGO    R115872   6.403  15.218   6.679 -0.2811  0.1752 -0.1179
 1228ERGO    R215873   6.645  15.283   6.795 -0.2236 -0.0898 -0.0877
 1228ERGO    R315874   6.487  15.366   7.000 -0.1501 -0.0325 -0.0533
 1228ERGO    R415875   6.749  15.318   7.123  0.0221  0.4224 -0.2106
 1228ERGO    R515876   6.559  15.234   7.187  0.1683  0.2676  0.0499
 1228ERGO    C115877   6.662  15.416   7.506  0.2341  0.7743 -0.2498
 1228ERGO    C215878   7.046  15.429   7.736 -0.0322 -0.3465  0.0083
 1229ERGO   ROH15879   2.711   3.746   5.722  0.0080  0.1596  0.0536
 1229ERGO    R115880   2.896   3.798   5.930 -0.0514 -0.0505  0.1619
 1229ERGO    R215881   3.021   4.043   5.960  0.1716 -0.1742  0.2641
 1229ERGO    R315882   2.919   4.028   6.211  0.0198 -0.1133  0.2076
 1229ERGO    R415883   3.155   4.200   6.237  0.1990 -0.3750  0.3661
 1229ERGO    R515884   3.112   4.020   6.353 -0.0604 -0.3533  0.3097
 1229ERGO    C115885   3.138   4.277   6.635  0.0724 -0.4347  0.3725
 1229ERGO    C215886   3.074   4.303   7.049 -0.1628 -0.0265  0.0212
 1230ERGO   ROH15887   8.664  16.112   6.366  0.2120  0.2007  0.0620
 1230ERGO    R115888   8.412  16.168   6.482  0.1603  0.1932 -0.0451
 1230ERGO    R215889   8.334  16.065   6.726  0.0042  0.0804 -0.1407
 1230ERGO    R315890   8.291  16.327   6.786  0.0284  0.0583 -0.0260
 1230ERGO    R415891   8.139  16.178   6.988  0.0048 -0.0180 -0.0975
 1230ERGO    R515892   8.062  16.335   6.857  0.0258  0.0488 -0.0316
 1230ERGO    C115893   7.985  16.490   7.197  0.0279 -0.0961  0.0353
 1230ERGO    C215894   8.102  16.623   7.522 -0.2709  0.0827  0.0278
 1231ERGO   ROH15895  10.194  16.919   6.222 -0.0098  0.1465 -0.0871
 1231ERGO    R115896  10.287  16.887   6.487 -0.0142  0.2226 -0.0761
 1231ERGO    R215897  10.189  17.036   6.698 -0.1337  0.1701 -0.0932
 1231ERGO    R315898  10.144  16.791   6.808  0.0171  0.1453 -0.0851
 1231ERGO    R415899  10.089  16.982   7.025  0.2297  0.1004  0.0105
 1231ERGO    R515900  10.225  16.812   7.033  0.2613  0.1159 -0.1683
 1231ERGO    C115901   9.989  16.721   7.318  0.5829  0.0367  0.0786
 1231ERGO    C215902   9.850  16.659   7.589 -0.1221 -0.3927 -0.0255
 1232ERGO   ROH15903   7.057  13.727   6.057  0.1955  0.0678 -0.1100
 1232ERGO    R115904   6.922  13.738   6.306  0.1470 -0.0300 -0.1313
 1232ERGO    R215905   7.023  13.622   6.536  0.1735  0.0045 -0.1236
 1232ERGO    R315906   6.989  13.871   6.638  0.0179 -0.0226 -0.1081
 1232ERGO    R415907   6.947  13.692   6.865  0.1137 -0.0618 -0.1233
 1232ERGO    R515908   6.811  13.847   6.796  0.0243 -0.1390 -0.1192
 1232ERGO    C115909   6.870  13.967   7.153 -0.0673 -0.1257 -0.1087
 1232ERGO    C215910   6.915  14.025   7.522 -0.0968  0.0334  0.1644
 1233ERGO   ROH15911   8.242   9.128   6.487 -0.0569  0.0622 -0.1527
 1233ERGO    R115912   8.014   9.293   6.520  0.0417  0.1839 -0.0720
 1233ERGO    R215913   7.800   9.221   6.679 -0.0592  0.1698 -0.2136
 1233ERGO    R315914   7.847   9.463   6.795  0.0628  0.0302  0.0371
 1233ERGO    R415915   7.569   9.401   6.864  0.0084  0.1310 -0.0894
 1233ERGO    R515916   7.642   9.583   6.768  0.1415  0.1837  0.1064
 1233ERGO    C115917   7.479   9.731   7.080  0.1622 -0.0224  0.2184
 1233ERGO    C215918   7.153   9.826   7.256 -0.3082 -0.2557  0.1536
 1234ERGO   ROH15919   8.628  12.523   5.997  0.2497 -0.2149  0.0477
 1234ERGO    R115920   8.608  12.613   6.264  0.3793 -0.0854  0.0147
 1234ERGO    R215921   8.401  12.539   6.431  0.2813  0.2549  0.0514
 1234ERGO    R315922   8.604  12.461   6.595  0.1856  0.0427  0.0726
 1234ERGO    R415923   8.374  12.497   6.774  0.1518  0.0691  0.0206
 1234ERGO    R515924   8.571  12.588   6.795  0.1971 -0.0559  0.1370
 1234ERGO    C115925   8.549  12.400   7.126 -0.0134 -0.2381  0.0226
 1234ERGO    C215926   8.467  12.446   7.531  0.2464  0.3247 -0.1775
 1235ERGO   ROH15927   5.719   6.086   6.083 -0.2981 -0.0414 -0.0746
 1235ERGO    R115928   5.700   6.307   6.258 -0.4791 -0.1120 -0.0004
 1235ERGO    R215929   5.583   6.289   6.508 -0.1927 -0.3703  0.1272
 1235ERGO    R315930   5.821   6.392   6.591 -0.2635 -0.0026 -0.1064
 1235ERGO    R415931   5.635   6.447   6.811 -0.1252 -0.3206  0.0887
 1235ERGO    R515932   5.762   6.592   6.708 -0.4577 -0.1081 -0.0268
 1235ERGO    C115933   5.889   6.635   7.065 -0.1524  0.0536 -0.1531
 1235ERGO    C215934   5.989   6.454   7.325  0.0913 -0.0716 -0.1109
 1236ERGO   ROH15935  10.822   2.639   6.795 -0.1774  0.2024 -0.2879
 1236ERGO    R115936  10.899   2.873   6.935 -0.0760  0.0832 -0.1415
 1236ERGO    R215937  10.716   3.037   7.061 -0.0084  0.1044 -0.0748
 1236ERGO    R315938  10.877   2.995   7.277 -0.0608 -0.1008 -0.0728
 1236ERGO    R415939  10.683   3.197   7.366  0.1258  0.0737 -0.0431
 1236ERGO    R515940  10.901   3.212   7.376  0.1445 -0.1411 -0.0251
 1236ERGO    C115941  10.815   3.251   7.745  0.1549 -0.1369 -0.0228
 1236ERGO    C215942  11.037   3.245   8.043 -0.0523  0.0129  0.1922
 1237ERGO   ROH15943  15.401  12.627   6.060 -0.5409  0.1149  0.0495
 1237ERGO    R115944  15.296  12.605   6.322 -0.1496  0.3695  0.2354
 1237ERGO    R215945  15.299  12.367   6.465 -0.5327  0.3373  0.1804
 1237ERGO    R315946  15.424  12.520   6.652  0.2104 -0.0113  0.0107
 1237ERGO    R415947  15.307  12.300   6.804 -0.4334  0.4106  0.1955
 1237ERGO    R515948  15.280  12.512   6.842  0.3437  0.5551  0.1647
 1237ERGO    C115949  15.429  12.403   7.176  0.3218  0.1261  0.0450
 1237ERGO    C215950  15.430  12.370   7.491  0.2582  0.1149 -0.2483
 1238ERGO   ROH15951   3.938   8.477   6.788  0.0902 -0.0189  0.1653
 1238ERGO    R115952   3.892   8.376   7.049  0.1500  0.0219  0.1919
 1238ERGO    R215953   3.922   8.531   7.275 -0.1382  0.1614  0.1387
 1238ERGO    R315954   3.667   8.451   7.325 -0.0459 -0.1786  0.0903
 1238ERGO    R415955   3.765   8.551   7.583 -0.2971  0.1781  0.0575
 1238ERGO    R515956   3.676   8.356   7.545  0.0068  0.0092  0.1726
 1238ERGO    C115957   3.435   8.488   7.808 -0.3031 -0.1314 -0.0352
 1238ERGO    C215958   3.445   8.606   8.136 -0.0391  0.5133  0.1242
 1239ERGO   ROH15959   8.460  15.520   6.146 -0.1482  0.2630  0.0926
 1239ERGO    R115960   8.366  15.647   6.380 -0.0127  0.1963  0.1842
 1239ERGO    R215961   8.172  15.536   6.543 -0.1004  0.2639  0.1285
 1239ERGO    R315962   8.359  15.572   6.737 -0.0467 -0.0309  0.1372
 1239ERGO    R415963   8.122  15.476   6.880 -0.1709  0.2390  0.1138
 1239ERGO    R515964   8.236  15.657   6.923  0.0665  0.0815  0.1611
 1239ERGO    C115965   8.269  15.477   7.258 -0.1613 -0.0522  0.1134
 1239ERGO    C215966   8.280  15.551   7.563  0.1678  0.1321 -0.2262
 1240ERGO   ROH15967   1.421   5.570   5.329  0.0352  0.2492 -0.0190
 1240ERGO    R115968   1.448   5.681   5.588  0.0555  0.0543  0.0642
 1240ERGO    R215969   1.230   5.765   5.737  0.0744  0.0274  0.1058
 1240ERGO    R315970   1.336   5.598   5.924 -0.0020 -0.1461 -0.0031
 1240ERGO    R415971   1.177   5.790   6.077  0.2336 -0.0592  0.1387
 1240ERGO    R515972   1.386   5.741   6.110  0.2035 -0.2650  0.0360
 1240ERGO    C115973   1.244   5.649   6.451  0.2545 -0.2724  0.0557
 1240ERGO    C215974   1.160   5.500   6.657  0.0094 -0.3235 -0.0652
 1241ERGO   ROH15975   3.784   8.134   5.831  0.0938  0.0695  0.0249
 1241ERGO    R115976   3.852   8.022   6.081  0.1115  0.0706  0.0222
 1241ERGO    R215977   3.929   8.176   6.298 -0.0045  0.0864  0.0623
 1241ERGO    R315978   3.728   8.043   6.423  0.0395 -0.0372  0.0011
 1241ERGO    R415979   3.922   8.100   6.635 -0.0146 -0.0368  0.0338
 1241ERGO    R515980   3.838   7.905   6.584  0.0711 -0.0469 -0.0373
 1241ERGO    C115981   3.728   7.931   6.948  0.0209 -0.2247 -0.0403
 1241ERGO    C215982   3.669   7.883   7.264  0.4174 -0.0437  0.0630
 1242ERGO   ROH15983   9.923   2.832   6.688  0.0646 -0.0821 -0.0422
 1242ERGO    R115984   9.783   2.739   6.917 -0.0267 -0.1128 -0.1101
 1242ERGO    R215985   9.761   2.471   6.979  0.2175 -0.1053  0.0104
 1242ERGO    R315986   9.864   2.551   7.217 -0.0700  0.1351  0.0606
 1242ERGO    R415987   9.681   2.332   7.285  0.2016 -0.1216 -0.0007
 1242ERGO    R515988   9.681   2.532   7.370 -0.1600 -0.0850 -0.0665
 1242ERGO    C115989   9.732   2.326   7.687 -0.0776  0.0946  0.0399
 1242ERGO    C215990   9.861   2.281   8.019  0.0577 -0.1036  0.0687
 1243ERGO   ROH15991   4.941   2.981   6.161  0.3419 -0.0762  0.1755
 1243ERGO    R115992   4.778   2.891   6.375  0.2452 -0.0755  0.1025
 1243ERGO    R215993   4.843   2.935   6.640  0.0590  0.0383  0.1276
 1243ERGO    R315994   4.594   3.044   6.649  0.0047 -0.0658 -0.0601
 1243ERGO    R415995   4.681   3.035   6.929 -0.1936 -0.0330  0.0137
 1243ERGO    R515996   4.496   2.952   6.848 -0.1038 -0.1122 -0.1292
 1243ERGO    C115997   4.353   3.194   7.105 -0.3918 -0.1721 -0.2288
 1243ERGO    C215998   4.097   3.454   7.208  0.0230  0.0376  0.1101
 1244ERGO   ROH15999  11.970   7.663   6.728 -0.0704 -0.0575  0.0254
 1244ERGO    R116000  12.146   7.657   6.950  0.1234  0.1157 -0.1173
 1244ERGO    R216001  12.352   7.838   6.981 -0.1609  0.4758 -0.1750
 1244ERGO    R316002  12.235   7.882   7.222 -0.0632  0.1152 -0.0581
 1244ERGO    R416003  12.519   7.936   7.268 -0.0889  0.2239 -0.1297
 1244ERGO    R516004  12.393   7.800   7.382  0.0544  0.0173 -0.2337
 1244ERGO    C116005  12.505   8.034   7.661  0.0448 -0.2613  0.0065
 1244ERGO    C216006  12.586   8.084   7.992 -0.0514 -0.3959  0.1936
 1245ERGO   ROH16007   4.246   9.013   5.999 -0.2825 -0.0336  0.0568
 1245ERGO    R116008   4.336   9.164   6.221 -0.0774 -0.0824  0.0100
 1245ERGO    R216009   4.179   9.207   6.445  0.0299  0.0844  0.0570
 1245ERGO    R316010   4.395   9.105   6.575 -0.0166 -0.0905 -0.0019
 1245ERGO    R416011   4.258   9.266   6.776  0.2647  0.1670 -0.0115
 1245ERGO    R516012   4.467   9.281   6.719  0.2548 -0.0952 -0.1265
 1245ERGO    C116013   4.506   9.204   7.091  0.3577  0.0509 -0.1067
 1245ERGO    C216014   4.478   9.260   7.436 -0.1033  0.0178  0.0942
 1246ERGO   ROH16015   7.961  14.666   6.155  0.2974 -0.2939 -0.0136
 1246ERGO    R116016   7.770  14.727   6.355  0.2525  0.1420 -0.1793
 1246ERGO    R216017   7.730  14.567   6.576 -0.4343  0.1211 -0.3001
 1246ERGO    R316018   7.775  14.798   6.712  0.0912 -0.0649 -0.1343
 1246ERGO    R416019   7.636  14.624   6.903 -0.4838  0.1619 -0.3211
 1246ERGO    R516020   7.579  14.827   6.846  0.0730  0.3619 -0.2370
 1246ERGO    C116021   7.624  14.874   7.222 -0.0194  0.0112 -0.1777
 1246ERGO    C216022   7.524  14.856   7.600  0.0903 -0.0919  0.0979
 1247ERGO   ROH16023   6.580   3.445   6.270  0.1226 -0.0479 -0.0822
 1247ERGO    R116024   6.535   3.607   6.498  0.1069  0.0105 -0.1265
 1247ERGO    R216025   6.285   3.637   6.612  0.0963  0.0508 -0.1592
 1247ERGO    R316026   6.415   3.557   6.838  0.0695  0.0998 -0.1266
 1247ERGO    R416027   6.213   3.748   6.931  0.0346  0.0927 -0.1878
 1247ERGO    R516028   6.427   3.755   6.972  0.0273  0.1220 -0.1554
 1247ERGO    C116029   6.292   3.739   7.328 -0.0265  0.1632 -0.1738
 1247ERGO    C216030   6.136   3.739   7.660 -0.3109 -0.0297  0.0829
 1248ERGO   ROH16031   6.656   1.838   6.368  0.1718 -0.1129 -0.1210
 1248ERGO    R116032   6.860   1.840   6.564  0.0938 -0.0198 -0.0393
 1248ERGO    R216033   6.806   1.838   6.835 -0.0134 -0.0897 -0.0586
 1248ERGO    R316034   6.970   1.622   6.834  0.1146  0.0062 -0.0274
 1248ERGO    R416035   6.951   1.699   7.116  0.1292  0.0764 -0.0488
 1248ERGO    R516036   7.134   1.671   7.001  0.1211  0.1506 -0.0769
 1248ERGO    C116037   7.189   1.415   7.279  0.3324  0.2631 -0.0138
 1248ERGO    C216038   7.137   1.268   7.664  0.1055 -0.0008 -0.0578
 1249ERGO   ROH16039  13.701   5.573   5.940 -0.0960 -0.0766 -0.0799
 1249ERGO    R116040  13.824   5.698   6.163  0.0494 -0.0566 -0.1699
 1249ERGO    R216041  13.678   5.806   6.372  0.1841  0.0073 -0.1091
 1249ERGO    R316042  13.836   5.644   6.522  0.2394  0.0085 -0.1653
 1249ERGO    R416043  13.728   5.838   6.712  0.1294 -0.1243 -0.0880
 1249ERGO    R516044  13.938   5.791   6.682  0.1555 -0.0168 -0.0865
 1249ERGO    C116045  13.905   5.705   7.052  0.1494 -0.1998 -0.1284
 1249ERGO    C216046  13.873   5.566   7.370 -0.1415  0.0581  0.1970
 1250ERGO   ROH16047  14.145  16.379   6.912 -0.0670 -0.0882  0.1565
 1250ERGO    R116048  14.332  16.193   7.016  0.0865  0.0478  0.1264
 1250ERGO    R216049  14.595  16.260   7.067  0.0158  0.2731  0.1942
 1250ERGO    R316050  14.537  16.163   7.315  0.0625  0.1344  0.1528
 1250ERGO    R416051  14.821  16.101   7.275  0.0434  0.0982  0.0344
 1250ERGO    R516052  14.664  15.961   7.331  0.0265  0.0954 -0.0078
 1250ERGO    C116053  14.899  15.919   7.629  0.1033 -0.1338 -0.0975
 1250ERGO    C216054  15.157  15.653   7.847  0.2871  0.1509 -0.2367
 1251ERGO   ROH16055  10.153  14.956   6.556 -0.4045 -0.0410 -0.0507
 1251ERGO    R116056  10.294  14.996   6.798 -0.1302 -0.1369 -0.1896
 1251ERGO    R216057  10.195  15.153   7.003  0.2590  0.0734 -0.1513
 1251ERGO    R316058  10.237  14.929   7.151  0.0936  0.0673 -0.1123
 1251ERGO    R416059  10.235  15.147   7.347 -0.1400  0.0518 -0.1011
 1251ERGO    R516060  10.391  14.998   7.321 -0.1058  0.0597  0.0733
 1251ERGO    C116061  10.297  14.934   7.686 -0.5275  0.0334 -0.0351
 1251ERGO    C216062  10.172  15.087   8.081 -0.2046  0.0038 -0.1861
 1252ERGO   ROH16063  12.614   8.724   6.065  0.2657  0.0241  0.1301
 1252ERGO    R116064  12.490   8.842   6.290  0.2076  0.0477  0.0865
 1252ERGO    R216065  12.340   8.696   6.470  0.0883  0.0802  0.0181
 1252ERGO    R316066  12.509   8.807   6.651  0.0493  0.0184  0.0922
 1252ERGO    R416067  12.262   8.758   6.801 -0.0171  0.0741 -0.0056
 1252ERGO    R516068  12.369   8.947   6.786  0.0391  0.0443  0.0515
 1252ERGO    C116069  12.375   8.898   7.164 -0.1150  0.0126  0.0500
 1252ERGO    C216070  12.212   8.780   7.395  0.1220 -0.1499 -0.1106
 1253ERGO   ROH16071  10.396   1.773   7.082  0.1846  0.0215 -0.1401
 1253ERGO    R116072  10.418   1.554   7.261  0.1685  0.0166 -0.1466
 1253ERGO    R216073  10.628   1.527   7.438  0.0548  0.1076 -0.0060
 1253ERGO    R316074  10.429   1.508   7.621 -0.0619 -0.0160 -0.1398
 1253ERGO    R416075  10.674   1.462   7.774 -0.0958  0.4132  0.0788
 1253ERGO    R516076  10.499   1.333   7.768  0.0678  0.1746  0.0394
 1253ERGO    C116077  10.514   1.407   8.142 -0.2933  0.4752  0.0024
 1253ERGO    C216078  10.312   1.361   8.489  0.0233 -0.1113 -0.1983
 1254ERGO   ROH16079   8.450   6.030   6.730 -0.0479  0.0474  0.1139
 1254ERGO    R116080   8.377   5.893   6.966 -0.0527  0.0678  0.1242
 1254ERGO    R216081   8.413   6.000   7.218 -0.1353  0.1247  0.1117
 1254ERGO    R316082   8.147   5.947   7.244 -0.1247  0.0481  0.0689
 1254ERGO    R416083   8.258   5.906   7.513 -0.1488  0.0348  0.0768
 1254ERGO    R516084   8.138   5.764   7.399 -0.0952  0.0202  0.0381
 1254ERGO    C116085   7.919   5.803   7.709 -0.1466 -0.0895  0.0162
 1254ERGO    C216086   7.534   5.696   7.891 -0.1303 -0.1969 -0.0082
 1255ERGO   ROH16087   5.005  14.700   6.641 -0.2251 -0.0669  0.1040
 1255ERGO    R116088   5.190  14.734   6.852 -0.1487 -0.0342  0.0322
 1255ERGO    R216089   5.132  14.879   7.080 -0.0834 -0.0389  0.0527
 1255ERGO    R316090   5.207  14.650   7.206  0.0001 -0.0252  0.0279
 1255ERGO    R416091   5.265  14.863   7.398 -0.2165 -0.0379  0.1087
 1255ERGO    R516092   5.404  14.712   7.328 -0.0913  0.0648  0.1318
 1255ERGO    C116093   5.413  14.639   7.702 -0.2156 -0.0244  0.1180
 1255ERGO    C216094   5.813  14.490   7.796  0.0066 -0.0465 -0.1640
 1256ERGO   ROH16095  15.635   7.354   6.203  0.4235  0.0864 -0.1104
 1256ERGO    R116096  15.786   7.516   6.379  0.3185  0.0719 -0.0051
 1256ERGO    R216097  15.678   7.630   6.606  0.1865  0.0355 -0.0468
 1256ERGO    R316098  15.886   7.505   6.729  0.1273  0.0295  0.0486
 1256ERGO    R416099  15.795   7.704   6.923  0.1057  0.0880 -0.0288
 1256ERGO    R516100  15.998   7.679   6.849  0.1216  0.0353  0.0413
 1256ERGO    C116101  16.058   7.629   7.223  0.0030  0.1129  0.0712
 1256ERGO    C216102  16.025   7.521   7.506  0.2972 -0.1052  0.2210
 1257ERGO   ROH16103   9.191  17.057   6.437 -0.0612 -0.5167 -0.0350
 1257ERGO    R116104   9.083  17.186   6.664 -0.0439 -0.1500 -0.2246
 1257ERGO    R216105   8.900  17.064   6.831 -0.2834  0.2294 -0.1842
 1257ERGO    R316106   9.080  17.129   7.024 -0.3058  0.2242 -0.1639
 1257ERGO    R416107   8.826  17.098   7.167 -0.2676  0.0357 -0.1612
 1257ERGO    R516108   8.959  17.271   7.173 -0.3561  0.0905 -0.0862
 1257ERGO    C116109   8.953  17.179   7.544 -0.2795 -0.0820 -0.1287
 1257ERGO    C216110   8.891  17.084   7.847 -0.3879  0.2830 -0.2906
 1258ERGO   ROH16111  11.969  17.027   6.785 -0.0572 -0.0382  0.1529
 1258ERGO    R116112  12.020  17.032   7.064  0.0428 -0.0787  0.1360
 1258ERGO    R216113  11.831  16.959   7.251  0.0561  0.0431  0.1986
 1258ERGO    R316114  12.027  16.792   7.336 -0.0247 -0.0917  0.1268
 1258ERGO    R416115  11.831  16.793   7.554 -0.0520 -0.1324  0.1045
 1258ERGO    R516116  12.044  16.834   7.571 -0.0342 -0.2333  0.1553
 1258ERGO    C116117  12.015  16.539   7.810 -0.1906 -0.3613 -0.0177
 1258ERGO    C216118  12.157  16.451   8.064 -0.4122 -0.3084 -0.1750
 1259ERGO   ROH16119   2.236   1.628   5.914 -0.0452 -0.1205  0.0517
 1259ERGO    R116120   2.331   1.513   6.155  0.1346  0.1078  0.0930
 1259ERGO    R216121   2.462   1.661   6.348 -0.1801  0.4067  0.0877
 1259ERGO    R316122   2.270   1.559   6.511 -0.0200  0.0665  0.0729
 1259ERGO    R416123   2.513   1.561   6.675 -0.0097  0.4125  0.0641
 1259ERGO    R516124   2.383   1.390   6.638  0.2536  0.2113  0.0316
 1259ERGO    C116125   2.362   1.407   7.019  0.2399  0.0965  0.0365
 1259ERGO    C216126   2.272   1.271   7.355 -0.0454  0.0033  0.0378
 1260ERGO   ROH16127  10.654   4.598   6.736  0.0124  0.1685 -0.1222
 1260ERGO    R116128  10.453   4.627   6.932  0.0772  0.1072 -0.0467
 1260ERGO    R216129  10.365   4.416   7.088  0.2339  0.0933  0.0174
 1260ERGO    R316130  10.426   4.584   7.292  0.2360  0.1492 -0.0279
 1260ERGO    R416131  10.186   4.443   7.382  0.2565  0.1294  0.0282
 1260ERGO    R516132  10.214   4.659   7.374  0.2282  0.1375 -0.0249
 1260ERGO    C116133  10.139   4.616   7.746  0.2716  0.2027 -0.0081
 1260ERGO    C216134  10.058   4.544   8.149  0.0415 -0.0245 -0.2779
 1261ERGO   ROH16135  15.950  11.672   6.261 -0.2109 -0.2938 -0.2183
 1261ERGO    R116136  15.919  11.686   6.542  0.0444 -0.1186 -0.1951
 1261ERGO    R216137  15.683  11.619   6.668  0.0727  0.2081  0.0425
 1261ERGO    R316138  15.844  11.453   6.811  0.0106  0.0955 -0.0161
 1261ERGO    R416139  15.610  11.494   6.982  0.0566  0.1802  0.0279
 1261ERGO    R516140  15.819  11.526   7.038  0.0821  0.0625  0.0030
 1261ERGO    C116141  15.720  11.266   7.299 -0.0110  0.0583 -0.0356
 1261ERGO    C216142  15.487  11.282   7.580 -0.0875  0.0287  0.0406
 1262ERGO   ROH16143  14.466  16.851   7.182  0.0950  0.0592  0.1556
 1262ERGO    R116144  14.507  16.614   7.331 -0.0220  0.0335  0.1477
 1262ERGO    R216145  14.756  16.534   7.419 -0.0247 -0.2104 -0.0502
 1262ERGO    R316146  14.633  16.527   7.661  0.1657 -0.0546  0.0534
 1262ERGO    R416147  14.878  16.370   7.697  0.1042 -0.1763 -0.0858
 1262ERGO    R516148  14.674  16.306   7.742  0.1053 -0.0465  0.1013
 1262ERGO    C116149  14.834  16.268   8.087  0.3580 -0.0103 -0.0093
 1262ERGO    C216150  15.064  16.069   8.142  0.0408 -0.0546  0.1627
 1263ERGO   ROH16151  17.221  14.815   5.979 -0.0846 -0.1270 -0.0382
 1263ERGO    R116152  17.265  14.945   6.226 -0.0464 -0.2349  0.0133
 1263ERGO    R216153  17.211  15.214   6.265  0.2410 -0.1758  0.0524
 1263ERGO    R316154  17.062  15.121   6.472  0.0389 -0.0624 -0.0402
 1263ERGO    R416155  17.156  15.383   6.561  0.2742 -0.1866  0.0643
 1263ERGO    R516156  17.178  15.195   6.668  0.0199 -0.2326  0.0335
 1263ERGO    C116157  16.983  15.395   6.927  0.1040 -0.0864 -0.0158
 1263ERGO    C216158  16.730  15.456   7.072  0.0267  0.1686  0.0054
 1264ERGO   ROH16159   8.615  15.268   6.508  0.2559 -0.1130  0.0264
 1264ERGO    R116160   8.684  15.228   6.780 -0.0005  0.0817  0.1251
 1264ERGO    R216161   8.496  15.233   6.983 -0.2430 -0.0524 -0.0834
 1264ERGO    R316162   8.600  14.988   7.041 -0.0155  0.0897  0.1257
 1264ERGO    R416163   8.487  15.083   7.294 -0.2901  0.1070 -0.0078
 1264ERGO    R516164   8.691  15.012   7.261 -0.1921  0.3081  0.1742
 1264ERGO    C116165   8.580  14.766   7.530 -0.1040  0.3331  0.2326
 1264ERGO    C216166   8.424  14.587   7.744  0.0234  0.1302  0.0920
 1265ERGO   ROH16167   3.728   2.671   6.191 -0.1616  0.0986  0.0200
 1265ERGO    R116168   3.651   2.804   6.428 -0.1825  0.0218  0.0576
 1265ERGO    R216169   3.440   2.718   6.585 -0.1766 -0.0515  0.0341
 1265ERGO    R316170   3.628   2.722   6.782 -0.1754 -0.0843  0.0322
 1265ERGO    R416171   3.379   2.642   6.917 -0.1987  0.0582  0.0551
 1265ERGO    R516172   3.511   2.807   6.973 -0.1307  0.0110  0.0125
 1265ERGO    C116173   3.520   2.601   7.295 -0.2105  0.0913  0.0656
 1265ERGO    C216174   3.447   2.612   7.545 -0.1740 -0.0771 -0.0541
 1266ERGO   ROH16175  17.013  15.868   6.148 -0.0162  0.2059 -0.0201
 1266ERGO    R116176  17.123  15.816   6.404  0.0319  0.0635 -0.0679
 1266ERGO    R216177  17.154  16.013   6.596  0.1077 -0.0312  0.0247
 1266ERGO    R316178  17.011  15.840   6.749  0.1097 -0.0827 -0.0327
 1266ERGO    R416179  17.182  15.983   6.939  0.2075 -0.2531 -0.0017
 1266ERGO    R516180  17.165  15.767   6.917  0.1387 -0.2311 -0.1272
 1266ERGO    C116181  17.063  15.804   7.283  0.2674 -0.4306 -0.0711
 1266ERGO    C216182  16.913  15.769   7.654  0.0156 -0.0002 -0.2196
 1267ERGO   ROH16183  12.839  18.268   6.701  0.2443 -0.1618  0.0130
 1267ERGO    R116184  12.823  18.239   6.982  0.0871 -0.1330  0.0079
 1267ERGO    R216185  12.937  18.026   7.117  0.0873 -0.0738  0.1026
 1267ERGO    R316186  13.057  18.224   7.261 -0.0722 -0.0110  0.1511
 1267ERGO    R416187  12.985  18.020   7.459  0.0213 -0.0848  0.1116
 1267ERGO    R516188  12.933  18.232   7.465 -0.1204 -0.1186  0.1273
 1267ERGO    C116189  13.125  18.202   7.793 -0.1667 -0.0320  0.1623
 1267ERGO    C216190  13.438  18.220   8.036  0.0708 -0.0514 -0.0584
 1268ERGO   ROH16191   2.794  16.034   6.114  0.2181 -0.1848  0.1288
 1268ERGO    R116192   2.911  16.083   6.367 -0.0344 -0.1499  0.2420
 1268ERGO    R216193   2.763  16.164   6.586 -0.2613 -0.1581  0.0967
 1268ERGO    R316194   2.879  15.947   6.704 -0.3413 -0.1330  0.2218
 1268ERGO    R416195   2.824  16.133   6.925 -0.1173  0.0890  0.0957
 1268ERGO    R516196   3.016  16.040   6.877 -0.1984 -0.0723  0.0780
 1268ERGO    C116197   2.967  15.912   7.233 -0.1087  0.2566  0.2124
 1268ERGO    C216198   3.206  15.864   7.562  0.1776 -0.1568  0.0714
 1269ERGO   ROH16199  11.895   8.762   6.459 -0.3090  0.0630  0.0606
 1269ERGO    R116200  11.806   8.889   6.695 -0.2056 -0.0171  0.1435
 1269ERGO    R216201  11.820   8.769   6.943  0.0055 -0.0585  0.1125
 1269ERGO    R316202  11.954   8.996   7.010 -0.0417 -0.0169  0.0673
 1269ERGO    R416203  11.774   8.948   7.236  0.0085 -0.0413  0.1027
 1269ERGO    R516204  11.790   9.132   7.120 -0.0584 -0.0479  0.0812
 1269ERGO    C116205  11.873   9.265   7.468 -0.0339  0.0078  0.0545
 1269ERGO    C216206  11.866   9.517   7.757 -0.0508  0.1301 -0.1922
 1270ERGO   ROH16207   9.460   3.615   6.855 -0.0149  0.1061  0.0024
 1270ERGO    R116208   9.523   3.801   7.060  0.0679  0.0948 -0.0129
 1270ERGO    R216209   9.339   3.982   7.158  0.1141  0.1028  0.0567
 1270ERGO    R316210   9.407   3.872   7.397  0.1895  0.0912  0.0305
 1270ERGO    R416211   9.281   4.127   7.466  0.0846  0.0263  0.0875
 1270ERGO    R516212   9.477   4.058   7.531  0.1236  0.1006  0.0536
 1270ERGO    C116213   9.310   4.108   7.870  0.1383 -0.0292  0.0809
 1270ERGO    C216214   9.082   4.199   8.140  0.0283  0.1534 -0.2098
 1271ERGO   ROH16215  13.877  10.020   6.260  0.2102  0.1391  0.1030
 1271ERGO    R116216  13.931  10.077   6.532  0.1291  0.1238  0.1224
 1271ERGO    R216217  13.912  10.332   6.637 -0.1557  0.0755  0.1905
 1271ERGO    R316218  13.746  10.211   6.816 -0.0381 -0.1529  0.1494
 1271ERGO    R416219  13.893  10.410   6.973 -0.2376 -0.0414  0.2136
 1271ERGO    R516220  13.876  10.197   7.017 -0.0204 -0.0804  0.1473
 1271ERGO    C116221  13.727  10.342   7.337 -0.1748 -0.3239  0.1884
 1271ERGO    C216222  13.577  10.252   7.604  0.1296 -0.0316  0.3084
 1272ERGO   ROH16223  18.079   7.967   5.531  0.0329  0.0798 -0.0168
 1272ERGO    R116224  17.931   7.996   5.770 -0.0212  0.0696 -0.0479
 1272ERGO    R216225  17.701   7.852   5.822 -0.0456  0.0769 -0.1114
 1272ERGO    R316226  17.834   7.783   6.049 -0.0969  0.0513 -0.0899
 1272ERGO    R416227  17.563   7.677   6.086 -0.0674 -0.0395 -0.1999
 1272ERGO    R516228  17.671   7.808   6.223 -0.1518 -0.0499 -0.1318
 1272ERGO    C116229  17.608   7.510   6.453 -0.1285 -0.1314 -0.2313
 1272ERGO    C216230  17.406   7.490   6.807 -0.0832 -0.2296  0.1702
 1273ERGO   ROH16231   6.796   0.257   6.315  0.3239  0.1538 -0.0472
 1273ERGO    R116232   6.662   0.124   6.526  0.1885  0.0604 -0.1888
 1273ERGO    R216233   6.752   0.131   6.788  0.0917 -0.1547 -0.1436
 1273ERGO    R316234   6.500   0.219   6.838  0.1071 -0.0870 -0.1868
 1273ERGO    R416235   6.608   0.149   7.101  0.0332 -0.1180 -0.1729
 1273ERGO    R516236   6.422   0.077   7.015  0.0331 -0.0640 -0.2056
 1273ERGO    C116237   6.288   0.242   7.331  0.0136 -0.0332 -0.2306
 1273ERGO    C216238   6.201   0.314   7.602  0.0961  0.0138 -0.3391
 1274ERGO   ROH16239  17.089  18.299   6.522  0.1280  0.0828 -0.0623
 1274ERGO    R116240  16.977  18.068   6.642  0.1341  0.0403 -0.1425
 1274ERGO    R216241  17.122  17.836   6.681  0.1776  0.0853 -0.0966
 1274ERGO    R316242  17.041  17.868   6.939  0.0384  0.0246 -0.1293
 1274ERGO    R416243  17.083  17.580   6.910  0.1882  0.0365 -0.1463
 1274ERGO    R516244  16.903  17.678   6.982  0.1011 -0.0501 -0.2204
 1274ERGO    C116245  16.984  17.461   7.285  0.0634 -0.0488 -0.2059
 1274ERGO    C216246  17.047  17.296   7.555  0.0580 -0.1151 -0.0511
 1275ERGO   ROH16247   6.158   2.599   7.683 -0.0755 -0.1600 -0.1660
 1275ERGO    R116248   6.001   2.622   7.917  0.0208 -0.1310 -0.1079
 1275ERGO    R216249   5.975   2.417   8.101  0.1531 -0.0743 -0.0483
 1275ERGO    R316250   6.058   2.608   8.276  0.1697 -0.0080 -0.1215
 1275ERGO    R416251   5.906   2.418   8.440  0.2725 -0.0340 -0.0199
 1275ERGO    R516252   5.874   2.633   8.428  0.2053 -0.0320 -0.0576
 1275ERGO    C116253   5.942   2.598   8.801  0.3576  0.0516 -0.0720
 1275ERGO    C216254   5.865   2.442   9.111  0.2436 -0.1026 -0.1152
 1276ERGO   ROH16255   4.861   8.088   6.049  0.0168 -0.2010  0.0668
 1276ERGO    R116256   4.985   8.233   6.258  0.0762 -0.1119 -0.0288
 1276ERGO    R216257   4.841   8.379   6.444  0.1344  0.1049 -0.1436
 1276ERGO    R316258   4.982   8.229   6.622  0.0387  0.1556 -0.0254
 1276ERGO    R416259   4.986   8.499   6.734  0.3488  0.2678 -0.3150
 1276ERGO    R516260   5.158   8.373   6.695  0.2067  0.0537 -0.2338
 1276ERGO    C116261   5.201   8.429   7.070  0.3838  0.4101 -0.3038
 1276ERGO    C216262   5.245   8.378   7.421  0.0889 -0.0550  0.1386
 1277ERGO   ROH16263  10.165  11.870   6.300  0.0968 -0.5326  0.0952
 1277ERGO    R116264  10.054  11.815   6.554  0.1926 -0.4247  0.1614
 1277ERGO    R216265  10.210  11.777   6.780  0.2669  0.0344  0.1969
 1277ERGO    R316266  10.052  11.974   6.882 -0.0091 -0.0774 -0.0026
 1277ERGO    R416267  10.176  11.850   7.116  0.0601  0.2409  0.1338
 1277ERGO    R516268   9.963  11.881   7.083  0.0310 -0.0387  0.0330
 1277ERGO    C116269  10.009  12.077   7.407 -0.3194  0.2560 -0.0901
 1277ERGO    C216270   9.935  12.259   7.615  0.1195 -0.1457 -0.0704
 1278ERGO   ROH16271   2.506   8.591   5.724  0.0210  0.1719  0.0787
 1278ERGO    R116272   2.410   8.523   5.982  0.2180 -0.1379  0.0758
 1278ERGO    R216273   2.575   8.432   6.184  0.4921  0.2812  0.0503
 1278ERGO    R316274   2.463   8.637   6.323 -0.0715 -0.0333  0.0890
 1278ERGO    R416275   2.587   8.467   6.527  0.5536  0.3330  0.0433
 1278ERGO    R516276   2.379   8.534   6.523  0.3269 -0.2881  0.1372
 1278ERGO    C116277   2.488   8.680   6.858  0.0602  0.0681  0.0754
 1278ERGO    C216278   2.681   8.624   7.060  0.1727  0.1832 -0.1834
 1279ERGO   ROH16279  12.307   3.958   6.261 -0.0922 -0.0723  0.1171
 1279ERGO    R116280  12.458   4.014   6.493 -0.0457  0.0223  0.0655
 1279ERGO    R216281  12.481   4.268   6.598 -0.1917  0.0372  0.0751
 1279ERGO    R316282  12.393   4.149   6.825 -0.0243 -0.0466  0.0965
 1279ERGO    R416283  12.517   4.399   6.916 -0.1952  0.0391  0.0741
 1279ERGO    R516284  12.563   4.198   6.988 -0.0148  0.0732  0.0462
 1279ERGO    C116285  12.456   4.362   7.315 -0.0401 -0.0386  0.0936
 1279ERGO    C216286  12.625   4.608   7.599 -0.2026  0.2272 -0.0350
 1280ERGO   ROH16287   4.070  12.743   5.809 -0.1050  0.2528  0.0204
 1280ERGO    R116288   4.067  12.666   6.082 -0.1517 -0.0299 -0.0563
 1280ERGO    R216289   4.028  12.847   6.287  0.1375 -0.1854  0.1425
 1280ERGO    R316290   3.829  12.676   6.356 -0.0847  0.0087  0.0010
 1280ERGO    R416291   3.877  12.835   6.597  0.2106 -0.3257  0.1732
 1280ERGO    R516292   3.877  12.617   6.583 -0.0963 -0.3172 -0.0748
 1280ERGO    C116293   3.603  12.666   6.844  0.0447 -0.2251  0.0583
 1280ERGO    C216294   3.440  12.839   6.963 -0.0963 -0.0593  0.0836
 1281ERGO   ROH16295  11.993  10.737   6.436  0.0324  0.1278 -0.0003
 1281ERGO    R116296  11.956  10.875   6.680  0.1305  0.1461  0.0039
 1281ERGO    R216297  11.742  10.827   6.848  0.0699  0.3262 -0.0233
 1281ERGO    R316298  11.938  10.788   7.033  0.0165  0.1414 -0.0019
 1281ERGO    R416299  11.692  10.696   7.164 -0.0339  0.0325 -0.1569
 1281ERGO    R516300  11.834  10.843   7.242 -0.0431 -0.0446  0.0218
 1281ERGO    C116301  11.847  10.584   7.522 -0.1443 -0.3119 -0.2146
 1281ERGO    C216302  11.666  10.492   7.789  0.0127  0.2256 -0.0209
 1282ERGO   ROH16303   5.887   0.694   6.158 -0.1222 -0.1125 -0.0930
 1282ERGO    R116304   6.058   0.784   6.364 -0.0967 -0.0834 -0.1271
 1282ERGO    R216305   6.073   1.050   6.440 -0.1240 -0.0813 -0.1332
 1282ERGO    R316306   6.020   0.949   6.687 -0.0595 -0.0858 -0.1210
 1282ERGO    R416307   6.168   1.197   6.738 -0.2240  0.0234 -0.1521
 1282ERGO    R516308   6.217   0.999   6.814 -0.0916  0.0632 -0.1258
 1282ERGO    C116309   6.174   1.188   7.143 -0.2217  0.0802 -0.1516
 1282ERGO    C216310   6.046   1.287   7.445  0.1592 -0.1406 -0.0892
 1283ERGO   ROH16311   9.390  13.335   5.956  0.2377  0.1346 -0.0141
 1283ERGO    R116312   9.291  13.301   6.219  0.1407  0.0766 -0.0576
 1283ERGO    R216313   9.427  13.157   6.411  0.0693  0.0334 -0.0390
 1283ERGO    R316314   9.400  13.386   6.556  0.0172  0.0017  0.0018
 1283ERGO    R416315   9.404  13.170   6.756  0.1840 -0.0241 -0.0283
 1283ERGO    R516316   9.251  13.325   6.734  0.1064 -0.0892  0.0463
 1283ERGO    C116317   9.364  13.393   7.092  0.2019 -0.0874  0.0162
 1283ERGO    C216318   9.376  13.376   7.398  0.1120 -0.0799 -0.0493
 1284ERGO   ROH16319  11.745   1.399   6.793 -0.1531 -0.1039  0.1688
 1284ERGO    R116320  11.808   1.341   7.063 -0.1320 -0.0754  0.1707
 1284ERGO    R216321  11.968   1.505   7.217 -0.0555 -0.0966  0.1197
 1284ERGO    R316322  11.756   1.498   7.387 -0.0349  0.0017  0.1490
 1284ERGO    R416323  11.984   1.573   7.555  0.0287 -0.1422  0.1242
 1284ERGO    R516324  11.846   1.407   7.590 -0.0565 -0.0689  0.1258
 1284ERGO    C116325  11.795   1.605   7.912  0.0971 -0.0764  0.1544
 1284ERGO    C216326  11.658   1.464   8.198  0.2790 -0.2626  0.0209
 1285ERGO   ROH16327  14.095  11.394   6.386  0.1694 -0.0089 -0.0143
 1285ERGO    R116328  14.075  11.323   6.659  0.1278 -0.0652 -0.0322
 1285ERGO    R216329  14.064  11.511   6.861  0.1438 -0.1085  0.0064
 1285ERGO    R316330  13.838  11.377   6.929  0.1110 -0.0796 -0.0433
 1285ERGO    R416331  13.906  11.534   7.168 -0.0622  0.1109 -0.1119
 1285ERGO    R516332  13.870  11.319   7.159 -0.0341  0.0978  0.0263
 1285ERGO    C116333  13.602  11.421   7.410 -0.2130  0.2657 -0.2275
 1285ERGO    C216334  13.522  11.462   7.676 -0.0037 -0.1786 -0.2576
 1286ERGO   ROH16335  18.535   1.712   6.151  0.2623  0.0666  0.3185
 1286ERGO    R116336  18.378   1.668   6.381  0.1592  0.0223  0.2406
 1286ERGO    R216337  18.195   1.461   6.400  0.1228  0.0413  0.1058
 1286ERGO    R316338  18.335   1.402   6.626  0.0203 -0.0415  0.1482
 1286ERGO    R416339  18.128   1.195   6.610  0.0676 -0.0753 -0.0582
 1286ERGO    R516340  18.169   1.325   6.780 -0.0436 -0.1500  0.0271
 1286ERGO    C116341  18.219   0.984   6.944 -0.0609 -0.2209 -0.1139
 1286ERGO    C216342  18.033   0.812   7.201  0.4160 -0.0335  0.1917
 1287ERGO   ROH16343  14.603   2.798   7.905 -0.1001 -0.0125 -0.0906
 1287ERGO    R116344  14.552   2.675   8.155 -0.1833  0.1155 -0.0429
 1287ERGO    R216345  14.737   2.674   8.361 -0.1258 -0.0515 -0.0929
 1287ERGO    R316346  14.532   2.780   8.503  0.0384  0.2392 -0.0658
 1287ERGO    R416347  14.751   2.757   8.696 -0.0013 -0.1745 -0.0662
 1287ERGO    R516348  14.549   2.678   8.719 -0.1326  0.1426 -0.0971
 1287ERGO    C116349  14.566   2.906   9.024  0.2250  0.0268 -0.0253
 1287ERGO    C216350  14.536   2.987   9.375  0.1942 -0.2108 -0.1213
 1288ERGO   ROH16351   5.103   4.071   6.087 -0.1497 -0.2560 -0.2502
 1288ERGO    R116352   4.917   3.989   6.284  0.0254 -0.1804 -0.0492
 1288ERGO    R216353   4.989   3.941   6.547  0.2175  0.1504 -0.0367
 1288ERGO    R316354   4.791   4.119   6.600  0.1230  0.0678 -0.1096
 1288ERGO    R416355   4.835   3.977   6.853  0.0313  0.0274 -0.1141
 1288ERGO    R516356   4.645   4.001   6.749  0.0803 -0.0184 -0.2169
 1288ERGO    C116357   4.558   4.166   7.082 -0.1658 -0.1218 -0.2277
 1288ERGO    C216358   4.418   4.445   7.260 -0.5123  0.1192 -0.2573
 1289ERGO   ROH16359  11.014  18.571   7.608 -0.0105 -0.1914  0.1450
 1289ERGO    R116360  10.754  18.459   7.610  0.0110 -0.2412  0.1124
 1289ERGO    R216361  10.667  18.289   7.810 -0.0496 -0.1002  0.2056
 1289ERGO    R316362  10.464  18.469   7.831 -0.0947 -0.1266 -0.0311
 1289ERGO    R416363  10.429  18.290   8.060  0.0334  0.2465  0.2891
 1289ERGO    R516364  10.279  18.340   7.910 -0.0290 -0.0527  0.2498
 1289ERGO    C116365  10.099  18.459   8.225  0.0394  0.4235  0.1155
 1289ERGO    C216366   9.981  18.535   8.555 -0.1180  0.1751 -0.1775
 1290ERGO   ROH16367   8.965   1.096   6.627  0.0114 -0.2360  0.1918
 1290ERGO    R116368   8.976   1.093   6.910  0.1231  0.0154  0.1949
 1290ERGO    R216369   9.110   1.285   7.057  0.0079  0.2731 -0.0135
 1290ERGO    R316370   8.870   1.312   7.181  0.0249  0.1560  0.0417
 1290ERGO    R416371   9.065   1.296   7.399  0.0236 -0.1560  0.0072
 1290ERGO    R516372   8.887   1.173   7.375  0.0075 -0.0908 -0.1369
 1290ERGO    C116373   8.813   1.328   7.715  0.0487 -0.5158  0.0711
 1290ERGO    C216374   9.025   1.458   8.060  0.2621  0.0893 -0.2236
 1291ERGO   ROH16375  13.865  12.289   6.163 -0.1389  0.1873  0.0398
 1291ERGO    R116376  13.961  12.380   6.413 -0.1804  0.3370  0.0001
 1291ERGO    R216377  13.818  12.554   6.573 -0.4915 -0.0532  0.1443
 1291ERGO    R316378  13.854  12.360   6.760  0.1010 -0.0323  0.0761
 1291ERGO    R416379  13.790  12.601   6.914 -0.7376 -0.2499  0.1556
 1291ERGO    R516380  13.963  12.472   6.942 -0.2920  0.2850  0.1447
 1291ERGO    C116381  13.807  12.446   7.289 -0.3248 -0.3447  0.0981
 1291ERGO    C216382  13.890  12.411   7.677  0.0992 -0.1420  0.1771
 1292ERGO   ROH16383  10.250  13.148   6.108 -0.1598  0.0257  0.0593
 1292ERGO    R116384  10.372  13.214   6.355 -0.0531  0.2133 -0.0413
 1292ERGO    R216385  10.386  13.473   6.449 -0.2638  0.2534 -0.1108
 1292ERGO    R316386  10.269  13.365   6.670  0.0067  0.1733 -0.0031
 1292ERGO    R416387  10.480  13.539   6.775 -0.2864  0.6497 -0.1786
 1292ERGO    R516388  10.451  13.327   6.821  0.1282  0.6178 -0.0277
 1292ERGO    C116389  10.426  13.474   7.172 -0.0456  0.8054 -0.1169
 1292ERGO    C216390  10.508  13.547   7.571  0.2576 -0.4099 -0.1638
 1293ERGO   ROH16391  11.050   8.304   6.556  0.0592 -0.0578 -0.0113
 1293ERGO    R116392  10.992   8.235   6.825  0.0300  0.0252  0.0039
 1293ERGO    R216393  11.004   7.974   6.916 -0.0624  0.0434  0.0643
 1293ERGO    R316394  11.171   8.081   7.102 -0.0285  0.0280  0.0435
 1293ERGO    R416395  11.009   7.887   7.251  0.0165 -0.0028  0.0519
 1293ERGO    R516396  11.038   8.098   7.300  0.0137 -0.0078  0.0755
 1293ERGO    C116397  11.169   7.936   7.620  0.0944 -0.0442  0.0252
 1293ERGO    C216398  11.188   7.668   7.814  0.0894 -0.0509  0.0427
 1294ERGO   ROH16399  10.355  12.640   6.447  0.0111  0.0945  0.0063
 1294ERGO    R116400  10.419  12.802   6.670 -0.0108  0.1277 -0.0133
 1294ERGO    R216401  10.227  12.905   6.839 -0.0188  0.1039 -0.0206
 1294ERGO    R316402  10.376  12.784   7.031  0.0113  0.1590 -0.0066
 1294ERGO    R416403  10.307  13.044   7.145 -0.0504  0.1737 -0.0426
 1294ERGO    R516404  10.507  12.960   7.125 -0.0246  0.2102 -0.0360
 1294ERGO    C116405  10.494  13.011   7.503 -0.0403  0.2661 -0.0423
 1294ERGO    C216406  10.568  12.980   7.798 -0.0117  0.0709 -0.0983
 1295ERGO   ROH16407  13.224   7.817   6.174 -0.0767  0.1937  0.0077
 1295ERGO    R116408  13.187   7.999   6.388 -0.0953  0.0863  0.0970
 1295ERGO    R216409  13.282   7.949   6.643  0.0313  0.0333  0.0432
 1295ERGO    R316410  13.400   8.191   6.611 -0.1148  0.1120  0.0925
 1295ERGO    R416411  13.458   8.116   6.888  0.0482  0.0286  0.0336
 1295ERGO    R516412  13.367   8.302   6.821 -0.0825  0.0063  0.1520
 1295ERGO    C116413  13.673   8.440   7.002 -0.0791  0.0997  0.0743
 1295ERGO    C216414  13.817   8.531   7.357  0.1751  0.1401  0.1124
 1296ERGO   ROH16415  11.592   3.354   6.681 -0.2162 -0.1261  0.0319
 1296ERGO    R116416  11.654   3.300   6.952  0.1070 -0.0555 -0.0253
 1296ERGO    R216417  11.877   3.405   7.077  0.0045  0.3663 -0.1882
 1296ERGO    R316418  11.694   3.494   7.257 -0.0347 -0.0278 -0.0223
 1296ERGO    R416419  11.942   3.470   7.410  0.0889  0.2065 -0.1717
 1296ERGO    R516420  11.750   3.381   7.461  0.2349 -0.1081 -0.1343
 1296ERGO    C116421  11.808   3.591   7.773  0.1014 -0.2566 -0.0063
 1296ERGO    C216422  12.052   3.758   7.958 -0.2847  0.2007 -0.0101
 1297ERGO   ROH16423   8.422  12.914   5.963  0.0951 -0.1694 -0.0087
 1297ERGO    R116424   8.421  13.046   6.213  0.0473 -0.1170 -0.0372
 1297ERGO    R216425   8.241  12.983   6.414  0.0469 -0.1128 -0.0408
 1297ERGO    R316426   8.467  12.952   6.562  0.0408 -0.0315 -0.0122
 1297ERGO    R416427   8.250  12.955   6.758  0.0127 -0.0807 -0.0365
 1297ERGO    R516428   8.427  13.081   6.759 -0.0235 -0.0246 -0.0268
 1297ERGO    C116429   8.467  12.909   7.097 -0.0129  0.0144 -0.0071
 1297ERGO    C216430   8.477  12.947   7.459 -0.0591 -0.4998  0.1994
 1298ERGO   ROH16431  18.296  16.693   6.616  0.1789 -0.0529  0.1333
 1298ERGO    R116432  18.173  16.831   6.830  0.0526 -0.0505  0.0620
 1298ERGO    R216433  17.916  16.777   6.915 -0.0060 -0.0456 -0.0893
 1298ERGO    R316434  18.036  16.746   7.157 -0.1446 -0.0535 -0.0225
 1298ERGO    R416435  17.751  16.783   7.218 -0.1719 -0.0809 -0.1788
 1298ERGO    R516436  17.918  16.897   7.300 -0.2326 -0.0781 -0.0766
 1298ERGO    C116437  17.767  16.758   7.622 -0.3984 -0.1088 -0.1683
 1298ERGO    C216438  17.592  16.599   7.861 -0.0464 -0.0657  0.0689
 1299ERGO   ROH16439   7.741  11.806   6.310 -0.1011  0.0664 -0.1064
 1299ERGO    R116440   7.683  11.741   6.579  0.1111 -0.0608 -0.0891
 1299ERGO    R216441   7.868  11.767   6.782  0.1734  0.1578 -0.1722
 1299ERGO    R316442   7.673  11.917   6.898  0.0179 -0.1252 -0.0557
 1299ERGO    R416443   7.804  11.779   7.121  0.3675  0.0721 -0.1309
 1299ERGO    R516444   7.591  11.780   7.076  0.3321 -0.2466  0.0032
 1299ERGO    C116445   7.584  11.927   7.428  0.3346 -0.2436  0.0025
 1299ERGO    C216446   7.617  12.012   7.792  0.0612  0.1792  0.3498
 1300ERGO   ROH16447  13.431  17.646   6.485  0.1723 -0.1700 -0.1530
 1300ERGO    R116448  13.432  17.406   6.634  0.1586 -0.1308 -0.0901
 1300ERGO    R216449  13.663  17.297   6.741  0.1242 -0.0112  0.1073
 1300ERGO    R316450  13.521  17.305   6.973 -0.0490 -0.0089  0.0037
 1300ERGO    R416451  13.797  17.245   7.055 -0.1332 -0.1700  0.1940
 1300ERGO    R516452  13.618  17.131   7.107 -0.2330 -0.0987  0.0271
 1300ERGO    C116453  13.742  17.222   7.456 -0.4456 -0.2605  0.1473
 1300ERGO    C216454  13.835  17.173   7.728 -0.0373  0.0046  0.1886
 1301ERGO   ROH16455   8.403  13.837   5.645  0.2546 -0.1067  0.0903
 1301ERGO    R116456   8.547  13.871   5.886  0.2692 -0.0414  0.0726
 1301ERGO    R216457   8.501  14.082   6.058  0.3188  0.0382 -0.0087
 1301ERGO    R316458   8.469  13.884   6.241  0.2815  0.1164  0.0699
 1301ERGO    R416459   8.552  14.118   6.398  0.3515  0.1527 -0.0252
 1301ERGO    R516460   8.645  13.921   6.400  0.3008  0.1307  0.0435
 1301ERGO    C116461   8.551  13.953   6.768  0.3354  0.2929  0.0389
 1301ERGO    C216462   8.276  13.946   7.020 -0.0785 -0.0540 -0.3288
 1302ERGO   ROH16463  12.901  11.665   6.170 -0.0163  0.3367  0.0915
 1302ERGO    R116464  12.812  11.507   6.387 -0.1767  0.1951 -0.0746
 1302ERGO    R216465  12.933  11.513   6.636 -0.1077 -0.2550 -0.0868
 1302ERGO    R316466  12.680  11.565   6.721 -0.0245 -0.0189  0.0256
 1302ERGO    R416467  12.832  11.514   6.966 -0.0414 -0.5323 -0.0634
 1302ERGO    R516468  12.647  11.416   6.905 -0.1887 -0.2091 -0.1544
 1302ERGO    C116469  12.535  11.563   7.238  0.0754 -0.4721  0.0558
 1302ERGO    C216470  12.692  11.638   7.581 -0.3338  0.5792 -0.2259
 1303ERGO   ROH16471   0.400   2.586   6.297 -0.0708  0.1064 -0.0945
 1303ERGO    R116472   0.604   2.744   6.413 -0.1258  0.1679 -0.0821
 1303ERGO    R216473   0.578   2.862   6.662 -0.1646  0.1329 -0.0713
 1303ERGO    R316474   0.811   2.731   6.712 -0.1155  0.2125 -0.0868
 1303ERGO    R416475   0.744   2.865   6.965 -0.3816 -0.1695  0.0564
 1303ERGO    R516476   0.932   2.880   6.856 -0.3105  0.1017  0.2043
 1303ERGO    C116477   1.059   2.744   7.189 -0.4617 -0.2709  0.1161
 1303ERGO    C216478   1.156   2.345   7.321 -0.0850 -0.0602  0.0913
 1304ERGO   ROH16479  10.057   5.448   6.737 -0.0329  0.1012 -0.1005
 1304ERGO    R116480   9.783   5.408   6.796 -0.0266  0.0848 -0.0824
 1304ERGO    R216481   9.697   5.268   7.018 -0.0031  0.0651 -0.0864
 1304ERGO    R316482   9.554   5.495   7.065 -0.0103  0.0549 -0.0586
 1304ERGO    R416483   9.526   5.337   7.311 -0.0544 -0.0050 -0.0995
 1304ERGO    R516484   9.364   5.420   7.191 -0.0334  0.0244 -0.1095
 1304ERGO    C116485   9.293   5.590   7.525 -0.0910 -0.0553 -0.0810
 1304ERGO    C216486   9.196   5.563   7.875 -0.1815 -0.0552  0.5115
 1305ERGO   ROH16487   8.075   4.702   6.484 -0.2997 -0.0866 -0.3381
 1305ERGO    R116488   7.876   4.621   6.669 -0.1720 -0.2273 -0.2595
 1305ERGO    R216489   7.809   4.356   6.708 -0.0071 -0.2737 -0.2695
 1305ERGO    R316490   7.862   4.414   6.968  0.0807 -0.2843 -0.2849
 1305ERGO    R416491   7.662   4.199   6.979 -0.2925  0.0580 -0.2248
 1305ERGO    R516492   7.650   4.393   7.078  0.0353  0.1132 -0.2853
 1305ERGO    C116493   7.627   4.163   7.381 -0.3763  0.2412 -0.2131
 1305ERGO    C216494   7.336   4.025   7.567 -0.0459 -0.0512 -0.0294
 1306ERGO   ROH16495  10.634  14.151   6.431  0.0839 -0.1294  0.2269
 1306ERGO    R116496  10.529  14.147   6.694  0.0366 -0.0982  0.2094
 1306ERGO    R216497  10.569  13.936   6.867  0.1127 -0.0241  0.2882
 1306ERGO    R316498  10.661  14.132   7.032 -0.0163  0.0787  0.2387
 1306ERGO    R416499  10.560  13.924   7.213 -0.0170  0.1268  0.2903
 1306ERGO    R516500  10.505  14.135   7.214 -0.0865  0.1084  0.1763
 1306ERGO    C116501  10.642  14.101   7.568 -0.2134  0.3112  0.2452
 1306ERGO    C216502  10.910  13.850   7.786 -0.1391  0.4433 -0.3897
 1307ERGO   ROH16503  11.431   7.062   6.231  0.2314  0.1016 -0.2218
 1307ERGO    R116504  11.551   6.839   6.358  0.0234 -0.0692 -0.3211
 1307ERGO    R216505  11.589   6.826   6.631  0.1907 -0.1383 -0.3502
 1307ERGO    R316506  11.453   6.592   6.606 -0.1366  0.0377 -0.2745
 1307ERGO    R416507  11.491   6.626   6.895  0.3771 -0.1675 -0.3013
 1307ERGO    R516508  11.545   6.451   6.777 -0.0221 -0.1730 -0.5004
 1307ERGO    C116509  11.306   6.290   7.026  0.1783 -0.0193 -0.2018
 1307ERGO    C216510  11.331   6.016   7.174  0.1143  0.1410 -0.1778
 1308ERGO   ROH16511  11.391   1.648   6.896  0.0516 -0.0767  0.0014
 1308ERGO    R116512  11.530   1.737   7.126 -0.0975  0.1688  0.0010
 1308ERGO    R216513  11.448   1.955   7.274 -0.4423  0.0742 -0.0326
 1308ERGO    R316514  11.457   1.777   7.480 -0.1914  0.1077 -0.0128
 1308ERGO    R416515  11.465   2.041   7.608 -0.5873  0.1261 -0.0384
 1308ERGO    R516516  11.606   1.878   7.638 -0.3492  0.3396 -0.0133
 1308ERGO    C116517  11.483   1.924   7.996 -0.4362  0.1878 -0.0233
 1308ERGO    C216518  11.406   2.051   8.225  0.0961  0.0442 -0.0630
 1309ERGO   ROH16519  14.896  10.084   5.987  0.0370 -0.1372  0.1285
 1309ERGO    R116520  14.814  10.118   6.255  0.0705 -0.0806  0.1315
 1309ERGO    R216521  14.966  10.031   6.470  0.1287  0.0248  0.1328
 1309ERGO    R316522  14.940  10.289   6.551  0.0698  0.0420  0.0615
 1309ERGO    R416523  14.928  10.133   6.798 -0.0469  0.0971  0.0915
 1309ERGO    R516524  14.783  10.280   6.730 -0.0227  0.0727 -0.0168
 1309ERGO    C116525  14.882  10.434   7.065 -0.2044  0.1553  0.0005
 1309ERGO    C216526  15.028  10.504   7.433  0.3215 -0.0754 -0.0567
 1310ERGO   ROH16527  10.184   0.543   6.988  0.2246 -0.1901 -0.0658
 1310ERGO    R116528  10.133   0.692   7.223  0.1127 -0.0193 -0.1956
 1310ERGO    R216529   9.878   0.759   7.305  0.0529 -0.2390 -0.1964
 1310ERGO    R316530   9.955   0.639   7.536  0.2557  0.0731 -0.0974
 1310ERGO    R416531   9.723   0.803   7.610 -0.0051 -0.2259 -0.2279
 1310ERGO    R516532   9.920   0.807   7.704 -0.0013  0.1636 -0.2359
 1310ERGO    C116533   9.705   0.716   8.006  0.1516  0.0746 -0.1532
 1310ERGO    C216534   9.702   0.727   8.396  0.1166 -0.3521 -0.3010
 1311ERGO   ROH16535  15.311  11.388   6.639 -0.2391  0.1531  0.2462
 1311ERGO    R116536  15.280  11.138   6.767 -0.2016  0.0961  0.1438
 1311ERGO    R216537  15.492  11.002   6.882 -0.1691  0.0409  0.0091
 1311ERGO    R316538  15.332  11.004   7.102 -0.0928 -0.0603  0.0673
 1311ERGO    R416539  15.562  10.836   7.177 -0.0352 -0.0639 -0.0796
 1311ERGO    R516540  15.351  10.782   7.190 -0.0295 -0.0965 -0.0249
 1311ERGO    C116541  15.452  10.741   7.555  0.1143 -0.2200 -0.0767
 1311ERGO    C216542  15.608  10.570   7.776 -0.0479  0.2358 -0.0699
 1312ERGO   ROH16543  12.859  12.082   6.296 -0.0237  0.1611 -0.1292
 1312ERGO    R116544  12.837  11.982   6.560 -0.0824  0.0332 -0.1811
 1312ERGO    R216545  12.939  12.116   6.780  0.0622 -0.1762 -0.1133
 1312ERGO    R316546  12.685  12.093   6.872  0.0481 -0.0025 -0.1054
 1312ERGO    R416547  12.851  12.084   7.112  0.0327 -0.0088 -0.1040
 1312ERGO    R516548  12.701  11.938   7.053 -0.0448  0.0557 -0.0511
 1312ERGO    C116549  12.560  12.042   7.392  0.0024  0.2517 -0.0911
 1312ERGO    C216550  12.351  12.165   7.664 -0.0706  0.0221  0.2061
 1313ERGO   ROH16551  11.302  12.984   6.297 -0.0445  0.2281 -0.0635
 1313ERGO    R116552  11.294  12.926   6.574 -0.1300  0.0544 -0.0991
 1313ERGO    R216553  11.522  12.908   6.729 -0.1614 -0.1842 -0.0608
 1313ERGO    R316554  11.393  13.093   6.881 -0.0816 -0.1987  0.0224
 1313ERGO    R416555  11.562  12.946   7.070  0.0151 -0.1938 -0.0806
 1313ERGO    R516556  11.347  12.979   7.087  0.0317 -0.2014  0.0390
 1313ERGO    C116557  11.464  13.141   7.412  0.1928 -0.2129 -0.0140
 1313ERGO    C216558  11.486  13.115   7.722 -0.3083 -0.0588  0.0888
 1314ERGO   ROH16559  18.479   3.529   5.833 -0.2049  0.1354 -0.0390
 1314ERGO    R116560  18.561   3.438   6.088 -0.0608  0.1222 -0.0878
 1314ERGO    R216561  18.486   3.564   6.323 -0.0661  0.0165 -0.0247
 1314ERGO    R316562  18.399   3.315   6.390  0.1147 -0.0581 -0.0671
 1314ERGO    R416563  18.414   3.459   6.644 -0.3336  0.0102 -0.0849
 1314ERGO    R516564  18.507   3.268   6.598 -0.0814  0.1002  0.0683
 1314ERGO    C116565  18.291   3.165   6.894 -0.3197 -0.0636 -0.1598
 1314ERGO    C216566  18.387   2.961   7.208  0.1860  0.1572  0.1387
 1315ERGO   ROH16567   1.470   0.414   6.260  0.1697 -0.1086 -0.1173
 1315ERGO    R116568   1.560   0.569   6.479  0.1023 -0.1566 -0.0567
 1315ERGO    R216569   1.472   0.529   6.738  0.0876 -0.2677 -0.0868
 1315ERGO    R316570   1.737   0.508   6.791  0.0878 -0.2060 -0.0555
 1315ERGO    R416571   1.620   0.615   7.037  0.0256 -0.1945 -0.0756
 1315ERGO    R516572   1.786   0.701   6.925  0.0262 -0.1709 -0.0725
 1315ERGO    C116573   1.956   0.647   7.262 -0.0102 -0.0940 -0.0396
 1315ERGO    C216574   2.158   0.814   7.461  0.2028 -0.4415  0.0186
 1316ERGO   ROH16575   9.609   7.758   6.690  0.2119 -0.0243  0.0642
 1316ERGO    R116576   9.538   8.011   6.796  0.2670 -0.0051  0.0570
 1316ERGO    R216577   9.276   8.088   6.835  0.2725  0.1396 -0.1548
 1316ERGO    R316578   9.361   8.136   7.088  0.0832  0.0308 -0.0688
 1316ERGO    R416579   9.181   8.359   7.027  0.2150  0.1118 -0.1444
 1316ERGO    R516580   9.387   8.374   7.099  0.1608  0.0167  0.0278
 1316ERGO    C116581   9.206   8.562   7.377  0.0038 -0.0065 -0.0575
 1316ERGO    C216582   8.968   8.649   7.648 -0.0505 -0.4357  0.0503
 1317ERGO   ROH16583  10.494  15.997   6.530 -0.0545  0.0466 -0.0755
 1317ERGO    R116584  10.636  15.907   6.757 -0.0231  0.0648 -0.0883
 1317ERGO    R216585  10.738  16.081   6.947 -0.1758  0.0689 -0.0094
 1317ERGO    R316586  10.596  15.926   7.119 -0.0894 -0.0983 -0.0864
 1317ERGO    R416587  10.813  16.037   7.281  0.0074 -0.2742 -0.0902
 1317ERGO    R516588  10.761  15.826   7.260 -0.0149 -0.2526 -0.2763
 1317ERGO    C116589  10.722  15.866   7.638  0.1952 -0.6312 -0.2096
 1317ERGO    C216590  10.869  15.733   7.969 -0.0942 -0.2845  0.1208
 1318ERGO   ROH16591   4.305  14.786   6.694  0.1694 -0.0358 -0.0073
 1318ERGO    R116592   4.256  14.515   6.756  0.1998 -0.0483 -0.0357
 1318ERGO    R216593   4.438  14.359   6.894  0.2015 -0.0324 -0.0146
 1318ERGO    R316594   4.226  14.314   7.059  0.1789 -0.0730 -0.0552
 1318ERGO    R416595   4.419  14.103   7.126  0.2796  0.0783  0.1153
 1318ERGO    R516596   4.210  14.075   7.070  0.3153 -0.0752  0.0670
 1318ERGO    C116597   4.209  13.912   7.415  0.3038  0.1048  0.1530
 1318ERGO    C216598   4.241  13.672   7.647 -0.3640 -0.0435  0.0214
 1319ERGO   ROH16599  12.402   0.551   6.881 -0.0188 -0.1096  0.0094
 1319ERGO    R116600  12.401   0.644   7.148  0.0292 -0.1125  0.0111
 1319ERGO    R216601  12.541   0.518   7.350  0.0772 -0.1093 -0.0153
 1319ERGO    R316602  12.647   0.766   7.387  0.0717 -0.1037 -0.0389
 1319ERGO    R416603  12.733   0.612   7.621  0.0990 -0.0758 -0.0422
 1319ERGO    R516604  12.629   0.804   7.623  0.0948 -0.0845 -0.0442
 1319ERGO    C116605  12.945   0.898   7.814  0.1065 -0.0510 -0.0800
 1319ERGO    C216606  13.002   0.932   8.178  0.0423 -0.0817 -0.0174
 1320ERGO   ROH16607   5.877  13.428   6.364 -0.2959 -0.2258  0.0295
 1320ERGO    R116608   5.957  13.534   6.614 -0.3042 -0.0608 -0.0368
 1320ERGO    R216609   5.795  13.526   6.838 -0.2322 -0.0954  0.0123
 1320ERGO    R316610   6.012  13.406   6.950 -0.1051  0.1191  0.0019
 1320ERGO    R416611   5.832  13.462   7.175 -0.2261 -0.1960 -0.0069
 1320ERGO    R516612   6.042  13.521   7.158 -0.2893  0.0695  0.0593
 1320ERGO    C116613   6.057  13.313   7.478 -0.1032 -0.0532 -0.0279
 1320ERGO    C216614   6.245  13.107   7.635  0.1872  0.0889  0.0634
 1321ERGO   ROH16615  16.137  14.898   6.420  0.3453 -0.0647 -0.1194
 1321ERGO    R116616  16.074  14.924   6.695  0.0790 -0.1040 -0.1749
 1321ERGO    R216617  16.011  14.708   6.855  0.1757 -0.1536 -0.2124
 1321ERGO    R316618  16.211  14.806   7.010 -0.0641  0.0782 -0.0400
 1321ERGO    R416619  16.130  14.557   7.143  0.2903 -0.1857 -0.2749
 1321ERGO    R516620  16.143  14.755   7.234 -0.0958 -0.2198 -0.1087
 1321ERGO    C116621  16.386  14.562   7.456  0.1318  0.0133 -0.1496
 1321ERGO    C216622  16.605  14.246   7.492  0.2837 -0.1159  0.2663
 1322ERGO   ROH16623   4.981   0.639   6.206 -0.0153  0.1816  0.0173
 1322ERGO    R116624   5.021   0.731   6.471  0.2206  0.0776  0.0177
 1322ERGO    R216625   4.893   0.618   6.688  0.1844  0.1920  0.0441
 1322ERGO    R316626   5.146   0.590   6.783  0.1961 -0.1386 -0.0644
 1322ERGO    R416627   4.974   0.544   7.016  0.2099  0.3376  0.0725
 1322ERGO    R516628   5.138   0.687   7.002  0.4489  0.0717 -0.1338
 1322ERGO    C116629   5.259   0.476   7.296  0.2358  0.1120 -0.0128
 1322ERGO    C216630   5.172   0.320   7.684  0.1502  0.0568  0.0196
 1323ERGO   ROH16631  12.007   0.227   7.048  0.0222 -0.0689 -0.0320
 1323ERGO    R116632  12.185   0.271   7.264 -0.0726  0.0678  0.0175
 1323ERGO    R216633  12.116   0.422   7.485 -0.3419 -0.1946  0.1072
 1323ERGO    R316634  12.192   0.198   7.620  0.0043 -0.1680 -0.0273
 1323ERGO    R416635  12.322   0.420   7.762 -0.3635 -0.0184  0.1270
 1323ERGO    R516636  12.419   0.241   7.683 -0.0581  0.1737  0.0176
 1323ERGO    C116637  12.513   0.209   8.051 -0.0510  0.1092  0.0122
 1323ERGO    C216638  12.624   0.171   8.417 -0.1822 -0.0003 -0.0191
 1324ERGO   ROH16639   6.269  14.459   8.219 -0.0269  0.0241 -0.1910
 1324ERGO    R116640   6.460  14.627   8.343 -0.0317 -0.0794 -0.0429
 1324ERGO    R216641   6.582  14.836   8.212  0.0267 -0.0166  0.1159
 1324ERGO    R316642   6.489  14.981   8.422  0.0031 -0.1300  0.1849
 1324ERGO    R416643   6.735  15.118   8.341 -0.1333  0.0818  0.0948
 1324ERGO    R516644   6.686  15.046   8.541  0.0105  0.0025  0.1081
 1324ERGO    C116645   6.737  15.417   8.614 -0.2485  0.0326  0.1474
 1324ERGO    C216646   6.734  15.622   8.425  0.0866  0.1314 -0.1920
 1325ERGO   ROH16647  14.606   3.318   6.597  0.2149 -0.0683  0.0985
 1325ERGO    R116648  14.658   3.368   6.871  0.1216 -0.0421  0.1119
 1325ERGO    R216649  14.801   3.587   6.958  0.1831 -0.0869  0.1330
 1325ERGO    R316650  14.580   3.630   7.111  0.1343  0.0355  0.0299
 1325ERGO    R416651  14.807   3.708   7.282  0.0950 -0.1727  0.1669
 1325ERGO    R516652  14.648   3.566   7.331 -0.0324 -0.0679  0.0493
 1325ERGO    C116653  14.603   3.818   7.614 -0.0021 -0.1078  0.0900
 1325ERGO    C216654  14.627   4.060   7.900 -0.3347 -0.0706 -0.2964
 1326ERGO   ROH16655   1.378   9.392   5.872  0.1188  0.3205  0.1556
 1326ERGO    R116656   1.365   9.343   6.150 -0.1319  0.4620  0.1697
 1326ERGO    R216657   1.132   9.374   6.296 -0.4757 -0.2070 -0.2084
 1326ERGO    R316658   1.182   9.117   6.371  0.2710 -0.0183  0.0371
 1326ERGO    R416659   1.105   9.253   6.619 -0.7163 -0.0721 -0.1740
 1326ERGO    R516660   1.286   9.137   6.585 -0.2069  0.5058  0.2584
 1326ERGO    C116661   1.136   8.941   6.876 -0.1553  0.1834  0.0764
 1326ERGO    C216662   0.882   8.948   7.170 -0.3042 -0.0130 -0.0248
 1327ERGO   ROH16663  14.311   9.180   6.128  0.0753 -0.0332 -0.1426
 1327ERGO    R116664  14.428   9.067   6.360  0.0593 -0.0177 -0.1273
 1327ERGO    R216665  14.436   9.200   6.602  0.0300 -0.0076 -0.1325
 1327ERGO    R316666  14.316   8.973   6.694  0.0332 -0.0101 -0.1338
 1327ERGO    R416667  14.362   9.136   6.934  0.0276 -0.0098 -0.1331
 1327ERGO    R516668  14.425   8.929   6.903  0.0319 -0.0085 -0.1327
 1327ERGO    C116669  14.207   8.887   7.213  0.0293 -0.0134 -0.1347
 1327ERGO    C216670  14.070   8.926   7.457 -0.4636 -0.0685 -0.0655
 1328ERGO   ROH16671  17.725   4.488   5.660 -0.2227 -0.1067 -0.0305
 1328ERGO    R116672  17.634   4.430   5.921 -0.0302 -0.0803  0.0440
 1328ERGO    R216673  17.795   4.455   6.144  0.1141  0.0057 -0.0712
 1328ERGO    R316674  17.591   4.612   6.234  0.1327 -0.0317  0.0396
 1328ERGO    R416675  17.750   4.551   6.473  0.2643 -0.0267 -0.0404
 1328ERGO    R516676  17.536   4.520   6.448  0.2534 -0.0585  0.0624
 1328ERGO    C116677  17.534   4.754   6.749  0.3691 -0.0806  0.0815
 1328ERGO    C216678  17.603   4.886   6.983  0.0760 -0.2248  0.0189
 1329ERGO   ROH16679   6.296   4.726   6.531  0.0386  0.0604  0.1031
 1329ERGO    R116680   6.477   4.775   6.742  0.1124  0.0423  0.0445
 1329ERGO    R216681   6.397   4.789   7.006  0.1914  0.1015  0.0657
 1329ERGO    R316682   6.588   4.599   7.041  0.1508  0.0551  0.0378
 1329ERGO    R416683   6.524   4.692   7.312  0.1601  0.0169  0.0523
 1329ERGO    R516684   6.722   4.683   7.221  0.1614 -0.0070  0.0585
 1329ERGO    C116685   6.778   4.457   7.524  0.1038 -0.0758  0.0181
 1329ERGO    C216686   6.958   4.212   7.803 -0.0834  0.0343  0.1958
 1330ERGO   ROH16687   7.952  12.857   5.794  0.1179  0.0801  0.0650
 1330ERGO    R116688   7.979  12.966   6.054 -0.0116  0.3387 -0.0262
 1330ERGO    R216689   7.872  13.211   6.125 -0.5270  0.1679 -0.1681
 1330ERGO    R316690   7.756  13.066   6.324 -0.1293  0.0499 -0.0140
 1330ERGO    R416691   7.775  13.338   6.431 -0.4520  0.1177 -0.1239
 1330ERGO    R516692   7.850  13.156   6.525 -0.0862  0.2599 -0.1269
 1330ERGO    C116693   7.611  13.276   6.796 -0.0351 -0.0221  0.0463
 1330ERGO    C216694   7.319  13.330   6.834  0.1273 -0.1048  0.0401
 1331ERGO   ROH16695  17.975  18.056   6.710  0.0319  0.1023 -0.0169
 1331ERGO    R116696  17.992  18.208   6.948  0.0015  0.0535  0.0172
 1331ERGO    R216697  17.852  18.143   7.177  0.0502 -0.0529  0.0198
 1331ERGO    R316698  18.099  18.150   7.291  0.0611  0.0115 -0.0088
 1331ERGO    R416699  17.912  18.199   7.513  0.0801  0.0295  0.0003
 1331ERGO    R516700  18.082  18.323   7.456  0.0528  0.0436 -0.0449
 1331ERGO    C116701  18.179  18.238   7.815  0.1079  0.1380 -0.0379
 1331ERGO    C216702  18.391  18.181   8.023  0.3558 -0.0554  0.1805
 1332ERGO   ROH16703  12.247   5.996   5.957 -0.0727 -0.2587 -0.0502
 1332ERGO    R116704  12.315   5.893   6.212  0.1590 -0.2639 -0.1114
 1332ERGO    R216705  12.569   5.803   6.273  0.3198  0.0929 -0.2238
 1332ERGO    R316706  12.546   5.979   6.479  0.1105 -0.0214 -0.1463
 1332ERGO    R416707  12.736   5.779   6.575  0.1941  0.0574 -0.1559
 1332ERGO    R516708  12.555   5.844   6.676  0.1060 -0.1099 -0.2078
 1332ERGO    C116709  12.812   5.931   6.943 -0.0756 -0.0706 -0.0434
 1332ERGO    C216710  12.792   5.929   7.291 -0.3415 -0.0265  0.1862
 1333ERGO   ROH16711   1.088   8.031   5.974  0.1217 -0.0692  0.0776
 1333ERGO    R116712   0.919   8.079   6.196  0.0011 -0.0659 -0.0136
 1333ERGO    R216713   0.688   7.934   6.241  0.0522 -0.1613 -0.0598
 1333ERGO    R316714   0.802   7.889   6.484 -0.0324 -0.0129  0.0084
 1333ERGO    R416715   0.514   7.872   6.534 -0.0529 -0.0113 -0.0895
 1333ERGO    R516716   0.656   7.998   6.640 -0.1026  0.0635 -0.1075
 1333ERGO    C116717   0.520   7.794   6.931 -0.1934  0.2153 -0.0427
 1333ERGO    C216718   0.343   7.803   7.203 -0.1599 -0.0371 -0.1519
 1334ERGO   ROH16719  14.499   0.875   6.662 -0.2734 -0.0866  0.2033
 1334ERGO    R116720  14.597   0.884   6.928 -0.0333 -0.0490  0.1163
 1334ERGO    R216721  14.859   0.824   6.992  0.0478  0.0431 -0.1211
 1334ERGO    R316722  14.852   1.069   7.110  0.0710  0.0424 -0.1179
 1334ERGO    R416723  15.062   0.922   7.254  0.0551  0.0175 -0.1168
 1334ERGO    R516724  14.891   1.024   7.342  0.0633  0.0342 -0.1173
 1334ERGO    C116725  15.175   1.210   7.516  0.0810  0.0020 -0.1112
 1334ERGO    C216726  15.367   1.316   7.732 -0.0605  0.2465 -0.1630
 1335ERGO   ROH16727  13.911   8.993   6.129  0.0176  0.0186  0.0248
 1335ERGO    R116728  13.988   8.979   6.401  0.0084  0.0665  0.0318
 1335ERGO    R216729  13.951   9.189   6.578 -0.0091  0.0978  0.0024
 1335ERGO    R316730  13.822   9.000   6.724 -0.0079  0.1125  0.0183
 1335ERGO    R416731  13.856   9.226   6.908 -0.0459  0.1333 -0.0139
 1335ERGO    R516732  13.916   9.019   6.943 -0.0361  0.1489  0.0222
 1335ERGO    C116733  13.679   9.070   7.237 -0.0663  0.1675 -0.0084
 1335ERGO    C216734  13.588   8.968   7.557  0.0833 -0.2017  0.0270
 1336ERGO   ROH16735  16.079   6.446   6.347 -0.2031  0.1127 -0.0728
 1336ERGO    R116736  16.115   6.575   6.596 -0.2595  0.2079 -0.1152
 1336ERGO    R216737  15.909   6.613   6.775 -0.2071 -0.1233  0.0097
 1336ERGO    R316738  16.078   6.488   6.948  0.1221  0.1899 -0.0732
 1336ERGO    R416739  15.910   6.660   7.118 -0.1365 -0.1107  0.0088
 1336ERGO    R516740  16.129   6.656   7.112 -0.1146  0.3016 -0.1013
 1336ERGO    C116741  16.069   6.571   7.479  0.2137  0.1906 -0.0694
 1336ERGO    C216742  15.913   6.489   7.724  0.2610 -0.1894 -0.0182
 1337ERGO   ROH16743   2.555   9.713   5.609 -0.0011 -0.2446  0.0501
 1337ERGO    R116744   2.429   9.755   5.860 -0.0079 -0.0980  0.0239
 1337ERGO    R216745   2.363   9.548   6.030 -0.0910 -0.0079  0.1095
 1337ERGO    R316746   2.509   9.691   6.209 -0.0551  0.0207  0.0557
 1337ERGO    R416747   2.279   9.593   6.362 -0.0159  0.0449  0.1204
 1337ERGO    R516748   2.345   9.800   6.346 -0.0227  0.0395  0.0747
 1337ERGO    C116749   2.367   9.754   6.724  0.0614  0.1024  0.0763
 1337ERGO    C216750   2.488   9.624   7.099 -0.1995 -0.1396  0.0480
 1338ERGO   ROH16751   1.105  10.417   5.473 -0.1846  0.0525  0.0027
 1338ERGO    R116752   1.187  10.443   5.743 -0.0408 -0.0731 -0.0286
 1338ERGO    R216753   1.042  10.586   5.929  0.1627  0.0069  0.0650
 1338ERGO    R316754   1.054  10.353   6.069  0.0333 -0.0326  0.0142
 1338ERGO    R416755   0.930  10.544   6.254  0.0273 -0.0308  0.0154
 1338ERGO    R516756   1.105  10.420   6.293 -0.0253 -0.1005  0.0512
 1338ERGO    C116757   0.876  10.301   6.574 -0.1730 -0.0898 -0.0613
 1338ERGO    C216758   0.634  10.307   6.785 -0.0110  0.4154  0.3407
 1339ERGO   ROH16759  16.169   1.214   6.466 -0.2255 -0.0623  0.0527
 1339ERGO    R116760  16.114   1.314   6.726 -0.2525 -0.0671  0.0497
 1339ERGO    R216761  16.019   1.153   6.930 -0.1771 -0.0948  0.0685
 1339ERGO    R316762  16.235   1.251   7.063 -0.2071  0.0023  0.0453
 1339ERGO    R416763  16.052   1.161   7.274 -0.1691 -0.0064  0.0654
 1339ERGO    R516764  16.142   1.359   7.256 -0.2335  0.0145  0.0220
 1339ERGO    C116765  16.274   1.258   7.599 -0.1930  0.1363  0.0419
 1339ERGO    C216766  16.547   1.267   7.897 -0.0627  0.1045  0.3812
 1340ERGO   ROH16767   5.758  16.464   7.525  0.2120  0.5390  0.0168
 1340ERGO    R116768   5.981  16.344   7.652  0.1022  0.1952 -0.1023
 1340ERGO    R216769   6.175  16.206   7.512  0.0325  0.2412 -0.2598
 1340ERGO    R316770   6.343  16.378   7.639  0.1295 -0.0490  0.0150
 1340ERGO    R416771   6.519  16.172   7.527  0.0176  0.0548 -0.3380
 1340ERGO    R516772   6.511  16.237   7.735  0.0701 -0.2866 -0.2299
 1340ERGO    C116773   6.876  16.313   7.655  0.1000 -0.3261 -0.1256
 1340ERGO    C216774   7.273  16.351   7.578 -0.1881 -0.1217  0.2304
 1341ERGO   ROH16775   8.682  12.149   6.232  0.0995  0.2231 -0.0278
 1341ERGO    R116776   8.606  11.993   6.455  0.1148  0.1476 -0.0757
 1341ERGO    R216777   8.732  12.011   6.699  0.1214  0.0748 -0.0760
 1341ERGO    R316778   8.480  12.054   6.791  0.1228  0.0317 -0.0503
 1341ERGO    R416779   8.607  11.891   6.999  0.1578  0.0007 -0.0899
 1341ERGO    R516780   8.419  11.848   6.897  0.1529  0.0013 -0.0870
 1341ERGO    C116781   8.298  11.862   7.259  0.1804 -0.0829 -0.0739
 1341ERGO    C216782   8.364  11.809   7.593 -0.1724 -0.2929  0.0362
 1342ERGO   ROH16783   3.388   9.160   5.588 -0.0644 -0.0028 -0.0708
 1342ERGO    R116784   3.256   9.128   5.836  0.0494 -0.1172 -0.0226
 1342ERGO    R216785   3.339   8.947   6.028  0.1369 -0.2108 -0.1425
 1342ERGO    R316786   3.341   9.166   6.188  0.2149 -0.2828 -0.0447
 1342ERGO    R416787   3.310   8.941   6.372 -0.0010 -0.3373 -0.1555
 1342ERGO    R516788   3.182   9.117   6.360  0.1184 -0.2528 -0.1288
 1342ERGO    C116789   3.296   9.144   6.723 -0.0081 -0.4785 -0.0713
 1342ERGO    C216790   3.353   9.306   7.065 -0.0548 -0.2023 -0.1296
 1343ERGO   ROH16791   4.773  16.968   6.489  0.2101 -0.1053 -0.0798
 1343ERGO    R116792   4.686  17.003   6.756  0.1453  0.0090 -0.1165
 1343ERGO    R216793   4.756  16.830   6.959 -0.1249 -0.0547 -0.0824
 1343ERGO    R316794   4.841  17.058   7.080  0.0804 -0.1410 -0.0565
 1343ERGO    R416795   4.857  16.853   7.289 -0.0394 -0.2104 -0.0958
 1343ERGO    R516796   4.753  17.044   7.302  0.1083 -0.1224 -0.0373
 1343ERGO    C116797   4.995  17.080   7.595  0.2031 -0.3818 -0.0792
 1343ERGO    C216798   5.222  16.922   7.831  0.0660  0.0683 -0.1999
 1344ERGO   ROH16799   4.310  10.054   5.960  0.3503 -0.2432  0.0772
 1344ERGO    R116800   4.349  10.123   6.231  0.2020 -0.1408  0.0731
 1344ERGO    R216801   4.275  10.368   6.335  0.0858 -0.1274 -0.0449
 1344ERGO    R316802   4.138  10.216   6.513  0.0426 -0.1023 -0.0562
 1344ERGO    R416803   4.165  10.477   6.644  0.1754 -0.1333 -0.0106
 1344ERGO    R516804   4.223  10.284   6.727  0.1032 -0.1770 -0.0538
 1344ERGO    C116805   3.973  10.397   6.992  0.1870 -0.1132 -0.0011
 1344ERGO    C216806   3.875  10.511   7.284  0.0931 -0.2157 -0.2413
 1345ERGO   ROH16807   4.649  11.904   5.958  0.0578  0.0374  0.0183
 1345ERGO    R116808   4.667  11.639   6.056  0.1061 -0.0200 -0.1440
 1345ERGO    R216809   4.907  11.523   6.128  0.1106  0.0311 -0.0774
 1345ERGO    R316810   4.778  11.477   6.362 -0.0113 -0.1755 -0.1821
 1345ERGO    R416811   5.014  11.303   6.372  0.0334 -0.1162 -0.1746
 1345ERGO    R516812   4.807  11.242   6.401  0.0325 -0.1969 -0.3359
 1345ERGO    C116813   4.955  11.132   6.735 -0.1259 -0.3957 -0.3295
 1345ERGO    C216814   4.825  11.039   6.993 -0.0875 -0.0910 -0.1713
 1346W        W16815   4.005  11.307   4.567  0.3214 -0.0595 -0.0430
 1347W        W16816   7.896   8.483   4.484 -0.3035  0.2008  0.0711
 1348W        W16817  16.212  17.335   0.159 -0.2035 -0.0929 -0.0915
 1349W        W16818  13.865  17.775  12.491 -0.3780 -0.2110 -0.2163
 1350W        W16819  14.119   3.218  14.568 -0.0673 -0.1364 -0.1123
 1351W        W16820   0.269  14.712   4.512 -0.1764 -0.1981 -0.1104
 1352W        W16821   4.424   7.761  14.907 -0.0144 -0.2900 -0.0378
 1353W        W16822   1.604  17.060  14.552 -0.0151  0.2131 -0.2450
 1354W        W16823   3.161   9.026   5.112 -0.1515  0.0104 -0.0037
 1355W        W16824  14.848   4.077   1.041  0.0658  0.1221  0.1271
 1356W        W16825   8.499  13.819   2.253  0.1160  0.2244  0.0805
 1357W        W16826  11.318   0.247  13.843 -0.1958  0.0972 -0.1614
 1358W        W16827  11.452   3.199   2.770 -0.0302 -0.0851 -0.3988
 1359W        W16828   3.430  17.723  12.281 -0.0776  0.1396 -0.2067
 1360W        W16829   3.574   5.431   1.804 -0.2549 -0.0280 -0.1315
 1361W        W16830  13.903  15.114   4.524 -0.0698 -0.2378  0.1254
 1362W        W16831  18.193  17.649   1.140  0.2255 -0.0107 -0.0412
 1363W        W16832   8.048  10.487  12.844  0.1914  0.1394 -0.0095
 1364W        W16833  17.486   7.114  11.232  0.1871 -0.2045 -0.1839
 1365W        W16834  11.276   6.520   1.720 -0.2128 -0.4553 -0.1260
 1366W        W16835   6.887   6.100  11.841  0.1055 -0.1865 -0.3574
 1367W        W16836  15.618  15.558  15.100 -0.0455  0.0691  0.2054
 1368W        W16837  13.396   1.018  13.359  0.0820  0.1616 -0.1085
 1369W        W16838  15.694   8.025  11.079  0.0807  0.0712 -0.0439
 1370W        W16839   6.819   5.437   0.608 -0.1486  0.4061  0.1190
 1371W        W16840   0.352  12.879  10.483 -0.0153 -0.1647  0.0956
 1372W        W16841   9.376   1.171  12.110 -0.3642  0.4053 -0.1549
 1373W        W16842  15.522  18.054   2.174  0.2868 -0.1517  0.0313
 1374W        W16843   7.990   0.639  13.055 -0.0164 -0.1278  0.2092
 1375W        W16844  11.018  10.822  13.484 -0.0148 -0.0856 -0.1706
 1376W        W16845  14.615  11.170  12.820 -0.4627  0.0550 -0.1386
 1377W        W16846  12.940   2.440  13.607  0.1205 -0.0352 -0.0468
 1378W        W16847   8.926   5.573   1.600 -0.2949 -0.0935  0.2542
 1379W        W16848   8.766   2.999   3.185  0.0365 -0.1362 -0.0746
 1380W        W16849   8.264  14.055  15.764  0.3707 -0.0754  0.0456
 1381W        W16850  17.289  15.934  13.138 -0.0620  0.0576  0.2685
 1382W        W16851  11.759   0.889  12.417 -0.1875 -0.1340 -0.0592
 1383W        W16852  18.601  10.709  15.213 -0.1541 -0.0666  0.1827
 1384W        W16853  15.090  14.212   2.918 -0.1278 -0.1317 -0.3309
 1385W        W16854   6.614  11.196  15.775  0.1240 -0.0847  0.1366
 1386W        W16855   0.415  14.596  10.772  0.2139 -0.2199 -0.0272
 1387W        W16856   5.806   8.616   4.429  0.0481 -0.1712 -0.1117
 1388W        W16857  14.563  16.043   4.922  0.2679  0.1768  0.0350
 1389W        W16858  10.259   6.185  13.906  0.0493  0.0313  0.2815
 1390W        W16859  16.758   1.429   4.947 -0.1719  0.1226  0.0312
 1391W        W16860   4.059   4.068   4.129  0.3215  0.0871 -0.0885
 1392W        W16861  18.265   6.923  13.054 -0.1945 -0.1401 -0.2082
 1393W        W16862   1.104   2.445  14.631 -0.3036 -0.0491  0.0112
 1394W        W16863   1.024  12.739   2.479 -0.1410  0.1707  0.5088
 1395W        W16864  16.409  17.711  15.583  0.1584  0.1765  0.0658
 1396W        W16865  14.119  10.141   4.789 -0.2068 -0.0253  0.1084
 1397W        W16866  11.856   9.586  13.885 -0.0574  0.1773 -0.1229
 1398W        W16867  10.132  13.574   4.394  0.0376 -0.2305  0.0579
 1399W        W16868  12.017  16.730   5.887  0.0951  0.0854 -0.0922
 1400W        W16869   0.820   9.934   3.147  0.1738  0.0346 -0.0824
 1401W        W16870   7.676  18.608   2.935 -0.1247  0.1076 -0.4942
 1402W        W16871  11.780  16.184   1.057 -0.0655 -0.0573 -0.0483
 1403W        W16872   9.657  13.792   0.691 -0.0897 -0.1024  0.1788
 1404W        W16873   3.240  14.975   1.481 -0.0507 -0.3208  0.0329
 1405W        W16874   0.152   1.279   0.938  0.0542  0.2057  0.3063
 1406W        W16875  18.273   0.329   1.087  0.0768 -0.1098  0.1612
 1407W        W16876  13.401  14.674   0.138 -0.2656  0.1639 -0.2548
 1408W        W16877  11.682   8.311  12.805 -0.1459 -0.2656  0.1738
 1409W        W16878  16.538  18.171  15.620  0.0630 -0.0476 -0.0508
 1410W        W16879  12.430   3.913   0.333 -0.3434 -0.1476 -0.2246
 1411W        W16880  17.064  12.091   3.209 -0.0860  0.0536 -0.3793
 1412W        W16881   4.557  14.833   0.978  0.0982 -0.1219  0.0868
 1413W        W16882  16.086   5.331  13.424  0.0326 -0.1930 -0.0852
 1414W        W16883  10.165  16.550  11.887  0.2148  0.1584 -0.0815
 1415W        W16884   7.861  15.926  15.653  0.0673  0.1876 -0.1928
 1416W        W16885   1.183  17.131   3.715 -0.0385 -0.1835 -0.2355
 1417W        W16886   8.118   1.813   4.487 -0.1458  0.4210 -0.2439
 1418W        W16887   9.212  14.971   0.002  0.0754  0.3020 -0.1355
 1419W        W16888   7.282   2.355  10.719 -0.0793  0.0700  0.1265
 1420W        W16889   4.548  12.257   1.077  0.1532 -0.1108 -0.2917
 1421W        W16890  10.721  10.101  13.220 -0.0729  0.1020 -0.0856
 1422W        W16891   6.078   7.238   3.787  0.0108 -0.2086 -0.0602
 1423W        W16892  10.580   3.424   6.290 -0.3253 -0.2483  0.0552
 1424W        W16893  17.977  18.223  11.299 -0.3083 -0.1982  0.1314
 1425W        W16894   2.416   0.470  12.270  0.1426 -0.2469 -0.0384
 1426W        W16895   9.134  13.368   5.446 -0.1215  0.0630 -0.0233
 1427W        W16896   0.332   3.704  13.470 -0.1103 -0.1525  0.1878
 1428W        W16897   1.965   7.660  10.977 -0.1511  0.0115 -0.3695
 1429W        W16898  11.663   2.936   1.910 -0.0672  0.2328  0.0232
 1430W        W16899   9.715   7.964   5.290  0.2688  0.1000 -0.0677
 1431W        W16900   2.568  11.356   0.294 -0.0220 -0.0446  0.2106
 1432W        W16901  17.179   8.212   1.579 -0.1165 -0.0920  0.1276
 1433W        W16902   8.454   2.608   2.338  0.0792  0.0418  0.0476
 1434W        W16903   8.952  13.763   4.220 -0.1732 -0.1591 -0.1779
 1435W        W16904  15.263   3.697   2.971 -0.2836  0.0131  0.1508
 1436W        W16905  11.350  10.185  15.444 -0.0087  0.2735 -0.0289
 1437W        W16906   3.640   0.058   1.264 -0.3046 -0.1596  0.1346
 1438W        W16907   5.360  16.053  11.596  0.4631 -0.1715  0.6413
 1439W        W16908   3.425  14.943  11.553  0.1017 -0.1306  0.1627
 1440W        W16909   1.424  13.791   1.055 -0.2206  0.0415  0.0997
 1441W        W16910   1.153   0.162  11.111  0.2377 -0.2589  0.4087
 1442W        W16911  13.708   7.932   4.225  0.2201  0.0724 -0.0208
 1443W        W16912  17.944  17.711   5.746 -0.2426  0.1607 -0.0246
 1444W        W16913   4.302   6.366  10.769 -0.3149  0.0224 -0.3729
 1445W        W16914  10.593   4.133  15.662  0.4928  0.4515 -0.0240
 1446W        W16915  11.661  14.013   5.322 -0.2380  0.0400 -0.1752
 1447W        W16916   9.252   4.465   5.806  0.0545  0.0113 -0.0516
 1448W        W16917  10.101  18.105   3.767  0.1785  0.1761  0.0490
 1449W        W16918   9.438  14.704  13.202 -0.0709  0.0722  0.1685
 1450W        W16919  10.751   8.978  14.571  0.1149 -0.3131 -0.0406
 1451W        W16920   9.223  12.334   2.740 -0.1781  0.2003 -0.1435
 1452W        W16921  15.212  13.007  10.992  0.1462 -0.0227  0.3899
 1453W        W16922  13.556   8.901   3.298 -0.0933  0.0230 -0.0023
 1454W        W16923  16.750   4.267  12.698 -0.1525 -0.1069 -0.1528
 1455W        W16924   9.058  12.889  10.717  0.0713 -0.0443  0.1051
 1456W        W16925   6.922   6.943  12.914  0.1399 -0.0988  0.1113
 1457W        W16926  18.214  13.360  11.089  0.3539 -0.4848 -0.1596
 1458W        W16927   0.209  18.146  10.471  0.0533  0.2188  0.1827
 1459W        W16928   6.624  17.091   3.211 -0.1877  0.0023  0.1769
 1460W        W16929   2.463   6.617   0.024 -0.0919 -0.2363 -0.2308
 1461W        W16930   7.755   8.706  15.609 -0.3530  0.2285 -0.2263
 1462W        W16931  12.730  11.399  12.765 -0.0184 -0.0869  0.1046
 1463W        W16932   5.399  17.152   3.735  0.1208 -0.3400  0.2502
 1464W        W16933   4.865  14.702   0.622  0.1751 -0.1291  0.2095
 1465W        W16934   9.039  15.769   1.973  0.0595 -0.0315  0.1894
 1466W        W16935   7.431  16.737   3.984 -0.0546  0.1143 -0.3074
 1467W        W16936   1.931   9.678  12.061  0.2550  0.0990 -0.1196
 1468W        W16937   3.238   9.122   3.906  0.1284  0.1014 -0.0932
 1469W        W16938  12.889   5.642  12.416 -0.0402  0.1113  0.1317
 1470W        W16939  13.514   8.933   5.176 -0.2073 -0.1934  0.2363
 1471W        W16940  10.107   7.070  12.098 -0.2747  0.1040 -0.2164
 1472W        W16941   3.869  16.504   4.024  0.2439  0.0751 -0.2103
 1473W        W16942  10.829  17.941  14.244  0.0648  0.1179 -0.0892
 1474W        W16943  11.526  11.801  13.091  0.1148  0.1198 -0.0070
 1475W        W16944   7.163   0.828  13.975 -0.2697  0.0391  0.1752
 1476W        W16945  15.995   2.517  13.074 -0.0536 -0.1181  0.0539
 1477W        W16946   7.583   3.553  12.325  0.1165  0.0423  0.0554
 1478W        W16947  12.569  15.569  11.210  0.3265  0.0269  0.1631
 1479W        W16948   3.723  13.815  13.050 -0.2727 -0.0205  0.0495
 1480W        W16949   4.207  13.069  13.907  0.2814 -0.0399 -0.0089
 1481W        W16950   9.340   7.843   3.733  0.0105  0.0660  0.0588
 1482W        W16951   8.214   2.173   2.356  0.1035  0.0402 -0.0029
 1483W        W16952   4.164   3.348  13.236 -0.0596 -0.1473 -0.1889
 1484W        W16953   5.862  10.655   2.664  0.1745 -0.2697 -0.1578
 1485W        W16954  10.937   9.942  13.979 -0.1747 -0.0585  0.2632
 1486W        W16955  13.470  13.594  14.661 -0.1067  0.0249 -0.0807
 1487W        W16956  12.584  15.199  10.842  0.1715  0.1778 -0.0528
 1488W        W16957   3.023  12.069  10.587 -0.0336  0.0556 -0.0013
 1489W        W16958   1.658  17.110   2.560 -0.0415  0.0793 -0.1892
 1490W        W16959  10.778   6.141   3.731  0.4301 -0.0844 -0.1050
 1491W        W16960  18.397   3.574  13.532 -0.2717 -0.2451 -0.1645
 1492W        W16961   8.107  16.712  11.731  0.0787  0.2364 -0.0533
 1493W        W16962   6.128  14.151   2.868  0.4436  0.1359 -0.0321
 1494W        W16963   4.784  13.373   1.425 -0.1224 -0.0182 -0.2936
 1495W        W16964   5.149   7.880  11.925  0.2589 -0.0397  0.3245
 1496W        W16965   4.374  13.187  11.608 -0.0873 -0.1305 -0.1986
 1497W        W16966   5.473   2.289  13.698  0.2758  0.2158  0.1323
 1498W        W16967  12.615  12.391   1.992 -0.1560  0.1691  0.1873
 1499W        W16968   5.577   0.973   3.254 -0.0735 -0.2499 -0.2830
 1500W        W16969   2.464  14.023   5.068 -0.0721 -0.1139 -0.0126
 1501W        W16970  18.564   5.482   4.208 -0.0299 -0.0011  0.2834
 1502W        W16971   1.781   2.822   1.089  0.3903 -0.3195  0.6137
 1503W        W16972   1.189  11.374  13.681  0.0725 -0.1057 -0.0474
 1504W        W16973  17.391  11.608  15.482 -0.0293 -0.1749  0.0599
 1505W        W16974   9.597  16.995  13.664 -0.1055  0.1268  0.2237
 1506W        W16975   9.064  10.219  11.364 -0.0847 -0.3304  0.4312
 1507W        W16976  10.537   8.052  13.940 -0.0275  0.0219 -0.1654
 1508W        W16977  12.601  18.595  14.238  0.1041  0.0057 -0.3343
 1509W        W16978   5.235   7.785  12.488  0.0705 -0.0325 -0.1437
 1510W        W16979   0.119  14.023   3.876 -0.2379  0.0263  0.1191
 1511W        W16980  17.603  13.865   2.342 -0.0373  0.0633 -0.0041
 1512W        W16981   7.563   7.464  11.368 -0.1081  0.0921 -0.1097
 1513W        W16982   1.459   8.759   2.197  0.2174 -0.2467  0.0281
 1514W        W16983   2.463  11.330   0.934  0.1467 -0.0046 -0.0671
 1515W        W16984   2.467  17.706  11.175  0.2789  0.2420 -0.2995
 1516W        W16985  11.824   6.940   3.268  0.1430  0.1776  0.0451
 1517W        W16986   5.391  12.173  11.622 -0.2096  0.0899  0.1289
 1518W        W16987   0.023  11.740   4.965 -0.2644 -0.0687 -0.3501
 1519W        W16988   1.425  18.116  15.502  0.3998 -0.1887  0.0669
 1520W        W16989   3.583  12.709   1.905  0.0046  0.0880  0.1445
 1521W        W16990  12.776   0.073   0.754 -0.2681  0.0858  0.0188
 1522W        W16991   3.241  17.869   1.670 -0.2138 -0.1249 -0.1905
 1523W        W16992   6.699   6.990  15.251  0.0758  0.0738  0.0511
 1524W        W16993   7.446  15.539   2.140  0.1250 -0.0958 -0.1963
 1525W        W16994   9.250   4.187   3.925 -0.1154  0.1392 -0.2947
 1526W        W16995   5.954   0.676   4.134  0.1345  0.3883  0.0729
 1527W        W16996   0.584  10.698  13.719 -0.1138 -0.2479 -0.0619
 1528W        W16997  17.694  12.466   3.349 -0.2342  0.1101  0.1208
 1529W        W16998   4.509  10.319  12.772  0.1240  0.3143  0.3293
 1530W        W16999   0.679   8.083  13.233  0.2438  0.1496 -0.0650
 1531W        W17000   0.478   0.549  10.668 -0.1578  0.0405 -0.2962
 1532W        W17001   5.078  14.692  10.948  0.2738 -0.0319 -0.0162
 1533W        W17002  12.090  17.827  14.847 -0.2651 -0.2012 -0.2012
 1534W        W17003   4.849  16.618  11.121  0.1024  0.1903  0.1752
 1535W        W17004  13.367  17.917  12.445  0.0350  0.1288  0.3975
 1536W        W17005  17.324  12.763   0.625  0.3036  0.4112 -0.2757
 1537W        W17006   7.888  12.819  11.703 -0.0288  0.2056 -0.2021
 1538W        W17007   1.518   8.217  14.705 -0.2123 -0.1678 -0.0698
 1539W        W17008  15.660   3.084   1.700  0.1555 -0.2845  0.2418
 1540W        W17009   0.731  17.666  13.212 -0.0961  0.0016 -0.1553
 1541W        W17010   1.228   5.186  14.730  0.0240 -0.2207  0.0398
 1542W        W17011   9.903  16.153  13.437 -0.2273 -0.0498 -0.0716
 1543W        W17012  10.278  13.715   5.932 -0.1253 -0.1434  0.0832
 1544W        W17013  17.337  11.206  15.264  0.0459 -0.1046  0.3990
 1545W        W17014   1.838   2.483  11.493  0.0251 -0.1251  0.4773
 1546W        W17015  11.553  18.473   4.607 -0.0224 -0.2712  0.0444
 1547W        W17016   4.527  13.019   5.884  0.3311 -0.2653 -0.0281
 1548W        W17017   7.020   2.962  13.729  0.0396  0.0577 -0.1771
 1549W        W17018   0.987   7.576  15.129  0.0645 -0.4418  0.1416
 1550W        W17019  16.961  15.565   5.204  0.3427 -0.2873  0.0476
 1551W        W17020  15.965   9.459   2.542  0.0115 -0.0939 -0.2764
 1552W        W17021  16.276   2.539   3.703 -0.1455  0.1638  0.2405
 1553W        W17022   7.943  11.052   2.950 -0.0179 -0.3778 -0.0177
 1554W        W17023  15.142   2.234  15.320  0.1765 -0.2560 -0.0274
 1555W        W17024  18.549  17.386   0.274 -0.3418  0.1950  0.2416
 1556W        W17025   6.046   7.305   0.414  0.0403 -0.2729 -0.1162
 1557W        W17026   3.851   9.750  13.811 -0.2686 -0.1587 -0.1662
 1558W        W17027   1.559   5.725  11.783 -0.3745  0.0596  0.3785
 1559W        W17028   8.112   8.706   1.846 -0.2206  0.0383  0.2667
 1560W        W17029   3.294  18.342   3.115  0.0442  0.2070  0.1657
 1561W        W17030  12.874  15.586   6.710 -0.4823 -0.1656  0.1548
 1562W        W17031   2.779  17.927  13.075  0.0039 -0.0037 -0.4752
 1563W        W17032   4.594   1.911   3.832 -0.2162  0.1346 -0.0513
 1564W        W17033   1.818  15.138   3.734 -0.2597  0.0510 -0.0737
 1565W        W17034   0.572  15.457   4.388 -0.0421 -0.0744 -0.2709
 1566W        W17035  12.503   8.369   2.374  0.0541  0.0889 -0.1354
 1567W        W17036   1.185   8.052   3.871 -0.2344  0.2040  0.2391
 1568W        W17037  17.587   6.266  10.017 -0.3822  0.0660 -0.1383
 1569W        W17038  18.500   1.538  15.263 -0.1621  0.0895 -0.0779
 1570W        W17039   9.858  14.609  14.486 -0.0252  0.2234 -0.0428
 1571W        W17040   8.586   6.809   5.067  0.1679  0.0041  0.4098
 1572W        W17041  12.331   5.637  12.474 -0.2821  0.3848  0.1598
 1573W        W17042   7.457   0.812  15.671  0.0261 -0.1533 -0.0323
 1574W        W17043   8.983  14.062  10.257 -0.2645  0.4099 -0.1430
 1575W        W17044   7.235   3.493  12.683 -0.0481  0.4477  0.2014
 1576W        W17045   6.358   0.187   0.133 -0.0319  0.0278  0.1142
 1577W        W17046   6.343  12.384   2.441 -0.0899 -0.1274 -0.3696
 1578W        W17047  15.281  18.212   3.749  0.1442 -0.0281  0.3959
 1579W        W17048   9.175  11.582  12.115 -0.0766  0.0201  0.1153
 1580W        W17049   2.117  12.445  13.738  0.0822  0.1375  0.0944
 1581W        W17050  17.684  17.993  14.385 -0.0597 -0.0470  0.3965
 1582W        W17051   1.517   1.412   4.720  0.2619  0.1111 -0.2575
 1583W        W17052  15.479   2.332  13.196 -0.1280  0.1124 -0.2427
 1584W        W17053   7.784   5.637  11.624 -0.1070  0.4717 -0.2696
 1585W        W17054   1.983   4.875  11.351 -0.0139  0.0545  0.3024
 1586W        W17055   3.044  11.548   4.834 -0.1933 -0.2183 -0.1480
 1587W        W17056  14.913   2.077   4.582 -0.2994  0.1017 -0.5221
 1588W        W17057   3.397  13.475  14.859  0.0650  0.0094  0.0235
 1589W        W17058   7.191   3.408  14.238  0.2951 -0.2181 -0.1427
 1590W        W17059   2.766  13.247   1.965 -0.0257  0.0131  0.1941
 1591W        W17060   6.154   9.589   4.536 -0.1046  0.0003  0.1991
 1592W        W17061   7.746  17.466   1.617 -0.0502  0.0615 -0.3290
 1593W        W17062   8.607   3.924  12.761  0.3769 -0.1311  0.0260
 1594W        W17063   5.027   1.836  10.342 -0.0654 -0.1044  0.3314
 1595W        W17064   9.584   3.713   5.562 -0.1017 -0.0493 -0.1478
 1596W        W17065  10.224   2.386   0.472 -0.0752 -0.0119 -0.0046
 1597W        W17066  14.032  15.639  14.967 -0.0041  0.1939 -0.3439
 1598W        W17067  14.607   6.378  13.192 -0.1523 -0.1760 -0.1383
 1599W        W17068   7.315   6.059   2.203  0.1711 -0.0165  0.2355
 1600W        W17069  11.984  15.729   1.116 -0.0421 -0.2017  0.0563
 1601W        W17070  16.507   1.644  12.620 -0.1514 -0.1917  0.2255
 1602W        W17071  10.262  18.202  14.493 -0.1560 -0.1024  0.0165
 1603W        W17072   5.883   3.554  15.353 -0.3268  0.2251  0.1043
 1604W        W17073  16.658  14.611   0.356 -0.1417  0.0169 -0.1388
 1605W        W17074  13.695   9.397  13.487 -0.0331 -0.0139  0.2124
 1606W        W17075   4.541   7.732  12.116  0.0178  0.0255 -0.1246
 1607W        W17076   5.097  12.611   0.579  0.1696  0.0846 -0.0396
 1608W        W17077   8.220   4.749   1.948  0.0679 -0.3271  0.2168
 1609W        W17078  16.312   5.068   0.052  0.1119  0.1482  0.2504
 1610W        W17079   8.691   4.390   0.014 -0.0169  0.0027 -0.0668
 1611W        W17080   5.445  14.963  13.695 -0.0450  0.2076 -0.0086
 1612W        W17081  11.584  14.544  15.609  0.1873  0.3725 -0.1480
 1613W        W17082   0.561  16.467   2.939  0.2361 -0.1146 -0.0672
 1614W        W17083  14.984   9.563   1.381  0.1631  0.0993 -0.3605
 1615W        W17084  18.231   4.816  10.306 -0.0409 -0.0817 -0.1123
 1616W        W17085  17.180  12.345  15.118 -0.2545  0.0896  0.0581
 1617W        W17086  10.669   6.704   2.378  0.1159  0.0258  0.0716
 1618W        W17087   7.277  17.929  14.905  0.1462  0.2557 -0.0369
 1619W        W17088   8.320   0.647   2.672 -0.1654 -0.1303 -0.2881
 1620W        W17089  17.236  14.294  10.704  0.0738 -0.0981 -0.0197
 1621W        W17090   6.644   5.203   0.173 -0.3847 -0.0150  0.2266
 1622W        W17091   4.339   2.779   4.057  0.0363  0.1289  0.0577
 1623W        W17092  18.006  15.983   4.585 -0.0605 -0.1031 -0.0333
 1624W        W17093   6.156   9.941  11.154 -0.1517 -0.3228 -0.0585
 1625W        W17094  13.190   0.345  15.328 -0.1018  0.3242  0.0004
 1626W        W17095   5.949   7.347   1.425 -0.1013 -0.1788  0.0309
 1627W        W17096   5.928  13.403   4.459  0.1606 -0.2039  0.1144
 1628W        W17097   3.825   3.409  13.558  0.0458  0.0200  0.2210
 1629W        W17098  16.486  17.209  12.467 -0.1966 -0.1620  0.1663
 1630W        W17099   6.129   0.730  12.187 -0.0208 -0.3520 -0.3227
 1631W        W17100  17.209   2.039  12.083 -0.0943  0.0331  0.1174
 1632W        W17101  11.507  16.354  14.374 -0.3870  0.1049 -0.2205
 1633W        W17102   5.142  11.442  11.666  0.1333 -0.0539 -0.1083
 1634W        W17103   2.190  17.158  13.429 -0.2386 -0.1699  0.1846
 1635W        W17104  16.130   5.470  11.356 -0.0159 -0.2321  0.0498
 1636W        W17105   3.512  15.516   5.093 -0.2224 -0.0995  0.2292
 1637W        W17106  15.244  11.560  14.564 -0.1256 -0.0541  0.2520
 1638W        W17107   6.286  14.749   2.184 -0.2224 -0.1305  0.1948
 1639W        W17108  10.907   8.762  13.748 -0.0996  0.0236  0.1133
 1640W        W17109  17.881   6.813   1.022  0.1276 -0.1059 -0.0180
 1641W        W17110   4.846  15.360   0.603 -0.2469  0.2296 -0.3408
 1642W        W17111  17.883  17.876   3.545 -0.0549  0.0470 -0.0238
 1643W        W17112  14.173   9.242   9.506 -0.2210  0.1953  0.0185
 1644W        W17113  12.657  13.347  10.766 -0.1042  0.0868  0.1005
 1645W        W17114  14.439  16.064  15.098 -0.3370  0.0297 -0.1382
 1646W        W17115  14.588   1.050  14.494  0.4808 -0.1001  0.0254
 1647W        W17116  16.339  17.287  13.463  0.1605  0.4241 -0.4343
 1648W        W17117  17.296   1.621   2.461  0.2949  0.7379 -0.0929
 1649W        W17118  14.313  14.128  14.385 -0.1494 -0.0213 -0.3163
 1650W        W17119   2.351   5.224  11.481 -0.0553 -0.1190 -0.0436
 1651W        W17120   1.289   7.699   4.728  0.0485 -0.1230 -0.1330
 1652W        W17121  13.480   6.141  12.031  0.0147 -0.1757  0.1489
 1653W        W17122  12.249  13.783  10.029 -0.0019  0.2220 -0.0275
 1654W        W17123   3.026   7.776   2.101  0.2278 -0.0662  0.2372
 1655W        W17124   1.450  15.392   1.523 -0.2704  0.0313 -0.0396
 1656W        W17125  11.709  13.272  11.935  0.0754 -0.0643  0.2465
 1657W        W17126  10.512   9.865  11.552 -0.1853 -0.3412  0.0048
 1658W        W17127  12.027   7.646   3.604 -0.0632  0.0808  0.0496
 1659W        W17128  12.642   0.275  11.489 -0.0372 -0.0766 -0.0340
 1660W        W17129   0.317  14.984   0.823  0.0224 -0.0274 -0.1360
 1661W        W17130  17.470  12.076  14.771  0.2708 -0.4058 -0.0441
 1662W        W17131  17.215  14.103  11.586 -0.2308  0.1274  0.3621
 1663W        W17132   7.816  17.064   0.113 -0.0543  0.0922  0.1318
 1664W        W17133  14.753  16.673  12.768  0.1129 -0.1054  0.1539
 1665W        W17134   0.566  10.687   2.210 -0.4304 -0.0102  0.1150
 1666W        W17135  15.259  11.052   5.290  0.0459  0.0529  0.1454
 1667W        W17136   5.362   6.195   3.097 -0.2027  0.3211  0.2188
 1668W        W17137  12.338  18.191  14.534 -0.2653  0.1972  0.1916
 1669W        W17138   2.751  14.746   0.645 -0.0700  0.0948 -0.0462
 1670W        W17139  16.054  14.143  12.994  0.0472  0.1251  0.1442
 1671W        W17140   0.925  10.318   0.521  0.1657 -0.0348 -0.2619
 1672W        W17141  17.851  16.621  15.368 -0.0462  0.1987  0.1433
 1673W        W17142  15.986   5.882  15.291 -0.0556  0.1017  0.1494
 1674W        W17143  15.015   9.408   0.027  0.1779  0.0298  0.2974
 1675W        W17144   7.335  18.167   4.412 -0.1153  0.1052 -0.1210
 1676W        W17145   4.745   4.070   3.669 -0.1149 -0.1890 -0.1283
 1677W        W17146  13.712   2.847   1.657  0.2261 -0.2011  0.0215
 1678W        W17147   5.444  15.031   1.780 -0.3860 -0.4422  0.0201
 1679W        W17148  15.289  14.715   2.743 -0.2162  0.1165 -0.2494
 1680W        W17149  17.427   3.869  10.377 -0.2227  0.2570  0.1195
 1681W        W17150  16.493   1.096  11.986  0.1577  0.3579 -0.3076
 1682W        W17151   9.844  12.864  15.205 -0.1537  0.1101 -0.0760
 1683W        W17152   3.589  17.956  10.929  0.3893  0.4022 -0.2640
 1684W        W17153   7.924   2.489   0.961  0.0793 -0.2034 -0.1153
 1685W        W17154  12.512  17.717  15.131 -0.2013  0.0425 -0.0385
 1686W        W17155  16.552   0.232   0.235 -0.2954 -0.1969  0.0320
 1687W        W17156  11.357  16.999   1.162  0.2701 -0.5047 -0.0206
 1688W        W17157  15.752   5.271  10.714  0.2016  0.0954  0.1649
 1689W        W17158  11.003  12.843   2.948  0.2953 -0.1278 -0.4103
 1690W        W17159  14.354  18.071   4.915  0.0308  0.0093  0.1026
 1691W        W17160  16.374  17.762  10.265  0.1615  0.1625  0.0891
 1692W        W17161  13.778   8.525  11.391  0.0188  0.2764 -0.0670
 1693W        W17162   8.642   7.869  10.805 -0.0678  0.1895  0.0959
 1694W        W17163   4.262  15.008   4.655  0.2058 -0.3217 -0.1878
 1695W        W17164   5.799   2.652  13.482  0.0945 -0.0086 -0.0083
 1696W        W17165  17.023   0.420  13.071 -0.1051  0.1192  0.1427
 1697W        W17166   9.851   6.776  14.816  0.2656 -0.2736  0.2364
 1698W        W17167   6.338   6.554  15.018 -0.0478 -0.0352  0.2159
 1699W        W17168  17.867   2.948   0.636 -0.0272 -0.1047  0.2327
 1700W        W17169  15.345   2.008   2.198 -0.2568 -0.2337  0.1251
 1701W        W17170  11.831   6.011  12.717 -0.0410  0.2377  0.1279
 1702W        W17171   5.760   6.382   2.777  0.1037  0.1796  0.1119
 1703W        W17172  17.471   5.636   5.449  0.0790  0.0752 -0.1583
 1704W        W17173   9.824   6.227  12.833 -0.2805  0.0869 -0.3088
 1705W        W17174  15.998   0.563  11.142  0.2437  0.3278 -0.0489
 1706W        W17175  17.031  16.289   4.789  0.0852  0.0491  0.1910
 1707W        W17176   9.556  12.009   0.336 -0.0755  0.1813 -0.0668
 1708W        W17177  14.623  12.846  13.281 -0.2402  0.2375  0.1374
 1709W        W17178   3.064  16.819  13.866 -0.1085 -0.2460 -0.0703
 1710W        W17179  17.272   8.416  13.872  0.1806 -0.1456  0.3536
 1711W        W17180  11.511  16.521  15.280  0.2418 -0.1137 -0.4199
 1712W        W17181   3.976   1.723  15.003  0.1073 -0.3272 -0.0129
 1713W        W17182   8.348  14.451   4.031  0.1369  0.1223  0.0430
 1714W        W17183  12.254   3.396  13.839 -0.4160 -0.0559 -0.2758
 1715W        W17184   2.411  10.196   2.388 -0.0565 -0.0261 -0.1228
 1716W        W17185   3.172  10.556   4.254  0.0394  0.0106 -0.1987
 1717W        W17186   0.439   1.921   4.203  0.1513 -0.2205 -0.2611
 1718W        W17187  16.961   4.767   4.347  0.1143 -0.1454  0.3586
 1719W        W17188  15.662   8.217  12.032 -0.2569  0.0043  0.1807
 1720W        W17189   6.282  14.642   3.124  0.1709 -0.2388 -0.0956
 1721W        W17190  16.459  11.485   5.368 -0.2622 -0.0707 -0.3770
 1722W        W17191  16.218  16.545   4.268 -0.0421 -0.2174  0.0786
 1723W        W17192   5.673   9.540  13.288 -0.3447 -0.2014  0.1062
 1724W        W17193   5.106  17.939  13.366  0.0703 -0.0336 -0.2114
 1725W        W17194   7.735  16.373   4.193  0.0496  0.1608 -0.0258
 1726W        W17195   9.575  13.825  14.749  0.4419  0.2565  0.1694
 1727W        W17196  14.129   4.628   2.754 -0.1822  0.1458 -0.1385
 1728W        W17197  13.086  11.796   2.784  0.1180 -0.0665  0.0049
 1729W        W17198   3.539  13.301  13.016  0.0880 -0.5108 -0.0745
 1730W        W17199   5.993   4.592  15.442 -0.0150 -0.0978  0.1191
 1731W        W17200   5.185   8.841   4.234  0.2020  0.1984  0.0487
 1732W        W17201   5.476   8.134  12.769 -0.0237 -0.2527 -0.3570
 1733W        W17202   3.969   8.135   4.584 -0.0663  0.0093  0.0547
 1734W        W17203   1.746   8.532  10.814 -0.0080  0.2165  0.1234
 1735W        W17204  17.002   4.496  10.944  0.1525 -0.0789  0.0326
 1736W        W17205  17.864   2.830   3.822 -0.1512  0.0291  0.3113
 1737W        W17206   4.343  10.303   4.724 -0.0324 -0.1402 -0.2491
 1738W        W17207   0.021   0.479  11.925 -0.3813  0.1156 -0.2222
 1739W        W17208   8.108   7.465  12.757  0.2661  0.3379 -0.1088
 1740W        W17209   2.682   1.947  14.258 -0.5906 -0.1749 -0.0375
 1741W        W17210  17.438  12.133  10.428 -0.2463 -0.1878  0.2002
 1742W        W17211   0.189  11.133  10.842 -0.0604 -0.0479 -0.0848
 1743W        W17212  15.913   8.298   1.504  0.1223  0.0257 -0.2030
 1744W        W17213   7.413   3.559   6.133  0.0264  0.1284 -0.0448
 1745W        W17214  12.583   8.057  12.970 -0.0975 -0.2482 -0.1354
 1746W        W17215   5.795   1.721  13.557 -0.3308  0.1057  0.2306
 1747W        W17216   6.728  13.397   0.500  0.0911 -0.0027 -0.0345
 1748W        W17217  10.214   9.425   2.385  0.0478  0.3356 -0.0519
 1749W        W17218   8.593  12.138  14.297  0.1065 -0.4865 -0.2241
 1750W        W17219  15.997  13.562  11.473 -0.0650  0.3145 -0.0661
 1751W        W17220  11.068   9.633   3.989 -0.1022 -0.0342 -0.2720
 1752W        W17221  11.475  18.264   1.484 -0.0913  0.0598 -0.2176
 1753W        W17222  15.886  15.572   0.019 -0.0908  0.1060 -0.0862
 1754W        W17223   9.012  15.817  12.228  0.1460  0.0863  0.0325
 1755W        W17224   1.425  10.079   2.002  0.0849  0.1371 -0.1998
 1756W        W17225   5.110   5.939  10.692  0.0239 -0.0490  0.1049
 1757W        W17226   4.948  17.527  15.507  0.1086 -0.0079  0.2076
 1758W        W17227   6.894  15.142   4.506  0.0542  0.1932  0.0784
 1759W        W17228  13.750  13.201   1.385  0.2190  0.1921  0.2259
 1760W        W17229   7.065  11.939  13.213  0.1805  0.3470  0.1125
 1761W        W17230   7.002  14.904  12.458 -0.0289 -0.3599  0.0471
 1762W        W17231   3.171  16.362   4.043  0.1081  0.2130  0.2293
 1763W        W17232   4.846  17.463  10.875  0.0775  0.1478 -0.0554
 1764W        W17233   9.529   7.014   1.912  0.0483  0.0042  0.1178
 1765W        W17234   4.649   9.226   3.835 -0.5171  0.2711 -0.1339
 1766W        W17235   9.149   0.189   3.912  0.0525 -0.2584 -0.0638
 1767W        W17236  18.618  17.909   5.704 -0.1682 -0.2760 -0.0197
 1768W        W17237   9.445  10.849  12.575  0.0326 -0.0366  0.3418
 1769W        W17238   0.415   4.818  12.673  0.1635 -0.0846 -0.1580
 1770W        W17239  11.143  10.627   4.346  0.3122 -0.1013  0.1103
 1771W        W17240  17.870  15.380  12.568  0.1223  0.2153  0.3586
 1772W        W17241  14.808   8.640   5.535  0.1671  0.1012 -0.2295
 1773W        W17242  12.785   5.869   3.809  0.3400  0.1620  0.0483
 1774W        W17243   9.914   6.122   5.527 -0.0672  0.2370 -0.1368
 1775W        W17244  14.834  12.873   2.536 -0.0399 -0.1798 -0.0789
 1776W        W17245   7.350   2.665   1.290  0.3055  0.1469  0.0899
 1777W        W17246   3.681  10.716  10.173 -0.0753 -0.0580  0.0551
 1778W        W17247   7.591  15.792  12.153 -0.0322 -0.1661  0.2964
 1779W        W17248  10.809   2.334  13.194 -0.1235 -0.3746 -0.1161
 1780W        W17249  15.151   0.887  12.393 -0.1244 -0.0520 -0.2352
 1781W        W17250  12.502  17.308   4.546 -0.0061  0.0710  0.3394
 1782W        W17251   1.491   4.669   1.945 -0.0560 -0.2640  0.1402
 1783W        W17252   2.220  13.820  10.552  0.0986  0.1521 -0.1533
 1784W        W17253   2.746   3.083  14.820  0.1654 -0.1852 -0.1504
 1785W        W17254  12.101  11.401  15.128 -0.0508 -0.1421  0.0153
 1786W        W17255   4.620   0.551  11.306 -0.0030  0.1053  0.0183
 1787W        W17256  17.807   6.683   4.360  0.1882 -0.0082 -0.1880
 1788W        W17257  10.433  11.427  12.615 -0.0787  0.2714 -0.0507
 1789W        W17258   8.945   9.574   4.072 -0.3457 -0.2837  0.4452
 1790W        W17259   7.515   1.580  12.419 -0.3386  0.2322  0.1404
 1791W        W17260   5.534   4.265   2.097 -0.1389  0.1615 -0.2495
 1792W        W17261  14.051   0.905   2.736 -0.1364 -0.1439  0.2211
 1793W        W17262  18.193  12.223   4.455  0.2018  0.0588 -0.0018
 1794W        W17263   8.559  11.196  12.597  0.0769 -0.3983 -0.2214
 1795W        W17264  16.992   6.986   2.039  0.1199  0.0533 -0.0337
 1796W        W17265   0.659   1.586  14.981  0.0185  0.0339 -0.0975
 1797W        W17266   3.158  17.604   0.412  0.1121 -0.3455 -0.3611
 1798W        W17267   3.772   0.420  10.263  0.0187  0.0384 -0.1118
 1799W        W17268  17.299   6.689  14.762  0.0176  0.0377 -0.1592
 1800W        W17269   6.268   9.351   5.073 -0.3367 -0.0375 -0.0141
 1801W        W17270  13.294   1.582  11.971  0.0646  0.4199 -0.3237
 1802W        W17271  16.461  16.882   0.570  0.1864 -0.0775  0.0932
 1803W        W17272  13.743   8.124  13.184 -0.0648 -0.4879  0.1455
 1804W        W17273   7.859   9.233  13.381 -0.1899  0.0169 -0.1637
 1805W        W17274   2.343  18.281  11.705 -0.2277 -0.0062  0.0845
 1806W        W17275  11.184   8.434  14.474  0.0318 -0.0206 -0.3408
 1807W        W17276  17.798  10.038   3.902  0.2328 -0.1251  0.2257
 1808W        W17277  14.859   8.569  10.415 -0.1821 -0.0836 -0.1096
 1809W        W17278  11.352   2.891   1.405  0.1905 -0.3697 -0.1272
 1810W        W17279  14.670  18.125  14.190 -0.2594  0.1447  0.2838
 1811W        W17280   6.981  13.483  15.742  0.0115 -0.2490 -0.3075
 1812W        W17281   3.810  18.234  11.314 -0.0958  0.0304  0.3418
 1813W        W17282  15.679  14.278   0.560  0.0506  0.2895  0.2029
 1814W        W17283  14.525  15.281   2.206  0.0934 -0.3590  0.0518
 1815W        W17284  14.972   4.180   1.518 -0.1171 -0.1072 -0.1008
 1816W        W17285  13.052   9.587   1.912  0.1116  0.0361 -0.3699
 1817W        W17286   4.461  12.915  10.168  0.0880  0.1010 -0.0494
 1818W        W17287   7.926   3.641   2.691 -0.0494  0.1076  0.1588
 1819W        W17288   3.159  15.401   4.747 -0.0787 -0.2003 -0.4068
 1820W        W17289  10.122  11.847   4.185  0.3006  0.0327  0.1588
 1821W        W17290   6.566   7.693   4.510 -0.1784  0.0429  0.0915
 1822W        W17291   3.672  17.622  13.085 -0.2382 -0.1109 -0.0951
 1823W        W17292  16.256  15.899  11.917  0.1888  0.0164  0.0505
 1824W        W17293   9.558   4.965   5.718 -0.3306  0.2627  0.0311
 1825W        W17294   7.957   9.648   3.921  0.1051  0.3057  0.0637
 1826W        W17295  12.574   7.587  11.655  0.0456 -0.2187  0.0279
 1827W        W17296   4.251  18.021   1.743  0.2414 -0.3978  0.0884
 1828W        W17297   2.289  11.087  10.403 -0.2196  0.3803  0.0110
 1829W        W17298  17.598   6.238  12.062 -0.0606 -0.2421  0.2508
 1830W        W17299  10.014  17.728   5.077  0.0288 -0.0008 -0.0512
 1831W        W17300  17.786  13.558   3.208  0.0114  0.1661  0.2798
 1832W        W17301  12.997  10.050  11.845 -0.3499 -0.3096 -0.0463
 1833W        W17302   6.857  17.150   6.034  0.3292 -0.3528 -0.0826
 1834W        W17303   9.961  17.521   0.210  0.0823 -0.0763 -0.0696
 1835W        W17304   4.875  13.755   3.709  0.1101  0.2455  0.2782
 1836W        W17305  15.427   9.018   4.175  0.0605 -0.3506 -0.2159
 1837W        W17306   6.218   9.344  11.064  0.1019 -0.0947 -0.3454
 1838W        W17307   0.507  11.050   9.360 -0.0585 -0.0238  0.1264
 1839W        W17308   0.495   0.114   9.641  0.0319 -0.1444 -0.1409
 1840W        W17309  12.884   9.164   2.141  0.0620  0.0271  0.0270
 1841W        W17310  17.571  12.924  11.551 -0.2459 -0.0541 -0.2753
 1842W        W17311  17.374  17.186  13.832  0.1229  0.2283 -0.2605
 1843W        W17312   2.732  17.376   4.234 -0.0543 -0.1034  0.0865
 1844W        W17313  17.225  12.111  11.336  0.0787  0.1119  0.2677
 1845W        W17314   4.429  13.728   1.455  0.0257 -0.0826 -0.0076
 1846W        W17315  11.184   4.946   4.779 -0.0255  0.0763  0.0031
 1847W        W17316  18.366  11.057   0.684  0.1003 -0.2101  0.1944
 1848W        W17317   1.952   4.958  15.369  0.0774  0.2644 -0.1062
 1849W        W17318  17.413   7.590   4.345 -0.0401 -0.3796 -0.1858
 1850W        W17319  11.206   3.127   5.103  0.1240 -0.1922 -0.0808
 1851W        W17320   8.108   0.650   4.583  0.2279  0.0674  0.0350
 1852W        W17321   9.111  13.504   2.726  0.0411  0.2089 -0.0329
 1853W        W17322  11.754  14.124  11.385 -0.3316 -0.0517  0.3423
 1854W        W17323  10.459   8.904  12.531 -0.0378 -0.2035 -0.0905
 1855W        W17324  17.598   8.513   1.550 -0.4197  0.3213 -0.0629
 1856W        W17325   1.868   4.949  10.745 -0.0234 -0.1006 -0.0946
 1857W        W17326  16.324   7.532   4.390  0.0860  0.0920  0.0230
 1858W        W17327  15.775   1.356  11.014 -0.3271 -0.2044  0.0427
 1859W        W17328   6.016  15.030  12.887  0.1582 -0.1539 -0.2629
 1860W        W17329   6.003   6.483  13.270 -0.0145 -0.3453  0.2225
 1861W        W17330   6.671   8.178  14.573 -0.1285  0.2090  0.3079
 1862W        W17331   1.415   4.649   0.061 -0.2466  0.0904 -0.0908
 1863W        W17332  16.292  11.917  14.457 -0.2519 -0.2378 -0.3133
 1864W        W17333  12.242   2.113  15.492 -0.2252 -0.0747  0.0344
 1865W        W17334   9.665  14.448  12.402 -0.0264  0.1590  0.0736
 1866W        W17335   5.679   5.236  12.339  0.0766  0.0020  0.1562
 1867W        W17336   6.897   2.969   4.689  0.0359  0.0329 -0.0229
 1868W        W17337   6.538   1.571   4.321  0.1877  0.1215 -0.0508
 1869W        W17338  14.161  15.295   2.935  0.0080  0.2119  0.0013
 1870W        W17339   5.925   8.984   3.225 -0.1383 -0.1063 -0.0377
 1871W        W17340   5.948   1.579   2.668 -0.0618 -0.0860  0.2379
 1872W        W17341   3.804   5.800   1.382  0.4138  0.1503 -0.1844
 1873W        W17342  15.071   5.744   4.273 -0.1375  0.1202 -0.0031
 1874W        W17343   6.668  13.433  15.376  0.0052  0.2431  0.1266
 1875W        W17344   7.092   7.943   4.441  0.0154  0.2017 -0.2803
 1876W        W17345   0.520   0.636  14.033  0.1566 -0.2921 -0.1284
 1877W        W17346  18.315  14.440  12.783  0.1104  0.2662 -0.3442
 1878W        W17347   8.535  15.691  15.774  0.0107  0.1009 -0.1100
 1879W        W17348  10.799   0.989  13.337 -0.1539  0.1794 -0.2196
 1880W        W17349   7.165   6.258   3.494  0.0770  0.0897 -0.2867
 1881W        W17350   0.197  13.950   0.735  0.3879 -0.1679 -0.0311
 1882W        W17351  15.776   0.961  13.161  0.0669 -0.1910  0.3190
 1883W        W17352   3.396  11.460  13.019  0.1294 -0.1080 -0.2322
 1884W        W17353  10.163   8.166   0.294  0.0452 -0.1171  0.2468
 1885W        W17354   4.262   7.588  13.313 -0.0959 -0.2516  0.1947
 1886W        W17355   6.061   0.182  11.224 -0.1935  0.0976  0.2479
 1887W        W17356  18.264  11.276  14.448  0.1918  0.1041 -0.0186
 1888W        W17357   4.509   5.976  12.094  0.2610 -0.0648 -0.0150
 1889W        W17358   7.894  10.430  11.248 -0.0203  0.2968 -0.1272
 1890W        W17359  15.478  13.474  10.963 -0.0103  0.3531 -0.1241
 1891W        W17360   8.405   7.608  14.534 -0.1477  0.0464  0.1587
 1892W        W17361  10.229  16.035  11.458  0.2996 -0.1195 -0.0545
 1893W        W17362  11.426   1.761  13.091  0.1369 -0.0179 -0.0764
 1894W        W17363   5.071   1.031  13.744  0.0064 -0.1716  0.1527
 1895W        W17364   7.068   5.676   0.974 -0.0724  0.0750 -0.0556
 1896W        W17365   0.099  10.623  11.038 -0.3570 -0.2342 -0.0194
 1897W        W17366  13.415  14.081   1.708 -0.4662  0.0505  0.2206
 1898W        W17367   6.741   3.258  11.844 -0.2486  0.1295 -0.3122
 1899W        W17368   3.994  16.199  14.572 -0.1477  0.1183 -0.0842
 1900W        W17369   3.411   4.497  12.223 -0.0232 -0.0348 -0.1124
 1901W        W17370   2.474  15.144  12.785  0.0610  0.0453 -0.2629
 1902W        W17371  12.287   5.745   2.042  0.0052  0.1586 -0.1914
 1903W        W17372   8.902   7.788   0.785 -0.0529  0.1798 -0.2507
 1904W        W17373  12.138  11.417   4.611  0.0688 -0.4642  0.2334
 1905W        W17374  16.540   3.504   1.543 -0.1855  0.0379 -0.1746
 1906W        W17375   9.639   4.270   1.254  0.0393 -0.1246  0.1421
 1907W        W17376   5.564   7.720  10.990 -0.1394  0.0444  0.0265
 1908W        W17377  15.516  18.320  13.170  0.2462 -0.0765  0.0271
 1909W        W17378  13.306  13.158  15.634  0.1682  0.2389  0.4451
 1910W        W17379  15.337  17.686  12.514  0.1850 -0.2971  0.1497
 1911W        W17380   2.582  17.394   0.939 -0.0341 -0.1197  0.0009
 1912W        W17381   0.335   7.298  10.622 -0.1622  0.2061 -0.1909
 1913W        W17382   7.175   7.343  12.000  0.1924 -0.3304  0.2123
 1914W        W17383   3.399  10.791   1.770  0.0881 -0.0392  0.0730
 1915W        W17384  10.788   3.743  13.832  0.0234  0.2194  0.2634
 1916W        W17385   3.680  14.788  12.974  0.0128  0.0902 -0.1347
 1917W        W17386  11.535  17.191   0.545 -0.0544  0.0972 -0.4602
 1918W        W17387   7.689   8.298   3.991  0.2795  0.0894 -0.5290
 1919W        W17388  15.825  13.950   4.696  0.0631  0.1065  0.0603
 1920W        W17389   2.539   6.649   4.765  0.1299 -0.1400 -0.2304
 1921W        W17390  11.702  12.561  11.267 -0.0813  0.0297  0.1236
 1922W        W17391  15.855   7.640   4.512 -0.2551  0.2074 -0.1843
 1923W        W17392   2.150  16.382   5.358 -0.1416 -0.1589 -0.0614
 1924W        W17393   3.530  17.965   2.925  0.1958 -0.1488 -0.0310
 1925W        W17394  16.011  18.525  12.020  0.0201  0.0452  0.1897
 1926W        W17395  17.438  18.003   0.681  0.5085  0.0681 -0.0223
 1927W        W17396  15.275  15.844  11.301  0.2614 -0.0385 -0.0220
 1928W        W17397   5.648  10.219   2.729 -0.1196 -0.1519 -0.0763
 1929W        W17398  18.124  14.717   4.718  0.2696 -0.4349 -0.1881
 1930W        W17399   8.267   1.476  13.826 -0.1644 -0.2213  0.0182
 1931W        W17400  12.571  17.032  13.239  0.2015 -0.0245 -0.0432
 1932W        W17401   6.174  14.707  12.536  0.0753 -0.0552  0.0110
 1933W        W17402   0.097  15.869  14.578  0.2111  0.2850 -0.0117
 1934W        W17403   8.045  13.622   4.751 -0.2428 -0.0970 -0.0438
 1935W        W17404   4.857  11.952  14.342 -0.2064  0.2448  0.3535
 1936W        W17405  13.572   0.393  11.417 -0.1848 -0.0543 -0.1006
 1937W        W17406   4.641   2.668   2.684 -0.1798  0.0838 -0.1517
 1938W        W17407  18.022   0.641  11.368 -0.1398  0.0965  0.1730
 1939W        W17408  13.144   1.076  14.168 -0.0462 -0.0965 -0.0906
 1940W        W17409  12.277   2.134  11.529  0.0728  0.4061  0.1999
 1941W        W17410   5.186   2.741  13.813  0.0927  0.2956 -0.0729
 1942W        W17411  17.164   8.938  11.228  0.0036  0.2579  0.0810
 1943W        W17412  16.180  11.141   2.709 -0.1985 -0.1721 -0.0557
 1944W        W17413   3.543  17.137  14.618  0.0771 -0.0700  0.1835
 1945W        W17414   5.083  15.071  11.336 -0.0293  0.0624 -0.3484
 1946W        W17415   7.202  14.671   1.995  0.1912 -0.1771  0.0652
 1947W        W17416   5.545  17.636  12.425 -0.0704  0.0701 -0.3338
 1948W        W17417   4.970   5.245  11.459 -0.0896  0.1919 -0.1058
 1949W        W17418   6.612  16.418  13.350  0.2146 -0.0121  0.2735
 1950W        W17419   0.345  11.262  13.285  0.1507  0.1121  0.0193
 1951W        W17420   2.647  17.306  13.095  0.1409 -0.1452  0.0445
 1952W        W17421   8.245  12.256  10.835  0.0986 -0.0288  0.1951
 1953W        W17422  12.383   1.805   1.927 -0.3069  0.2234  0.3182
 1954W        W17423  18.094  14.306   9.489  0.1627 -0.1623  0.2012
 1955W        W17424  16.416  18.333  12.863 -0.2218 -0.2916  0.3586
 1956W        W17425   7.483  14.395  11.252 -0.3177  0.1728 -0.1038
 1957W        W17426   0.507   7.730   1.577  0.1346 -0.2621 -0.0439
 1958W        W17427   1.505   9.095   4.060 -0.2356  0.2297 -0.1573
 1959W        W17428   1.380  18.467   2.288  0.2711 -0.0283  0.4086
 1960W        W17429   8.734  17.274   2.336  0.0725 -0.2980  0.2359
 1961W        W17430  17.260   1.892  11.239 -0.3563  0.2486  0.0226
 1962W        W17431   2.211   4.649   2.856  0.0630 -0.2034 -0.0956
 1963W        W17432   0.410  11.910   5.342  0.0016 -0.4999  0.4493
 1964W        W17433  11.363   7.024   3.523  0.0994 -0.0347 -0.0285
 1965W        W17434   3.356   3.748  14.151  0.0199 -0.0727  0.2651
 1966W        W17435   0.646   8.105   1.172 -0.0473 -0.0788 -0.0202
 1967W        W17436   2.249   6.427   0.466 -0.1213 -0.0979 -0.0108
 1968W        W17437   1.008  13.842  13.667  0.0093 -0.2556 -0.2408
 1969W        W17438   0.481  12.024   4.832 -0.1605  0.0394  0.2288
 1970W        W17439  14.648   5.000  13.346  0.0445  0.2062  0.0116
 1971W        W17440  12.907  16.669  15.473  0.1812 -0.0279 -0.2977
 1972W        W17441   9.107  14.621   0.797 -0.0964  0.1695 -0.2684
 1973W        W17442  11.116   5.094   3.608 -0.0252  0.1249 -0.2542
 1974W        W17443  11.314  10.956   4.702 -0.0418  0.0800  0.1314
 1975W        W17444  12.153   2.956   0.718  0.2186  0.0214  0.3722
 1976W        W17445   3.317   5.514   2.288 -0.2987 -0.3825  0.0693
 1977W        W17446   4.328   0.825  12.971 -0.0710 -0.1349  0.1681
 1978W        W17447   8.203  15.193   0.718  0.2214 -0.2208 -0.1876
 1979W        W17448  12.944   6.767   3.953 -0.0442  0.0883 -0.0444
 1980W        W17449   6.867   8.361   2.548 -0.1048  0.0673  0.0524
 1981W        W17450   6.740   1.479   3.289 -0.0472 -0.0378 -0.2400
 1982W        W17451  10.576   8.085   2.057 -0.0128 -0.3914  0.3073
 1983W        W17452   9.401   4.812  13.054 -0.1931 -0.2354 -0.2237
 1984W        W17453  14.857   6.428  14.626 -0.2178  0.0180  0.3612
 1985W        W17454   1.250   9.627   4.088  0.1243  0.1125  0.0622
 1986W        W17455   8.210   3.837   2.315 -0.1583 -0.3471 -0.1805
 1987W        W17456  17.250  13.074  11.202 -0.2473 -0.1223 -0.0164
 1988W        W17457   1.333  13.949  13.258 -0.0189  0.2219  0.0346
 1989W        W17458   0.729   6.497  12.337  0.2576  0.0145  0.1555
 1990W        W17459   0.345  11.992   3.033 -0.0982 -0.0497  0.0343
 1991W        W17460   5.072  12.485   1.970  0.0456  0.0469 -0.0564
 1992W        W17461   2.510  16.993   0.597 -0.2984 -0.0256  0.3841
 1993W        W17462   3.660  16.038  15.149 -0.1410  0.0860  0.0544
 1994W        W17463  16.534  17.520  11.087  0.1845  0.0627 -0.1595
 1995W        W17464   0.516  14.510  11.308  0.0115  0.4008  0.0186
 1996W        W17465   0.897  15.583  12.490 -0.0738  0.0574  0.2451
 1997W        W17466  17.963  15.758   4.073  0.1883 -0.0410 -0.1464
 1998W        W17467   4.287   0.956  14.047 -0.0945  0.0322  0.2455
 1999W        W17468   3.654   2.474   0.251 -0.0939  0.0148 -0.0176
 2000W        W17469  16.048   8.648  15.342  0.1800 -0.3615 -0.3406
 2001W        W17470   9.094   3.942   5.818 -0.1098 -0.2024  0.0231
 2002W        W17471  11.228  15.254  15.098  0.1899  0.0562  0.4066
 2003W        W17472  10.003   1.071   5.971  0.3476 -0.0296  0.0409
 2004W        W17473   0.434   4.231   2.261 -0.1908 -0.0259 -0.0057
 2005W        W17474   0.281   3.736  10.246  0.2366  0.1689 -0.1714
 2006W        W17475  11.649  14.039  15.480  0.0252 -0.0826 -0.2614
 2007W        W17476   6.412  12.442   0.716 -0.5020  0.2724  0.1306
 2008W        W17477   8.505  16.746   3.716  0.0843 -0.0717 -0.0149
 2009W        W17478  16.715   8.525   0.188  0.1847 -0.1777 -0.1419
 2010W        W17479   2.306  13.749   0.794  0.0847  0.2544  0.1392
 2011W        W17480   1.571   9.983   2.609 -0.0314  0.0561  0.6872
 2012W        W17481  10.730  15.200  12.804 -0.0303 -0.0167  0.0142
 2013W        W17482   3.014  13.244  12.327 -0.1557  0.2431  0.0728
 2014W        W17483   1.675  10.369   2.974 -0.2179  0.0576 -0.0070
 2015W        W17484   1.949  15.514   0.554 -0.3577 -0.1335 -0.0300
 2016W        W17485   4.252   5.590   2.335  0.1202 -0.2722 -0.2226
 2017W        W17486   5.951  12.263   2.147 -0.1489  0.1426  0.0742
 2018W        W17487   1.735   5.047   3.219  0.0437 -0.1689  0.1067
 2019W        W17488  18.409   5.418   2.263 -0.0232  0.1037 -0.3542
 2020W        W17489   2.116   1.289   3.551  0.0374 -0.2228 -0.1039
 2021W        W17490  13.040  14.195   2.062  0.1103 -0.0596 -0.0231
 2022W        W17491  16.380   3.722   5.098  0.1128  0.0249 -0.2170
 2023W        W17492  16.506  14.371  13.308 -0.2307 -0.0247 -0.0459
 2024W        W17493   4.071   3.797   2.142  0.0683 -0.1654  0.3650
 2025W        W17494   1.904   8.041   1.536  0.0904  0.2962 -0.0719
 2026W        W17495   2.299  11.822  11.665 -0.1911 -0.3830 -0.1165
 2027W        W17496  18.603  17.921  14.432 -0.1688 -0.1430 -0.0951
 2028W        W17497  11.481   4.071   0.035 -0.2033 -0.0597  0.1015
 2029W        W17498  14.947  15.831  12.268 -0.1174  0.0855  0.1358
 2030W        W17499   4.264   6.102  13.699 -0.0588 -0.1247  0.2850
 2031W        W17500   3.717   6.421   5.792  0.1212  0.1309 -0.0873
 2032W        W17501   6.357  16.790   4.241 -0.1688 -0.1964 -0.3383
 2033W        W17502  17.921  10.915  10.344  0.1727  0.0267 -0.1803
 2034W        W17503   3.332  11.745   2.050  0.2591  0.1187  0.1893
 2035W        W17504   1.792  17.617   5.274 -0.3044  0.2799  0.0583
 2036W        W17505  10.364   1.721  15.114 -0.0743 -0.0809  0.1451
 2037W        W17506  16.406   7.295  11.553  0.0451 -0.1480 -0.0208
 2038W        W17507   9.162   3.517   0.377 -0.0090  0.1344 -0.2142
 2039W        W17508  10.584  15.418   2.377 -0.1628  0.1365 -0.0709
 2040W        W17509   9.366   3.460   2.366  0.1276  0.0031 -0.0657
 2041W        W17510  14.101  18.490  14.951 -0.0940  0.0382  0.0998
 2042W        W17511   1.847  17.473   2.889 -0.2990  0.1513 -0.4936
 2043W        W17512   9.322   9.468  12.029  0.0590 -0.3937  0.0315
 2044W        W17513  18.565  15.587  11.913  0.1110 -0.1113 -0.3097
 2045W        W17514   9.323  10.680   2.503  0.2355  0.2497 -0.0563
 2046W        W17515  17.045  16.213   0.772  0.1500  0.2752  0.0215
 2047W        W17516   4.073   4.898  15.303  0.2636  0.1258  0.1660
 2048W        W17517  15.478  13.316   4.133 -0.1557 -0.0278 -0.3056
 2049W        W17518   5.575  12.989  14.777 -0.3384  0.0225 -0.0335
 2050W        W17519  14.679  15.593  10.268 -0.0374 -0.0388  0.0898
 2051W        W17520  16.362  13.831  11.764  0.2793 -0.1519 -0.1417
 2052W        W17521   4.341   4.309  15.185 -0.0950 -0.1479 -0.0010
 2053W        W17522  12.258  12.685   3.575  0.0964 -0.0282  0.0065
 2054W        W17523  16.172  11.052  10.863 -0.0402  0.1903 -0.4342
 2055W        W17524  11.423   4.719   3.794  0.2060 -0.1802 -0.1297
 2056W        W17525   7.077  13.216  15.218 -0.1150  0.0051  0.0083
 2057W        W17526   2.010   8.466   4.612 -0.0158  0.3208  0.3388
 2058W        W17527  12.636  11.083  10.959  0.0718  0.2595 -0.2968
 2059W        W17528   8.304  10.677   0.194  0.1015 -0.1424  0.1746
 2060W        W17529  17.362   1.905   3.255 -0.3863 -0.0252  0.0000
 2061W        W17530  15.356   4.506  10.900  0.0595 -0.1908  0.2266
 2062W        W17531  11.762   7.176  13.503 -0.0972  0.0176  0.2068
 2063W        W17532   0.560  10.210  14.734 -0.2937  0.2097  0.2530
 2064W        W17533   9.050   1.462   2.387  0.0505  0.0885  0.0308
 2065W        W17534   6.476   3.727   1.402  0.0790  0.1040  0.2057
 2066W        W17535  16.266   2.592  13.598  0.1131  0.0049  0.2911
 2067W        W17536  11.745   5.836   4.848  0.2871 -0.1572  0.1993
 2068W        W17537   0.365   8.267   3.015  0.1399 -0.1028 -0.1735
 2069W        W17538   0.983  10.358   2.126  0.0100  0.1905  0.0175
 2070W        W17539  12.952  12.616   2.345  0.0124 -0.1652  0.1125
 2071W        W17540  17.048   0.091  12.677  0.0084  0.1003 -0.1962
 2072W        W17541  13.169   8.721   1.206  0.2717  0.0901 -0.2332
 2073W        W17542  10.932   4.166  14.226  0.1512  0.1987  0.1058
 2074W        W17543  10.906   8.420   6.099  0.1470 -0.0004  0.2346
 2075W        W17544  17.988  10.078   3.393 -0.1847 -0.3312  0.1900
 2076W        W17545   3.409  11.756  14.006  0.0701  0.1593 -0.3715
 2077W        W17546   8.532   4.868   4.756  0.0935 -0.2171  0.2610
 2078W        W17547   6.169   7.767  11.775  0.1104  0.0376  0.1801
 2079W        W17548  10.207   4.296   3.100  0.0276  0.3338 -0.0566
 2080W        W17549  13.182   4.220   3.551 -0.1686 -0.0276  0.1381
 2081W        W17550   0.211  11.590   0.824 -0.2962  0.1206  0.1602
 2082W        W17551  16.927   8.884   4.055 -0.0112  0.1739  0.0489
 2083W        W17552   2.552  12.986  15.524  0.0199 -0.1216  0.1656
 2084W        W17553  18.608   0.895   5.276 -0.1542 -0.0005  0.2734
 2085W        W17554  12.858  13.443  15.538 -0.1655  0.0360 -0.2474
 2086W        W17555   5.360   1.116  15.636  0.1569 -0.2257 -0.3034
 2087W        W17556  17.194   6.386   1.794  0.0599  0.2602 -0.0740
 2088W        W17557  15.177   0.571  11.868  0.1282 -0.2063  0.1948
 2089W        W17558   4.821  17.065  15.671  0.3329 -0.1172  0.2010
 2090W        W17559  11.827   1.706  14.353  0.1745  0.0288  0.2369
 2091W        W17560   5.107  10.934  10.961 -0.4177  0.1848  0.3316
 2092W        W17561  12.912   5.960   4.887 -0.0295  0.2764  0.0376
 2093W        W17562  16.101  15.626  14.978 -0.5162 -0.0735 -0.1309
 2094W        W17563   9.200  17.193   5.572 -0.1008  0.2094 -0.1026
 2095W        W17564   9.509   2.347  12.821 -0.1413  0.1702  0.2066
 2096W        W17565   7.442  13.227   1.930  0.0890 -0.3255 -0.0969
 2097W        W17566  12.291  16.001  15.224  0.0379 -0.0859  0.3407
 2098W        W17567   2.314   4.172   9.534 -0.0761 -0.2060 -0.3007
 2099W        W17568   9.813   6.912   4.963 -0.0697  0.1913 -0.0526
 2100W        W17569  16.177  10.492   3.473 -0.0025  0.0797 -0.0381
 2101W        W17570   2.904  17.374   3.253  0.1516 -0.2284 -0.0460
 2102W        W17571   8.003   1.228  12.961  0.3252  0.1943 -0.1046
 2103W        W17572   0.204   5.328   1.470  0.1341  0.0803 -0.3075
 2104W        W17573  11.279  15.821   3.489 -0.3367  0.2595  0.2166
 2105W        W17574   5.472  16.063   5.099 -0.0198 -0.0570 -0.2678
 2106W        W17575  16.036  11.989  14.016 -0.0566  0.2631 -0.3962
 2107W        W17576  12.019   1.011  11.428  0.2985  0.2358  0.0051
 2108W        W17577   2.694  11.200  13.367  0.0954 -0.1051  0.0042
 2109W        W17578   1.687  17.621  11.944 -0.1230  0.0455 -0.1452
 2110W        W17579  12.554   7.538   3.530  0.0976  0.0576 -0.1670
 2111W        W17580  15.723   6.034  11.230  0.1879 -0.1438 -0.0664
 2112W        W17581   9.079   7.150   2.763  0.1135 -0.0565 -0.0235
 2113W        W17582  12.288   6.981  12.365 -0.0804 -0.1259 -0.2097
 2114W        W17583   5.211   8.484  10.921 -0.1174  0.0022 -0.1026
 2115W        W17584   8.231   6.755   1.185 -0.4319 -0.0497  0.1262
 2116W        W17585  16.270  14.961  14.968 -0.3455 -0.1155  0.1484
 2117W        W17586  10.436   7.290  15.474 -0.0824 -0.0056 -0.0058
 2118W        W17587  13.035   9.542  15.074 -0.1075 -0.0544  0.2159
 2119W        W17588   6.811   1.446  13.567 -0.3420 -0.0373  0.1115
 2120W        W17589  13.439   3.171  15.263  0.0503  0.1546 -0.0822
 2121W        W17590  17.454  15.668  15.585  0.1130  0.0021 -0.0328
 2122W        W17591   8.791   8.553  12.796  0.0834 -0.2150 -0.0270
 2123W        W17592  12.052  12.705   5.370  0.0650 -0.4660 -0.1530
 2124W        W17593   7.615   5.490  12.465 -0.0328  0.2246  0.0584
 2125W        W17594  12.054   9.668   5.419 -0.1550  0.0870 -0.2498
 2126W        W17595   7.053   3.182   3.097 -0.1408 -0.0321  0.2365
 2127W        W17596  11.694  11.490   0.034  0.0837 -0.0316  0.3293
 2128W        W17597  12.582   2.508  14.600  0.7559 -0.4058 -0.0201
 2129W        W17598   4.871   0.235   1.831 -0.0872 -0.1284 -0.0054
 2130W        W17599  17.688   4.709   3.451 -0.0926  0.3880  0.1569
 2131W        W17600  12.244  12.372  12.990 -0.0776  0.3116 -0.1047
 2132W        W17601  17.743  10.878   0.068 -0.1336 -0.0504  0.1196
 2133W        W17602  12.353   7.083   3.497  0.0885  0.0348  0.3158
 2134W        W17603   6.206  16.497   2.483 -0.2887 -0.1752 -0.1138
 2135W        W17604   8.512   1.678   4.026 -0.3919 -0.1135 -0.0197
 2136W        W17605   8.078   6.989  13.832 -0.0697 -0.1168  0.2872
 2137W        W17606   6.286   3.773  15.670 -0.4358  0.3893 -0.0495
 2138W        W17607   4.197   3.604   4.270 -0.0075  0.1181 -0.0885
 2139W        W17608   9.385  10.138   4.958 -0.1197  0.2337 -0.0459
 2140W        W17609   6.159   2.257   4.760 -0.1350 -0.1783 -0.0410
 2141W        W17610   5.276   0.408   3.254  0.0447  0.0893  0.0450
 2142W        W17611   8.754  13.099   2.810 -0.3204  0.0063 -0.0346
 2143W        W17612   9.372   8.851  15.742  0.3058  0.0372 -0.2817
 2144W        W17613  17.225  13.208  15.137  0.0556  0.1837  0.2198
 2145W        W17614   9.313   7.178   4.821 -0.0021  0.0317  0.0326
 2146W        W17615  15.727  13.862  11.174  0.5382  0.0362  0.0982
 2147W        W17616  12.964  10.310   4.197  0.0444  0.1494  0.0008
 2148W        W17617   4.355  10.102  10.305 -0.2730 -0.1114 -0.1076
 2149W        W17618  15.327   1.240  14.944  0.5065 -0.0896  0.2166
 2150W        W17619  10.931  16.612   5.457 -0.1731  0.0934  0.1603
 2151W        W17620   5.034   9.593  11.162  0.0341 -0.0356  0.1639
 2152W        W17621  11.366   4.003  12.422 -0.2285  0.0752 -0.1788
 2153W        W17622   3.772  13.976  12.514  0.0453 -0.1317 -0.0294
 2154W        W17623  12.641  15.074   3.107  0.2137  0.1699  0.0744
 2155W        W17624   7.869   6.613   3.258 -0.3778 -0.1348  0.0357
 2156W        W17625   1.872  13.398   5.333 -0.2648  0.0076 -0.3229
 2157W        W17626  18.358  17.260   2.307 -0.0087 -0.0664 -0.0835
 2158W        W17627  15.214   4.416  13.689  0.2688 -0.0717  0.1083
 2159W        W17628  16.775   9.842  11.171 -0.0266 -0.0526  0.2837
 2160W        W17629   9.039   7.061  11.335 -0.0884  0.2022  0.1791
 2161W        W17630   1.586   0.821   1.168 -0.0811 -0.0699  0.2389
 2162W        W17631  15.314  18.016   4.473 -0.2456  0.2258  0.0528
 2163W        W17632  13.696   9.745   2.867  0.1692 -0.0370 -0.2838
 2164W        W17633   7.793   2.858  12.150 -0.0132  0.1165  0.2376
 2165W        W17634  13.897   0.114   4.508 -0.4562  0.0231  0.0184
 2166W        W17635  15.610   3.301  11.698 -0.1879  0.1118  0.0949
 2167W        W17636   5.410   6.609  11.705  0.0356  0.1277  0.2864
 2168W        W17637   0.517  12.123   3.908  0.0061 -0.1115 -0.2245
 2169W        W17638   4.686   2.319   3.103  0.2457 -0.0586 -0.1936
 2170W        W17639   0.786   3.301   1.676 -0.0080 -0.2168  0.3058
 2171W        W17640   1.311   6.578  14.094 -0.0969  0.0736 -0.2495
 2172W        W17641  11.236   7.553   2.115 -0.2832  0.0035  0.0229
 2173W        W17642  12.065  15.396   0.749  0.3884  0.3958  0.0325
 2174W        W17643  15.127  17.896  10.741  0.0315 -0.0787 -0.0069
 2175W        W17644   7.601   0.277  13.041 -0.0193  0.2580 -0.2064
 2176W        W17645   8.266  17.978  13.082 -0.1414  0.1477 -0.0510
 2177W        W17646   1.957  13.520   1.324 -0.1392 -0.0427 -0.3566
 2178W        W17647   9.240  12.605   4.137  0.0261  0.0283  0.0389
 2179W        W17648   9.225   2.705   4.862 -0.1782  0.0674  0.0301
 2180W        W17649  13.239  14.288  14.482  0.2439 -0.2822  0.0210
 2181W        W17650  17.825   9.101   1.093 -0.0347  0.2588  0.2449
 2182W        W17651  15.069  16.097  13.585  0.0203  0.0987 -0.2360
 2183W        W17652   8.101  12.604   2.208  0.1308  0.1084  0.2286
 2184W        W17653   3.657   0.839  13.645 -0.2994  0.0348  0.0347
 2185W        W17654   8.446  12.360  11.270 -0.0694  0.1185  0.0036
 2186W        W17655   8.438   7.872   0.547  0.3111  0.2067  0.0959
 2187W        W17656   2.686   4.581   4.174  0.2499 -0.0119 -0.1675
 2188W        W17657  12.028  16.279  13.485  0.2917 -0.0563 -0.1229
 2189W        W17658   8.730   9.763  13.960  0.1320 -0.0117  0.3555
 2190W        W17659  17.744   6.498  10.466 -0.0134  0.1320 -0.0712
 2191W        W17660  12.956   4.052  10.972  0.3734 -0.3375 -0.1973
 2192W        W17661   0.707   8.816   2.923 -0.2449  0.0408  0.0201
 2193W        W17662   5.778   2.078   3.942 -0.2588  0.3744 -0.1871
 2194W        W17663   6.463  12.876   1.033 -0.0821  0.1201  0.0852
 2195W        W17664   0.966   1.499  13.695  0.0607  0.3065 -0.0558
 2196W        W17665  11.526   9.446  10.742  0.1473 -0.0038 -0.0238
 2197W        W17666   7.245   8.197  15.227  0.1034  0.1106 -0.0296
 2198W        W17667   6.187  16.954   2.637  0.0382  0.1390 -0.0677
 2199W        W17668  10.859   7.128   3.143 -0.0160 -0.0091  0.0094
 2200W        W17669  17.723   2.372  12.500 -0.0656  0.4577  0.2342
 2201W        W17670   4.048   8.701   9.545 -0.0632  0.0010 -0.2583
 2202W        W17671  16.306  12.366  14.701  0.0209 -0.1970 -0.1457
 2203W        W17672  16.462  17.314  10.401 -0.0071  0.3603  0.1885
 2204W        W17673   8.602  12.717   3.849  0.4187  0.1371 -0.2182
 2205W        W17674  14.227   6.522  10.685 -0.0132  0.0062 -0.2000
 2206W        W17675   5.288   6.311  13.452  0.2059  0.3408  0.2434
 2207W        W17676  18.428   0.772   1.331  0.0929 -0.1972  0.3287
 2208W        W17677   4.759   1.646  15.271  0.1564 -0.4827 -0.0042
 2209W        W17678  12.367  15.984  14.359 -0.0240 -0.0347  0.0911
 2210W        W17679   2.679   5.082  11.889  0.0778  0.1110 -0.0470
 2211W        W17680  10.432  10.391  15.581  0.0168 -0.1315 -0.2052
 2212W        W17681  11.261   5.677  11.510 -0.2969 -0.2099  0.0579
 2213W        W17682  12.178  15.895   2.675  0.1067  0.3758 -0.2217
 2214W        W17683  15.199  16.257   2.519 -0.1694 -0.2037 -0.0290
 2215W        W17684   7.222  16.091  11.884  0.1748 -0.0537 -0.3010
 2216W        W17685  15.185  16.983   5.136  0.0609 -0.1574 -0.0349
 2217W        W17686   9.828  12.583  12.943  0.2447 -0.0965 -0.0829
 2218W        W17687  17.527  17.595  14.756  0.1842 -0.1389 -0.3791
 2219W        W17688  16.129   5.096  11.039  0.2161  0.0895 -0.3890
 2220W        W17689  15.623   3.448   2.117  0.0283 -0.1212 -0.1846
 2221W        W17690  11.074  12.660   2.207 -0.0529 -0.1306  0.3360
 2222W        W17691  16.122  14.931  12.633 -0.0710  0.0530 -0.4104
 2223W        W17692  15.715   5.338   2.310  0.0910  0.3092 -0.3071
 2224W        W17693   3.354  10.365  12.211  0.1441 -0.3997 -0.2221
 2225W        W17694   7.349  10.654   1.259 -0.2136  0.3621 -0.0940
 2226W        W17695   4.011  12.732   3.534 -0.1941  0.2047 -0.0096
 2227W        W17696   0.983   4.003   4.577  0.0935 -0.1083  0.1149
 2228W        W17697   8.341   1.483   4.841 -0.0773  0.0628  0.1820
 2229W        W17698  16.659   4.744  14.002 -0.0783 -0.0199 -0.2641
 2230W        W17699   3.184  14.646   0.067  0.0424  0.0983  0.1094
 2231W        W17700   1.875   3.518  15.271  0.0453 -0.3462 -0.1491
 2232W        W17701   2.173  18.317   5.689  0.0565 -0.0561  0.2133
 2233W        W17702  14.702   3.611   2.027 -0.0221  0.1630  0.3499
 2234W        W17703  15.154   0.295   0.379  0.0532 -0.1560  0.1271
 2235W        W17704   3.347  14.682   1.949 -0.1905 -0.2903  0.1638
 2236W        W17705   0.834   3.967   2.469 -0.1456  0.2034  0.1749
 2237W        W17706  10.858   9.726   4.546  0.2050  0.1359  0.1739
 2238W        W17707  13.266   4.918  10.875 -0.1393 -0.1579 -0.1252
 2239W        W17708  16.665   6.876  14.957 -0.2139 -0.0933  0.1182
 2240W        W17709   5.488  16.377   0.143 -0.3079 -0.0084 -0.2450
 2241W        W17710  17.878   9.727  13.620 -0.0845  0.0629 -0.0844
 2242W        W17711  16.385   3.875   4.223 -0.1263  0.2840  0.0942
 2243W        W17712   0.884   3.450  14.830 -0.0981  0.1809 -0.0830
 2244W        W17713   2.151  13.752   2.817 -0.0507  0.0201  0.1112
 2245W        W17714  16.404   8.823   3.873 -0.0673  0.2604  0.1277
 2246W        W17715  17.299   5.705  13.835  0.0065 -0.4351 -0.0253
 2247W        W17716   7.805  16.148   1.373 -0.2955  0.3642  0.0092
 2248W        W17717  11.001   7.073  11.359  0.1302 -0.0522 -0.0003
 2249W        W17718   2.979  13.893  10.801  0.3111 -0.3320 -0.1011
 2250W        W17719  17.202  17.263   5.214  0.3164  0.2048 -0.1759
 2251W        W17720  10.017  12.337   5.057  0.2267  0.1005 -0.0130
 2252W        W17721  16.720   3.789  11.401 -0.1310  0.1289  0.0945
 2253W        W17722   1.161  16.372   5.373  0.0358 -0.3203  0.0818
 2254W        W17723  10.746   3.928   6.433  0.4482  0.2404 -0.0086
 2255W        W17724   9.732   3.266   3.337  0.1317 -0.2414 -0.0823
 2256W        W17725  18.538   4.281   2.248 -0.1105  0.1320  0.0369
 2257W        W17726  10.866   4.078   1.484 -0.0460 -0.4344 -0.3262
 2258W        W17727   8.537  12.832   0.252  0.1549 -0.2815  0.1373
 2259W        W17728   8.485  10.668   5.205 -0.1938  0.2358  0.0035
 2260W        W17729   5.240  15.256   5.611  0.2385  0.1346  0.1155
 2261W        W17730   7.199  12.714   2.673  0.0454  0.0396 -0.0247
 2262W        W17731  12.029   3.704  13.477 -0.0533 -0.0394 -0.0125
 2263W        W17732   3.583  14.743   0.990 -0.3129  0.0488 -0.1914
 2264W        W17733  16.190  10.042   1.177 -0.0541  0.0795 -0.1326
 2265W        W17734   5.736   4.138  11.683  0.1818  0.4461 -0.0713
 2266W        W17735   4.869   6.766  10.386  0.2620 -0.1638 -0.0804
 2267W        W17736  16.931  16.008  10.133 -0.3463  0.0653  0.1485
 2268W        W17737   9.293   3.549  11.533 -0.0118  0.0344  0.0940
 2269W        W17738   4.249  11.589  10.318 -0.2021  0.2099 -0.1971
 2270W        W17739   3.985   2.145   0.530  0.0317 -0.0362 -0.2779
 2271W        W17740   7.604  13.892  14.852  0.1098 -0.1763  0.0747
 2272W        W17741   3.653  16.594   2.280  0.0163 -0.1492 -0.1835
 2273W        W17742   3.936  17.323   1.987 -0.2205 -0.0415  0.0438
 2274W        W17743  13.675  10.383   2.266 -0.0520 -0.0991  0.1554
 2275W        W17744  17.828  15.509   2.699  0.0756 -0.1893 -0.0919
 2276W        W17745  16.700  17.160  15.058 -0.0383 -0.0497  0.0746
 2277W        W17746   7.262  15.203  12.918 -0.0566 -0.0693  0.5123
 2278W        W17747   5.228   5.052  10.334  0.0606  0.0671 -0.0009
 2279W        W17748   6.997  13.309   1.724  0.0757  0.1356  0.1285
 2280W        W17749   0.911   8.285  14.487  0.0832  0.0886  0.1065
 2281W        W17750   1.085  12.350  13.459 -0.0640 -0.0089 -0.2882
 2282W        W17751   9.048  16.411   0.444 -0.3486 -0.2042  0.1343
 2283W        W17752  15.992   3.651   0.642 -0.1149 -0.0373 -0.1758
 2284W        W17753  10.725  14.322   0.751 -0.0632  0.0512  0.0074
 2285W        W17754  11.358  18.432   3.033  0.1957  0.1985  0.0570
 2286W        W17755   4.275   4.154   5.132 -0.1721  0.0114  0.0355
 2287W        W17756   6.193   3.303  12.015  0.0630 -0.0537  0.0868
 2288W        W17757   6.192  14.371   1.897  0.1168  0.1771 -0.1558
 2289W        W17758   9.520   1.698   2.454 -0.0874  0.0028 -0.1417
 2290W        W17759   6.478  14.694  15.077  0.0319  0.2517  0.2058
 2291W        W17760   5.240   1.160  13.054 -0.1690 -0.2993 -0.3234
 2292W        W17761  12.838   4.555  13.710 -0.0740 -0.0362 -0.2532
 2293W        W17762   4.534   0.357  13.990 -0.1528 -0.1124  0.3314
 2294W        W17763   8.253  15.113   2.002  0.1564  0.1126  0.3392
 2295W        W17764  10.144   2.861   1.291 -0.0343 -0.0647  0.0768
 2296W        W17765   2.395   4.323   1.805  0.1666 -0.0021  0.1246
 2297W        W17766   3.154   8.538  14.860  0.1212  0.3496  0.0025
 2298W        W17767   5.168  17.588   3.972 -0.1394  0.1902 -0.3169
 2299W        W17768   7.831   4.173  15.231  0.0384 -0.2739  0.2105
 2300W        W17769   7.173  13.584   1.320 -0.1071 -0.2058  0.0752
 2301W        W17770   0.604   3.361  12.663  0.1743  0.1047 -0.1106
 2302W        W17771  11.753   1.609   4.185 -0.3758  0.2488  0.2283
 2303W        W17772  15.175   4.491  12.833 -0.2003 -0.1494  0.1774
 2304W        W17773  16.148   3.580  12.210  0.2282  0.1876  0.2178
 2305W        W17774  11.718   6.364   3.325  0.2088 -0.1666 -0.0647
 2306W        W17775   2.538   6.792   0.669  0.0217 -0.0666  0.1860
 2307W        W17776  12.382   5.453   9.882 -0.0410 -0.1993 -0.1341
 2308W        W17777  18.316   3.497  14.079  0.0432  0.1833 -0.1414
 2309W        W17778  16.565  16.773  14.117  0.3451  0.1748 -0.2753
 2310W        W17779   6.843  14.205  15.198 -0.0797 -0.1616 -0.0185
 2311W        W17780   3.570   8.266  10.331 -0.0171 -0.1495  0.0140
 2312W        W17781  15.660   2.374   3.038  0.3780  0.3045 -0.1142
 2313W        W17782   4.013   4.259  11.879 -0.1840 -0.0197 -0.1793
 2314W        W17783   5.662  10.570   5.309 -0.1976  0.1246  0.1467
 2315W        W17784  14.999   5.044  12.923 -0.0108  0.0646 -0.0600
 2316W        W17785   0.398  16.762  10.903 -0.1364 -0.0689 -0.0348
 2317W        W17786  13.051  12.988   1.480  0.0274 -0.0765  0.0673
 2318W        W17787  10.074   2.877  14.137  0.0324  0.5684 -0.1100
 2319W        W17788  18.375  10.618   0.958  0.1978 -0.1870  0.0565
 2320W        W17789   1.977  14.771  15.254  0.0206  0.1326 -0.1121
 2321W        W17790   7.704  16.420   0.871  0.4269  0.1802  0.1270
 2322W        W17791  13.523   2.284  11.331  0.1163  0.1492 -0.0287
 2323W        W17792   8.034   3.143  13.035  0.0528 -0.0559  0.2019
 2324W        W17793  16.095  18.012  11.844  0.0410  0.0231 -0.0897
 2325W        W17794   8.660   5.740  13.933  0.3056  0.0993 -0.0341
 2326W        W17795  10.339   1.217   3.840  0.1650 -0.1047  0.3017
 2327W        W17796   9.039   4.983   3.353 -0.2483  0.1525  0.2698
 2328W        W17797   1.135  15.171  12.646  0.0963 -0.0996  0.0283
 2329W        W17798   4.991  10.563  12.803 -0.0157 -0.1691  0.0230
 2330W        W17799  18.304   9.735   2.539  0.1719  0.0731  0.2876
 2331W        W17800  13.226  11.600   4.050 -0.1615  0.2140  0.1654
 2332W        W17801   4.679  10.781   1.717  0.1646  0.0231 -0.0571
 2333W        W17802   1.132  15.811   4.147  0.0562  0.1916 -0.0774
 2334W        W17803   4.063   8.349   1.195  0.0234  0.0394  0.0901
 2335W        W17804   1.018  18.268  15.200  0.0438  0.2387 -0.0039
 2336W        W17805  17.145   4.711  12.094  0.1365  0.2422 -0.0959
 2337W        W17806   6.503  15.749  13.467 -0.2474  0.0447  0.1935
 2338W        W17807  10.283  17.149   0.249 -0.3200 -0.3026 -0.2314
 2339W        W17808   2.112  10.455  12.420  0.1983 -0.1283  0.0351
 2340W        W17809   4.832  15.469   0.114 -0.0135  0.2334 -0.2179
 2341W        W17810   1.958   9.345  15.339  0.0644  0.1364  0.1309
 2342W        W17811   6.766  16.960  14.778 -0.1975 -0.0228 -0.1020
 2343W        W17812  14.619  14.607   3.805 -0.3711 -0.1255 -0.1105
 2344W        W17813   2.615   2.814  11.760  0.2222 -0.3638 -0.0807
 2345W        W17814   0.590  13.878   2.638  0.2141  0.0480  0.0176
 2346W        W17815  16.722   3.430  13.120  0.3254 -0.2628 -0.1263
 2347W        W17816  16.577   9.518  13.297  0.0386  0.0852  0.1505
 2348W        W17817   7.346   5.267   2.711  0.0996 -0.1083 -0.2549
 2349W        W17818   7.355  17.611   1.935  0.1876  0.0845  0.3502
 2350W        W17819  15.599  16.832   1.673  0.3033  0.0966  0.1146
 2351W        W17820  11.580   2.134   2.956 -0.0202 -0.1051 -0.0834
 2352W        W17821   4.602  13.582   0.997  0.0839  0.1302  0.2159
 2353W        W17822   9.469  16.011  12.527 -0.1699  0.0863 -0.0739
 2354W        W17823  16.868   7.011  15.409  0.1463 -0.2964  0.0352
 2355W        W17824  12.193   7.621   4.582 -0.1352  0.3461  0.2327
 2356W        W17825  12.487   0.675   0.637 -0.1991 -0.1675 -0.0010
 2357W        W17826  15.592   8.365  15.122 -0.2234  0.1424 -0.4183
 2358W        W17827  11.114   2.613  11.776 -0.0044 -0.2383  0.1863
 2359W        W17828  18.607  14.559   3.056 -0.1240  0.3279 -0.1558
 2360W        W17829   1.805   3.021  11.155  0.0200 -0.0478 -0.0947
 2361W        W17830   7.686  14.217   2.592 -0.0338  0.1082 -0.1630
 2362W        W17831  15.946   2.976  12.025  0.2982  0.1590  0.1923
 2363W        W17832   6.118  18.484  12.561  0.2433 -0.0020 -0.1137
 2364W        W17833  13.080  17.377  12.528  0.1210  0.1821 -0.1185
 2365W        W17834   3.374  10.386  15.613  0.1193  0.0175 -0.2588
 2366W        W17835  13.575   2.468   5.019 -0.0722 -0.0719  0.0428
 2367W        W17836   7.691   3.021   2.599  0.2935 -0.0602 -0.1345
 2368W        W17837   6.328   9.374  13.934  0.0919  0.1272 -0.0320
 2369W        W17838  15.264  14.831   5.530 -0.1447  0.1797  0.0463
 2370W        W17839  18.290   5.911  13.782  0.1136  0.0610 -0.1497
 2371W        W17840   7.397  11.597  15.461 -0.1298 -0.3309  0.1092
 2372W        W17841   4.381  15.848  11.434  0.0796 -0.3307 -0.0255
 2373W        W17842  18.103   4.584  14.344 -0.0666 -0.0850  0.0019
 2374W        W17843   0.117  18.531   0.342 -0.0035  0.0676  0.3133
 2375W        W17844   8.114  14.514   3.562  0.0718  0.0284 -0.0801
 2376W        W17845   2.418  10.341   5.079 -0.0766 -0.0543  0.3271
 2377W        W17846  10.313   6.014  13.076  0.2313 -0.1884 -0.3313
 2378W        W17847  17.699   3.871  11.005 -0.0312  0.1647  0.0515
 2379W        W17848   5.645   2.174   3.170  0.0094  0.1401  0.1449
 2380W        W17849  16.989  12.780   1.551  0.0643 -0.0624  0.0821
 2381W        W17850   7.286  13.306  14.284  0.2545 -0.3501 -0.0747
 2382W        W17851   3.414  18.509   3.617 -0.1437 -0.0576  0.1097
 2383W        W17852   9.981   4.302   4.243  0.1025 -0.2084 -0.0162
 2384W        W17853  11.545  10.989   0.147  0.3772  0.2931 -0.1367
 2385W        W17854   9.088  16.887  12.864 -0.2719 -0.1276  0.0290
 2386W        W17855   8.857   6.648  13.331  0.1690 -0.0470 -0.0936
 2387W        W17856   1.317  14.922   9.694 -0.1112  0.1179  0.0293
 2388W        W17857   5.502   7.305   0.522  0.2539 -0.2376  0.2031
 2389W        W17858  13.301  17.404   2.602 -0.3366  0.0754 -0.0478
 2390W        W17859  11.766  14.062   4.810  0.0902 -0.3548  0.1434
 2391W        W17860  10.320  18.611   6.516  0.4382  0.0088 -0.2511
 2392W        W17861  10.605   3.991  14.609  0.1230  0.0330  0.0297
 2393W        W17862  17.663  17.682   1.682  0.0056 -0.1613  0.0688
 2394W        W17863  16.373  13.258  14.892 -0.1110  0.1313  0.0743
 2395W        W17864   4.099   8.673   4.360 -0.1274  0.0080  0.0485
 2396W        W17865  15.245  13.107   4.514  0.0382 -0.1881 -0.1308
 2397W        W17866  14.433  12.418   3.943 -0.2561  0.0517  0.0496
 2398W        W17867  14.134  17.691  15.600  0.3091 -0.3187 -0.0247
 2399W        W17868   5.809  14.458  11.381 -0.2962  0.1650 -0.0226
 2400W        W17869   0.489  13.392   1.558  0.2149  0.1507  0.1720
 2401W        W17870  17.365  14.330   3.127  0.4079 -0.3093 -0.0307
 2402W        W17871  10.700   1.794   6.126  0.3811 -0.1551  0.2665
 2403W        W17872   0.768  10.367   4.585 -0.0109 -0.4688  0.1012
 2404W        W17873   5.899  14.321   2.343  0.2492 -0.1523  0.0779
 2405W        W17874   7.931  17.492   2.088  0.3168 -0.0605  0.0835
 2406W        W17875  15.168   2.603  11.016  0.0541  0.1183 -0.4081
 2407W        W17876   1.190  13.358   0.014  0.0530 -0.0273  0.1986
 2408W        W17877   8.684  15.080   0.866  0.0569 -0.2260 -0.0351
 2409W        W17878  11.748  13.997   2.259 -0.3232  0.0576 -0.4898
 2410W        W17879  10.779  10.285   0.793  0.0740  0.4496  0.2686
 2411W        W17880  10.681   9.956  14.750  0.4636 -0.2606  0.2197
 2412W        W17881  18.542   8.036  14.450 -0.1535  0.2259 -0.0960
 2413W        W17882   4.317  16.360   2.224  0.1311 -0.3655  0.2113
 2414W        W17883   6.997  16.296  15.517  0.2277 -0.0526  0.0729
 2415W        W17884   8.507   6.896  12.208  0.0216  0.4092 -0.2878
 2416W        W17885   5.422   3.594  14.176 -0.0771 -0.1154 -0.1587
 2417W        W17886  16.865  13.108   4.091  0.0956 -0.0045  0.3001
 2418W        W17887   1.576   8.349   2.531  0.1849  0.1800  0.2087
 2419W        W17888   3.455   6.346   9.709  0.5689  0.0678 -0.1051
 2420W        W17889   7.898   5.749   3.443  0.0488 -0.2424 -0.0012
 2421W        W17890   5.537   5.516  11.351 -0.0291 -0.1421 -0.1694
 2422W        W17891  14.187  14.128  11.313  0.0887 -0.2249 -0.1916
 2423W        W17892  17.285   2.709   0.065  0.1085  0.1326 -0.1245
 2424W        W17893   9.504  13.953   1.183  0.1464 -0.2639 -0.1993
 2425W        W17894  13.767  10.276   4.341  0.0166 -0.0733  0.1627
 2426W        W17895  11.552  14.870   1.863 -0.2478 -0.0394  0.0775
 2427W        W17896   1.181  14.374   2.207 -0.0883  0.0037 -0.2832
 2428W        W17897  14.573  11.593  10.380 -0.2420 -0.0414 -0.0708
 2429W        W17898   6.111  12.184  11.966  0.0924  0.2482  0.1710
 2430W        W17899   7.922  18.295   1.285 -0.1093  0.1227  0.1076
 2431W        W17900  12.914   6.912   2.127 -0.1180  0.4481 -0.0488
 2432W        W17901  16.764   9.803  15.722 -0.0241  0.1855  0.2550
 2433W        W17902  14.626  11.564  13.694 -0.1345 -0.0769  0.0614
 2434W        W17903   7.237  10.381   4.621  0.0008  0.1150  0.3035
 2435W        W17904  17.772   1.907   0.383 -0.3890  0.1071  0.1243
 2436W        W17905   8.696  16.278  13.027 -0.3481 -0.1571  0.0273
 2437W        W17906   0.076  17.064  14.855  0.0024  0.0365 -0.1595
 2438W        W17907  11.105  15.643  11.605  0.3431 -0.1203  0.2588
 2439W        W17908   5.452   4.419  13.718 -0.0829  0.2200 -0.2008
 2440W        W17909  12.109   2.757   4.875 -0.0558 -0.0393  0.1511
 2441W        W17910   6.127   6.509  12.764  0.0561 -0.0701 -0.2091
 2442W        W17911   3.831  17.808   4.749  0.1150 -0.3860  0.2650
 2443W        W17912   2.253  15.708   4.780  0.0787  0.2324 -0.4957
 2444W        W17913  13.240   2.976   3.425  0.0116  0.2062  0.0932
 2445W        W17914   0.484   1.861   1.112  0.0517  0.2217 -0.0059
 2446W        W17915  10.591  17.700  14.620  0.1149  0.0938 -0.2958
 2447W        W17916  13.113   7.316   1.851  0.1784 -0.2937 -0.0164
 2448W        W17917   0.546  12.298  12.707 -0.0564  0.1437 -0.0036
 2449W        W17918   4.705  12.640   3.537  0.0296  0.1321  0.0328
 2450W        W17919  11.875  18.033   4.663  0.0260  0.3056  0.0441
 2451W        W17920   0.095  11.459  11.307 -0.2885 -0.1612 -0.0836
 2452W        W17921   8.131  12.322  11.700 -0.1716  0.1188  0.0260
 2453W        W17922  14.758   1.914  13.665 -0.1421  0.0756 -0.3117
 2454W        W17923  12.809   0.374  13.128 -0.0251 -0.0634 -0.1230
 2455W        W17924  12.323  11.768   4.979 -0.1950  0.1686  0.2423
 2456W        W17925   4.812  15.043   3.391  0.1299 -0.2482 -0.0283
 2457W        W17926  10.200  11.396  11.130 -0.0037 -0.1132  0.0702
 2458W        W17927   5.960   6.754   3.642  0.0489 -0.1008  0.1022
 2459W        W17928   3.113   4.120  15.702  0.0181 -0.3438 -0.3288
 2460W        W17929   5.291   7.133  14.068  0.2779 -0.1707 -0.1897
 2461W        W17930   3.582   9.075   0.713  0.1626  0.0199  0.0492
 2462W        W17931   4.104   9.194  12.256  0.0324 -0.2910  0.0792
 2463W        W17932  13.389   2.324   3.940 -0.0357  0.0560  0.0383
 2464W        W17933   3.990   4.795   2.423 -0.1042 -0.1287  0.1702
 2465W        W17934  18.212   2.882   4.151 -0.2219 -0.5401 -0.1448
 2466W        W17935   2.622   9.432   1.509  0.2095  0.0308  0.0194
 2467W        W17936  11.968   3.505   6.267 -0.1586  0.0639 -0.0385
 2468W        W17937   3.779   0.978  11.154 -0.1255  0.0078  0.1238
 2469W        W17938   0.094  10.719   4.933  0.1304  0.3877  0.0347
 2470W        W17939   2.695   3.726   1.122  0.0014 -0.0053  0.0757
 2471W        W17940  12.814  14.716  15.676  0.0336  0.0654 -0.2305
 2472W        W17941  16.050  15.582  12.185  0.0505  0.0642 -0.0759
 2473W        W17942  11.081  16.190  14.171  0.3220  0.0049 -0.1600
 2474W        W17943  15.149   8.857  14.452 -0.2504 -0.0506 -0.0841
 2475W        W17944   3.277   5.656   4.964  0.1492 -0.2585 -0.0726
 2476W        W17945   0.783  16.808  13.779  0.1349 -0.0745 -0.2065
 2477W        W17946  11.073  18.586  14.784  0.0220 -0.2704 -0.1009
 2478W        W17947  15.899   3.773   4.937  0.0115  0.0279 -0.0433
 2479W        W17948  11.745  16.138  15.422 -0.0805 -0.0646  0.4305
 2480W        W17949   7.854  14.872  15.634  0.1399 -0.2581  0.0715
 2481W        W17950  13.694   0.079  13.303  0.1093  0.0404 -0.0712
 2482W        W17951   1.166  12.199   2.620  0.0863 -0.2808 -0.0461
 2483W        W17952   3.628   9.387  12.477  0.0637  0.0547 -0.1189
 2484W        W17953   8.695  11.138  10.427  0.1194  0.0562  0.4392
 2485W        W17954   1.334   5.676  14.490 -0.3198 -0.0532 -0.0518
 2486W        W17955  12.277  10.153  14.571  0.1760  0.1563  0.0323
 2487W        W17956  18.061   4.099   2.208 -0.1522 -0.2635  0.1873
 2488W        W17957  18.478   6.213   0.117 -0.0087  0.1824  0.1079
 2489W        W17958  15.519  12.127  14.888  0.0379 -0.1315  0.2900
 2490W        W17959  10.043  15.415   2.484  0.1200  0.0175  0.0103
 2491W        W17960  13.935   9.388  11.491 -0.0369  0.2336 -0.3087
 2492W        W17961   5.087  10.118   5.587 -0.1821  0.2701  0.0179
 2493W        W17962   5.418  17.887   1.671 -0.2871  0.0878 -0.1300
 2494W        W17963  13.796   2.161   0.764 -0.2008  0.0249  0.0486
 2495W        W17964  13.712  15.816   1.150  0.1388 -0.1160  0.1348
 2496W        W17965  17.442   1.017   1.787 -0.3146  0.0516  0.2730
 2497W        W17966   9.127   5.534   0.105  0.0021  0.0936  0.2209
 2498W        W17967  14.294   1.791  11.684  0.1182 -0.0580 -0.0055
 2499W        W17968   8.395   8.978   3.762  0.2336  0.1680 -0.1309
 2500W        W17969  12.945  12.212  15.628  0.0052  0.0769 -0.0573
 2501W        W17970   4.746   7.829  11.261  0.0986 -0.1651 -0.0240
 2502W        W17971   7.604  17.754   2.389  0.0415  0.1422 -0.1224
 2503W        W17972  14.015   6.031   3.501  0.2383 -0.0605  0.0965
 2504W        W17973  16.220  16.688   1.301  0.1698  0.0231  0.0704
 2505W        W17974   8.162  14.476  13.485  0.0836  0.2584  0.1643
 2506W        W17975   7.371   3.134   4.564  0.2128 -0.0078  0.0811
 2507W        W17976  13.361  11.821  15.369  0.0816  0.2110  0.0107
 2508W        W17977   9.545  15.572   2.134 -0.0539  0.1181  0.2157
 2509W        W17978  15.991  12.523   2.202 -0.0548  0.0606 -0.0787
 2510W        W17979  10.599  13.653   3.034  0.2534  0.1556 -0.3845
 2511W        W17980  11.880  15.376  14.624  0.0517  0.1496 -0.3323
 2512W        W17981   2.782   4.750   0.940 -0.2165  0.0725  0.2809
 2513W        W17982  11.793  18.101   0.533 -0.0067 -0.0109 -0.0256
 2514W        W17983  14.447   4.861   1.813 -0.0849  0.1450  0.2136
 2515W        W17984   9.381   2.704  14.124  0.2865  0.1009 -0.0046
 2516W        W17985   4.563   6.444  11.587  0.2070  0.2384 -0.2630
 2517W        W17986   1.716  13.094  15.596 -0.3005 -0.1629  0.0981
 2518W        W17987   1.624  13.927  14.910  0.1701  0.1428  0.0452
 2519W        W17988  17.062   0.656   1.107 -0.0681  0.1485  0.1075
 2520W        W17989  11.654   4.963  13.009 -0.1804  0.1694  0.0267
 2521W        W17990  10.222  12.532  13.698  0.1064  0.0206  0.0143
 2522W        W17991  11.647   6.545   0.657  0.0125 -0.1047 -0.2075
 2523W        W17992   2.843   4.656  13.094 -0.4087  0.0762  0.0251
 2524W        W17993  13.379  10.708  10.595 -0.2459 -0.0652  0.0031
 2525W        W17994   8.213   4.684   1.122 -0.3252 -0.0922 -0.1329
 2526W        W17995   6.996  17.678  14.133  0.0590 -0.3648  0.1634
 2527W        W17996   8.030   5.314   4.237 -0.0953 -0.1233 -0.3598
 2528W        W17997   3.118   8.244  15.712  0.2364  0.1511 -0.1568
 2529W        W17998   2.093  14.166   3.851  0.1287 -0.4011  0.1930
 2530W        W17999  13.405  12.085   3.242  0.2162  0.1002  0.0697
 2531W        W18000   7.609   3.872  14.031 -0.1738  0.0942 -0.1469
 2532W        W18001  16.691  10.431  13.307  0.0118 -0.2467  0.1551
 2533W        W18002  13.925  13.131   1.815 -0.1451  0.0610 -0.0767
 2534W        W18003   6.743  13.431  11.651 -0.0970  0.2513  0.3100
 2535W        W18004  16.839   3.934   5.251  0.4382  0.1466 -0.0899
 2536W        W18005   5.540  14.256  12.048 -0.1848  0.1035 -0.2914
 2537W        W18006  18.077  18.105  10.803 -0.0961 -0.1359  0.1591
 2538W        W18007  12.463  14.646  11.077 -0.1154 -0.1571  0.0101
 2539W        W18008  11.829  15.964  12.085 -0.0486  0.3738 -0.0270
 2540W        W18009  10.085   0.264   4.887  0.1714 -0.0690  0.0145
 2541W        W18010  10.971  15.934  11.991 -0.0839 -0.0193 -0.2598
 2542W        W18011   8.719  12.264   1.051 -0.0695 -0.0437  0.0522
 2543W        W18012   1.984  12.617   3.434 -0.1321  0.0499  0.2874
 2544W        W18013  12.975   2.490  10.389  0.2137  0.1056 -0.1663
 2545W        W18014  15.287  12.287  10.352 -0.0231  0.0610  0.1484
 2546W        W18015   2.945   7.229  15.537 -0.0715 -0.2613 -0.1000
 2547W        W18016  16.512   5.113   4.597 -0.1822 -0.1336  0.0194
 2548W        W18017   4.037   5.632  11.429  0.2291 -0.0706 -0.2877
 2549W        W18018  10.927  14.958  15.405 -0.0015 -0.0378 -0.0522
 2550W        W18019   5.643  15.442   1.483  0.1192  0.0906  0.1817
 2551W        W18020   4.491   1.822   4.365 -0.4368 -0.1231 -0.0839
 2552W        W18021  17.196   4.021   0.357 -0.1505  0.2167  0.1656
 2553W        W18022   6.569   9.116   4.787 -0.0249  0.0538  0.0095
 2554W        W18023  15.468   7.348   1.720 -0.0099 -0.2842 -0.1447
 2555W        W18024   5.388  16.705   3.879  0.2676  0.0574  0.0803
 2556W        W18025  11.704  15.493  15.639  0.0386 -0.0654 -0.1316
 2557W        W18026  17.692  11.333  13.104 -0.0292 -0.0953 -0.0722
 2558W        W18027  18.600   2.886   3.131 -0.0788  0.0894 -0.1453
 2559W        W18028   5.023  14.578   5.311 -0.0308  0.1803 -0.0082
 2560W        W18029   4.510   5.084   1.593 -0.0054 -0.1584 -0.3850
 2561W        W18030  11.940  17.231  11.287  0.2693 -0.1942  0.1190
 2562W        W18031  11.949   5.645  11.086  0.1755 -0.0663 -0.1888
 2563W        W18032   2.760   8.345   0.459  0.1253  0.2644 -0.1171
 2564W        W18033   3.674  16.390   0.903  0.0847 -0.2065  0.1441
 2565W        W18034  14.750   5.318   1.370 -0.3918  0.0663 -0.0413
 2566W        W18035  16.806   3.518   4.921 -0.2308 -0.1173 -0.2314
 2567W        W18036  17.220   4.087   3.993 -0.2439  0.0047 -0.3659
 2568W        W18037  11.205   9.241   2.638  0.3726 -0.0569  0.1744
 2569W        W18038  10.671  12.611  13.533 -0.0689 -0.0469 -0.0201
 2570W        W18039  17.547  15.029  11.773 -0.0552  0.0551  0.2852
 2571W        W18040   9.268  12.519  13.515  0.0139 -0.2130  0.0636
 2572W        W18041   1.998  15.197  11.911  0.0906 -0.5110 -0.0573
 2573W        W18042  14.770  16.848  12.307  0.2956  0.0125 -0.0853
 2574W        W18043  12.292  10.665   2.998  0.1835  0.0817  0.0357
 2575W        W18044  15.048   9.419  13.791  0.1617 -0.0453  0.1712
 2576W        W18045   5.334  11.197   4.073 -0.0400  0.1866 -0.0551
 2577W        W18046   4.081   1.265   1.125  0.0885  0.2253 -0.1148
 2578W        W18047  14.639   3.419   3.170  0.0589  0.2620  0.0456
 2579W        W18048   5.498   8.128  12.252 -0.2323  0.1977 -0.2182
 2580W        W18049  16.165   3.118  11.023  0.0103  0.2203  0.0339
 2581W        W18050  17.057  10.993   2.069 -0.0975 -0.0880  0.0657
 2582W        W18051   2.405  17.059   0.107 -0.3112 -0.1482  0.2794
 2583W        W18052   9.510  17.878   0.269  0.0882 -0.2446  0.0074
 2584W        W18053  10.337   0.490   0.048  0.1063 -0.2210 -0.1921
 2585W        W18054  16.267   5.168   3.126  0.0389  0.1457  0.0538
 2586W        W18055  10.038   6.928   3.504 -0.2248 -0.0783 -0.1780
 2587W        W18056   0.428   6.604   0.240 -0.3785 -0.0378  0.1295
 2588W        W18057  10.336   5.727   1.077  0.3388 -0.0757  0.1119
 2589W        W18058   4.692   5.796   1.819  0.2444 -0.2053 -0.2361
 2590W        W18059   2.675   3.397  10.854  0.2529 -0.1089  0.0869
 2591W        W18060   1.787   2.095   4.309 -0.2518 -0.0964 -0.0882
 2592W        W18061   7.509  15.672  11.630 -0.2774  0.1902 -0.2211
 2593W        W18062  16.233  11.720   1.202  0.0030  0.0422  0.0945
 2594W        W18063   8.423  15.220   2.499 -0.1797 -0.1538  0.1016
 2595W        W18064   4.578  14.248   5.039  0.2589  0.3132 -0.1970
 2596W        W18065   9.220   0.407  14.631 -0.0376 -0.1301  0.0909
 2597W        W18066   6.212  13.916  14.980 -0.0765 -0.2282  0.4400
 2598W        W18067   4.564  18.216  11.660 -0.4985  0.3434  0.0415
 2599W        W18068  14.657   3.483   4.282  0.3051  0.0800  0.1493
 2600W        W18069  15.640  16.663  10.228  0.0337 -0.1146  0.0150
 2601W        W18070   7.964  11.058   1.371 -0.3224 -0.1613 -0.0980
 2602W        W18071   9.443  15.557   9.703 -0.1307 -0.0333 -0.2013
 2603W        W18072   0.981  15.549  14.242 -0.0308  0.0245  0.0508
 2604W        W18073  12.402  16.469  15.376  0.2001 -0.0334 -0.0544
 2605W        W18074   5.849  14.488   0.578 -0.1575 -0.2018 -0.1131
 2606W        W18075   8.171  18.551  13.993 -0.2177  0.4644  0.0916
 2607W        W18076   0.622   2.548  14.401  0.4088 -0.4914  0.2740
 2608W        W18077  10.588   2.623   4.569 -0.1869 -0.0454 -0.0949
 2609W        W18078   8.963   3.510  14.855 -0.2552  0.1185 -0.3821
 2610W        W18079  18.080  13.345  13.944 -0.2442 -0.0011  0.2410
 2611W        W18080   8.878   2.248  13.376  0.0548 -0.1796 -0.0185
 2612W        W18081   7.766   3.941   1.530 -0.0905  0.0280 -0.2573
 2613W        W18082  15.759  14.635  12.352  0.1230 -0.0848 -0.1254
 2614W        W18083  15.232  15.333   1.639  0.2193  0.1412 -0.0734
 2615W        W18084  14.058   1.477   1.028  0.1296 -0.0968  0.2569
 2616W        W18085   3.570  10.639  14.690 -0.1417 -0.1943  0.1497
 2617W        W18086  15.851  12.346   4.571 -0.1908  0.2218  0.1326
 2618W        W18087   5.588   1.376   0.631  0.1872 -0.2234 -0.0423
 2619W        W18088   5.986  16.407   5.336 -0.2170  0.2130 -0.1636
 2620W        W18089   1.726   6.915  12.992  0.1085  0.1521 -0.0417
 2621W        W18090   1.355   8.050   1.640 -0.1951 -0.1615  0.0328
 2622W        W18091   0.313   9.184   3.979 -0.3128 -0.1096  0.1124
 2623W        W18092  13.921  12.988   4.484  0.1546  0.0321 -0.1567
 2624W        W18093   6.633   9.718  12.378  0.1343 -0.0162  0.0012
 2625W        W18094   0.952   4.666   0.263 -0.2477 -0.1909  0.2542
 2626W        W18095  13.088   0.109  11.368 -0.1569  0.2366 -0.0355
 2627W        W18096  17.388   6.861   1.164  0.1217 -0.1897 -0.2918
 2628W        W18097  16.411  11.185  12.470  0.0618  0.1894  0.1094
 2629W        W18098  14.997  11.078   9.955  0.1517  0.0124 -0.0197
 2630W        W18099   1.961  16.858   0.468 -0.2587  0.3235  0.0899
 2631W        W18100  15.072  18.612   3.454 -0.2496  0.0880  0.1044
 2632W        W18101   1.566   3.273   1.163  0.1264  0.0518 -0.0830
 2633W        W18102  12.152  13.917   1.957 -0.0456  0.1239 -0.0526
 2634W        W18103   4.065   1.275   3.327  0.2384  0.1889 -0.1089
 2635W        W18104   5.541   1.605   1.207 -0.1310  0.1172  0.0340
 2636W        W18105  11.161   6.173   4.062 -0.3097  0.0702 -0.1927
 2637W        W18106   8.588  15.052   1.453 -0.0958 -0.0642  0.0133
 2638W        W18107  17.457  11.811   1.552  0.2142  0.2087  0.0244
 2639W        W18108   6.107  18.086   3.941 -0.2108 -0.1136 -0.2840
 2640W        W18109   0.389  11.666  12.042  0.3667 -0.4118 -0.0468
 2641W        W18110   0.542   4.354   1.474  0.0805 -0.2405 -0.0685
 2642W        W18111   2.616   9.384   2.570  0.0684 -0.2846  0.0157
 2643W        W18112  15.223  17.266   0.335  0.1783  0.0663  0.2503
 2644W        W18113  12.401   7.520   0.413  0.0742  0.1290 -0.1602
 2645W        W18114   3.209  17.310  10.098 -0.1358  0.0092  0.1409
 2646W        W18115   2.865   3.401   5.331 -0.0522  0.3918  0.1131
 2647W        W18116  15.421   0.427  14.258  0.3078  0.1816  0.0732
 2648W        W18117   4.003  16.756  15.362 -0.1959  0.1802 -0.3545
 2649W        W18118  12.602   4.472   3.984 -0.0622  0.2018 -0.1582
 2650W        W18119   8.391   1.305   4.391 -0.0950 -0.0340  0.1891
 2651W        W18120  15.009  12.507   4.199  0.1445 -0.1859  0.1392
 2652W        W18121  18.072  12.618  13.295  0.2805  0.1804 -0.0634
 2653W        W18122  12.952   2.034   3.985  0.3801  0.0959 -0.4037
 2654W        W18123   0.475  18.492  11.893  0.0240 -0.1291 -0.0947
 2655W        W18124   8.770   8.874   4.540  0.0593  0.0343  0.0689
 2656W        W18125  10.609  15.935   4.990 -0.1525  0.0123 -0.0200
 2657W        W18126  14.274  14.518  15.410 -0.2361  0.3187  0.0291
 2658W        W18127  11.023   8.317  15.592 -0.0087 -0.1726 -0.3300
 2659W        W18128   6.202   2.317  13.516  0.3949 -0.2966  0.3471
 2660W        W18129   7.859   4.076   0.046  0.0623  0.1423  0.0437
 2661W        W18130  11.080  15.631  12.610  0.1226  0.2287  0.4228
 2662W        W18131   4.056  16.689   1.972  0.4457 -0.2744 -0.0544
 2663W        W18132  10.030  15.035   4.709  0.2456  0.1804 -0.1614
 2664W        W18133  17.614  13.620  15.280 -0.1480  0.0495 -0.2648
 2665W        W18134   6.611   4.385   3.818 -0.1204 -0.2093 -0.0446
 2666W        W18135   3.997   0.682  15.601 -0.3585 -0.2155  0.2481
 2667W        W18136   1.438  14.858  14.804  0.0792  0.0109  0.0817
 2668W        W18137  15.527   3.005   4.342  0.1527 -0.1012 -0.3267
 2669W        W18138   3.822   3.214   1.280  0.1974  0.2447 -0.3843
 2670W        W18139   6.631  15.267   3.542  0.2326  0.2842  0.1560
 2671W        W18140   8.724  18.502  13.953 -0.1592  0.2781  0.2429
 2672W        W18141   9.467   1.858   3.351  0.0325  0.5858 -0.2071
 2673W        W18142   6.507   3.605  11.561  0.2042 -0.1854  0.1196
 2674W        W18143  16.653  11.150  11.717  0.1654 -0.3574 -0.0546
 2675W        W18144  16.394   8.281   1.456  0.2665  0.1257  0.1885
 2676W        W18145   4.508  10.242   1.166 -0.2698  0.0203 -0.1235
 2677W        W18146  11.432  17.054  13.631  0.1232  0.3485  0.0079
 2678W        W18147   8.172   8.112  10.778 -0.1237 -0.1464 -0.1184
 2679W        W18148   0.466   4.998   0.976  0.0676  0.0387  0.1743
 2680W        W18149  16.936   8.591  14.640  0.0909 -0.0962  0.1399
 2681W        W18150   6.927   5.372  13.902 -0.1213  0.1421 -0.1665
 2682W        W18151  16.467   2.024   1.337  0.0026 -0.2612  0.2213
 2683W        W18152   2.915  16.661   1.403  0.0051  0.1014 -0.0966
 2684W        W18153   3.878  11.090  14.157  0.2358  0.2985 -0.1099
 2685W        W18154   3.634   2.580  11.273  0.0530  0.1633 -0.1122
 2686W        W18155   8.810  10.527   0.678  0.0149  0.1079  0.0452
 2687W        W18156  10.388  17.696   1.564 -0.3480 -0.0825  0.0332
 2688W        W18157  15.184   2.788  14.841 -0.0974  0.4146  0.2640
 2689W        W18158   8.490   2.597   4.298  0.0291 -0.1502 -0.3610
 2690W        W18159  13.397   4.265   5.225  0.2031  0.0381 -0.3037
 2691W        W18160  11.309   1.392   0.273 -0.4386  0.0344 -0.3517
 2692W        W18161   8.969  11.251   1.443 -0.0208 -0.3821  0.1845
 2693W        W18162  12.402  14.173  12.981  0.1416 -0.0066 -0.0927
 2694W        W18163  16.044  15.041   3.167 -0.1755 -0.2516 -0.0496
 2695W        W18164   1.236  13.099  11.494 -0.0865 -0.2298  0.2392
 2696W        W18165  16.181  13.272   2.680  0.2759 -0.0299  0.4612
 2697W        W18166   9.381  14.151   1.977 -0.5350 -0.1930 -0.1385
 2698W        W18167  16.408   7.695  13.152 -0.1034  0.0120 -0.0533
 2699W        W18168   9.731   1.551   2.892 -0.1194 -0.2582 -0.0945
 2700W        W18169   8.867   4.226  10.782 -0.0844  0.3454 -0.1196
 2701W        W18170  13.614  16.522  15.758  0.1800  0.2494 -0.0374
 2702W        W18171  10.612  12.270  11.414  0.1975 -0.0971  0.1692
 2703W        W18172  10.576   1.990   0.295  0.3097 -0.2432  0.0572
 2704W        W18173  14.673   3.932   0.505  0.0260  0.0125  0.0091
 2705W        W18174   9.942  16.204   2.792 -0.0395  0.2395  0.3079
 2706W        W18175   6.497   7.312   0.070 -0.2553  0.3444 -0.0627
 2707W        W18176  15.960   1.683   1.883  0.1674 -0.2721  0.1411
 2708W        W18177   3.419  11.904   3.038 -0.1887 -0.2393 -0.0628
 2709W        W18178   6.443  11.329  10.393 -0.0379  0.2386 -0.1103
 2710W        W18179   9.313   7.362  12.300 -0.1770 -0.0036  0.0868
 2711W        W18180  10.528  16.338   2.285 -0.1555  0.0821  0.4566
 2712W        W18181   9.561  10.658  13.492  0.1034 -0.0694 -0.0059
 2713W        W18182  17.758   3.402  10.227 -0.2712 -0.1060  0.0211
 2714W        W18183  17.542   5.779  10.115 -0.1455  0.0391  0.0978
 2715W        W18184   1.838   7.101  11.802  0.0901 -0.0851 -0.1497
 2716W        W18185  10.319   6.762   5.548  0.1683  0.3019  0.1251
 2717W        W18186   4.356   6.454  12.956  0.0080  0.0408 -0.0308
 2718W        W18187   1.230   1.929  13.831 -0.2732 -0.0717  0.1424
 2719W        W18188   3.851  18.559  15.405  0.2619  0.2424 -0.0853
 2720W        W18189   7.898   9.277   5.598  0.1632 -0.0449 -0.0155
 2721W        W18190   5.637  13.863   4.394  0.1525 -0.0749 -0.1725
 2722W        W18191   9.001   0.793   1.912  0.1055  0.1712  0.0053
 2723W        W18192  16.380  10.930   1.304 -0.1939  0.2290  0.0073
 2724W        W18193   1.254   3.326  14.458 -0.2181  0.0269 -0.2368
 2725W        W18194  14.307   2.803  11.835  0.2973  0.0521 -0.1677
 2726W        W18195  11.575  13.737   4.245  0.1761  0.1129  0.1806
 2727W        W18196   5.805   0.081  11.653 -0.4462 -0.1451  0.0321
 2728W        W18197  17.767   9.766  15.540  0.0894 -0.3565 -0.0342
 2729W        W18198  14.234   3.968  11.957  0.3197  0.1517  0.0788
 2730W        W18199  11.470   2.070   4.267  0.2812 -0.2129  0.1607
 2731W        W18200   8.880  11.967   5.802 -0.0416 -0.1574 -0.1909
 2732W        W18201  10.275  10.236   0.988 -0.1863 -0.0433  0.0361
 2733W        W18202   3.338   4.885   0.186  0.1873  0.1679 -0.1596
 2734W        W18203  13.450   7.677  14.204 -0.0850  0.0083  0.1092
 2735W        W18204  17.079   3.555   1.686  0.2394 -0.2253  0.0757
 2736W        W18205  14.395  15.031  12.369  0.0597 -0.0991 -0.0613
 2737W        W18206  10.604  15.610  11.208 -0.1123  0.1220  0.1347
 2738W        W18207  14.055   8.999   5.163 -0.2476 -0.1713 -0.1352
 2739W        W18208   1.130  14.758   1.880 -0.1112  0.2351 -0.2235
 2740W        W18209  14.400   3.837  12.833  0.2206 -0.0884  0.1969
 2741W        W18210   9.639  12.774   0.901  0.0197 -0.3311  0.0995
 2742W        W18211  16.145   4.353  14.800 -0.2854  0.0010 -0.1494
 2743W        W18212  15.791   5.583  12.226 -0.0873  0.2490  0.3130
 2744W        W18213  14.029  10.145  12.358  0.0026  0.0049 -0.0336
 2745W        W18214  12.078  17.218   0.136  0.2219 -0.1835  0.0321
 2746W        W18215   8.516  18.062   3.575  0.1852 -0.0150 -0.1279
 2747W        W18216  14.212   6.012   0.846 -0.0842  0.3013 -0.3347
 2748W        W18217  11.244   3.207  12.879 -0.2663 -0.2803 -0.1557
 2749W        W18218   9.482  11.103  15.555 -0.5944 -0.0139 -0.1802
 2750W        W18219   9.755   7.894  14.232  0.0589 -0.2387 -0.3136
 2751W        W18220   9.668   7.879   3.327 -0.0058  0.0050  0.0838
 2752W        W18221  13.937   6.748  11.012 -0.2434 -0.4927  0.0507
 2753W        W18222   8.173  10.568   4.793  0.1135 -0.1466  0.0166
 2754W        W18223  17.227   3.384  11.647  0.0380  0.1333 -0.0805
 2755W        W18224  10.157   4.040   4.727 -0.0720 -0.2282  0.1661
 2756W        W18225  17.990   1.800  15.033 -0.3303  0.1954 -0.0614
 2757W        W18226   1.141   0.513  10.637 -0.1969  0.0985  0.4178
 2758W        W18227   2.345  15.323   1.784 -0.0909  0.1697  0.1511
 2759W        W18228  17.254   0.189   4.881 -0.0425  0.5346 -0.0120
 2760W        W18229   9.697  11.899   3.859 -0.1475  0.3646  0.1537
 2761W        W18230   6.682  13.631   4.820  0.3545  0.2901 -0.0311
 2762W        W18231   4.368   3.103   4.480 -0.2447 -0.2773 -0.2037
 2763W        W18232   6.251  15.015  14.244  0.2277  0.2920  0.1081
 2764W        W18233   9.860  12.574  11.960 -0.7624 -0.0513  0.1562
 2765W        W18234   5.470   0.707  14.449  0.0150  0.1811  0.0436
 2766W        W18235  18.484  18.206   1.667  0.2991 -0.1935 -0.1329
 2767W        W18236   2.306   9.396  14.453 -0.4962  0.0235  0.2598
 2768W        W18237   4.942   4.193  10.488  0.0098 -0.3642  0.4189
 2769W        W18238  13.035   8.299   2.126 -0.0899  0.2924 -0.3382
 2770W        W18239   9.282  17.926   1.747 -0.0476  0.4066 -0.0177
 2771W        W18240   2.760   6.456  14.438 -0.2577  0.0731 -0.0408
 2772W        W18241   5.895  13.857   4.829  0.2465 -0.0915 -0.0273
 2773W        W18242  11.147   1.654   5.926 -0.0805  0.2420 -0.1844
 2774W        W18243  17.224   1.008   3.252 -0.1125  0.0426  0.0629
 2775W        W18244   9.156  17.152  14.000  0.3336 -0.1425  0.2984
 2776W        W18245   9.739   6.484   2.651  0.0026  0.0449 -0.4608
 2777W        W18246  16.013  11.914   3.472 -0.1151  0.1261  0.0221
 2778W        W18247  10.638  12.012  12.761 -0.0326  0.2319  0.1212
 2779W        W18248   0.782  15.983   3.242 -0.2276 -0.1187  0.3534
 2780W        W18249   6.806  17.712  15.072 -0.3868  0.0121  0.0428
 2781W        W18250  13.374   2.055   6.020 -0.0590 -0.2685  0.2475
 2782W        W18251   3.310  15.611  12.710  0.4776 -0.2500 -0.5380
 2783W        W18252   5.376   1.163  10.858  0.0011 -0.0980  0.4220
 2784W        W18253  18.180   4.078  12.408  0.2361 -0.4162 -0.1850
 2785W        W18254   2.642   6.149   3.806  0.1476  0.0178  0.0593
 2786W        W18255  16.297   1.572  12.101 -0.2663 -0.1217  0.1740
 2787W        W18256  10.283   9.430  11.369  0.0803  0.2274  0.4613
 2788W        W18257  10.407   6.661   3.846  0.0882 -0.3149 -0.0457
 2789W        W18258  17.943   4.074   0.463 -0.0910  0.1953 -0.3104
 2790W        W18259  14.183   9.907  11.385  0.1420 -0.2512 -0.1290
 2791W        W18260   1.369   7.536  11.151  0.3446 -0.0830 -0.2535
 2792W        W18261   0.349   4.550  10.827 -0.1799 -0.1074  0.1244
 2793W        W18262   7.098   2.268  14.726 -0.0470  0.2458  0.0316
 2794W        W18263   4.785  13.043   1.820 -0.0220  0.1918  0.0133
 2795W        W18264  11.603  16.602  13.374 -0.0711  0.0065 -0.2207
 2796W        W18265   5.702  10.876   1.325  0.1906 -0.2022  0.1425
 2797W        W18266  10.056  11.964   2.639  0.1439  0.0781 -0.1945
 2798W        W18267   0.548  13.797   1.216  0.0285 -0.0529 -0.0023
 2799W        W18268  15.018   8.958  15.483 -0.1387 -0.0828  0.1268
 2800W        W18269   8.068   7.947   1.392 -0.0191  0.0394  0.0520
 2801W        W18270   4.801   8.553  13.647  0.1110 -0.0843  0.0435
 2802W        W18271   9.165   7.405  12.795 -0.2823 -0.1807  0.3088
 2803W        W18272  16.737   7.538  15.679  0.4000  0.0138 -0.0177
 2804W        W18273  13.729  18.007  11.438  0.0961 -0.0198 -0.2402
 2805W        W18274  13.748   0.960   3.766 -0.1533 -0.3303 -0.1503
 2806W        W18275  15.712   6.388  11.833 -0.1834  0.4968 -0.1049
 2807W        W18276  14.235  18.346   1.304  0.0127 -0.0029 -0.1121
 2808W        W18277   3.026  12.211   4.830 -0.0310 -0.1133 -0.1596
 2809W        W18278   2.453   7.628  10.642 -0.0710 -0.3114 -0.4586
 2810W        W18279   5.960   7.253   2.769  0.1554  0.0169 -0.2590
 2811W        W18280  12.156   4.997  13.029  0.1607  0.4321  0.1650
 2812W        W18281   9.457   6.643   4.677 -0.2047 -0.1508  0.3765
 2813W        W18282   3.675  14.857   3.663 -0.0055 -0.2344  0.0061
 2814W        W18283   2.768   9.048  15.652 -0.1149 -0.1406 -0.3694
 2815W        W18284   7.599  18.139   2.835  0.2084  0.2025 -0.0331
 2816W        W18285  13.333  12.692   0.778 -0.0463 -0.0982  0.2086
 2817W        W18286   1.422  18.625  15.222  0.1063 -0.1942 -0.2611
 2818W        W18287  12.522  17.510   2.456  0.2525  0.2718 -0.1365
 2819W        W18288  12.897  12.392  14.661  0.0413 -0.0462 -0.1634
 2820W        W18289  13.791   2.034   3.723  0.2423 -0.3130 -0.2827
 2821W        W18290   1.502  11.152   1.074  0.2319  0.0321  0.1452
 2822W        W18291   1.744   9.901  15.176 -0.1050  0.1772  0.0448
 2823W        W18292  15.904   4.928   0.361 -0.2628 -0.0545 -0.1614
 2824W        W18293   0.615  11.137  12.900 -0.1612  0.0757  0.1193
 2825W        W18294   3.770   4.121  12.930  0.2880  0.1950 -0.0390
 2826W        W18295  10.146   4.322   5.223  0.0855 -0.3327 -0.3054
 2827W        W18296   6.487  15.256   1.478 -0.1912  0.1930  0.0446
 2828W        W18297   3.884   3.877   5.145 -0.3083 -0.0383 -0.0493
 2829W        W18298   6.266   8.657   1.851 -0.0576  0.0610 -0.1943
 2830W        W18299  11.793   2.433   0.523  0.0410 -0.2675 -0.0887
 2831W        W18300   0.008   6.723  11.618 -0.3059  0.0953  0.0996
 2832W        W18301   8.454  11.415   3.027  0.1153  0.0114  0.1790
 2833W        W18302   9.218   8.151   0.719 -0.2040 -0.3444  0.0518
 2834W        W18303   9.238  11.006  13.368 -0.1072 -0.1825  0.2140
 2835W        W18304   8.338  16.250   5.612  0.2081 -0.1266 -0.1277
 2836W        W18305  11.864  15.292   5.127  0.1166  0.3368  0.0925
 2837W        W18306  16.289  13.603   0.418 -0.4137  0.0424 -0.0945
 2838W        W18307   1.156   9.223   2.025 -0.3095 -0.1159  0.6240
 2839W        W18308  16.226  17.078  13.966  0.1713 -0.1331  0.1405
 2840W        W18309   7.699  14.816   3.345 -0.5101  0.3612  0.0369
 2841W        W18310   6.144   6.951  12.397 -0.1911  0.1620  0.0304
 2842W        W18311  14.321   0.814  11.437 -0.1926  0.2495 -0.1660
 2843W        W18312  12.884  10.813  12.884  0.0134 -0.0747 -0.0449
 2844W        W18313   0.767  15.575  15.145  0.1133  0.0808  0.0904
 2845W        W18314   5.819   1.864   4.845 -0.2568  0.2379  0.2312
 2846W        W18315   6.968  13.864   5.168 -0.4574 -0.1020 -0.0633
 2847W        W18316  16.250  18.411  14.812 -0.3129 -0.1129 -0.0047
 2848W        W18317   9.045  11.718   1.775  0.0122  0.2401  0.0892
 2849W        W18318  13.581  14.377  14.848 -0.1105  0.0057  0.2325
 2850W        W18319  14.290  11.117  10.610 -0.1899 -0.4246 -0.0544
 2851W        W18320   0.807  14.065  15.258  0.1791  0.4264  0.2906
 2852W        W18321   4.000  14.505   1.742 -0.0286 -0.0361 -0.0417
 2853W        W18322   5.671  10.005  12.343  0.0587  0.0085  0.0365
 2854W        W18323  15.891   8.667   3.018  0.2351 -0.2201  0.0299
 2855W        W18324  16.281  10.819  11.750 -0.0510  0.1026 -0.2522
 2856W        W18325   8.222   7.697   5.013  0.1208 -0.1271 -0.2272
 2857W        W18326   4.228   2.573   0.617 -0.0067  0.1045  0.1447
 2858W        W18327  11.371   0.355  14.829  0.1792  0.1715  0.1590
 2859W        W18328  17.103  17.025   1.358  0.0982  0.4591 -0.3721
 2860W        W18329   9.217  11.553   3.508 -0.2488  0.3512 -0.0599
 2861W        W18330  13.060  11.889  14.122  0.0124  0.3532 -0.0234
 2862W        W18331   3.870  11.634   4.953 -0.0831 -0.3028 -0.1431
 2863W        W18332  16.492  14.066  12.657 -0.0766  0.1752  0.1106
 2864W        W18333  17.258  12.790  14.727 -0.2143  0.2555 -0.1139
 2865W        W18334   8.445   5.415   1.531 -0.2156 -0.3441  0.1571
 2866W        W18335   8.150   2.929  11.781 -0.1842 -0.2384 -0.2892
 2867W        W18336   2.530   7.351   2.607  0.0719 -0.1693 -0.0830
 2868W        W18337   5.898  12.538  11.690 -0.1089  0.1748 -0.1471
 2869W        W18338   9.564  15.664  12.091  0.0763 -0.0536 -0.2898
 2870W        W18339   9.686  16.701  14.976 -0.4359  0.1139  0.0264
 2871W        W18340  14.592  15.969   5.693  0.0474  0.0639 -0.1727
 2872W        W18341  15.407   9.919  12.313 -0.2113 -0.0275 -0.1662
 2873W        W18342  12.762   8.188  11.549 -0.3087  0.0708 -0.3869
 2874W        W18343   5.626  16.575   5.085  0.0611 -0.1742  0.0782
 2875W        W18344  13.819  10.808   4.225  0.2756 -0.0549  0.2226
 2876W        W18345  11.250  17.473  12.820 -0.3581  0.0904  0.2381
 2877W        W18346   8.906   8.038   0.279 -0.1624  0.0099 -0.4214
 2878W        W18347  14.405  11.314  11.317  0.0133  0.0908 -0.2125
 2879W        W18348   3.152   8.546  13.608  0.0921 -0.0559  0.2551
 2880W        W18349   2.615  13.954   3.232 -0.3494  0.0843  0.1013
 2881W        W18350  12.539  11.594   0.735  0.1000  0.0310  0.0801
 2882W        W18351   6.291   4.573  14.374 -0.0001 -0.0300 -0.0710
 2883W        W18352   9.749   5.741  13.238 -0.0677 -0.0035 -0.2680
 2884W        W18353  17.741   6.855   3.893  0.1443 -0.1317  0.1999
 2885W        W18354  16.184  14.746  13.951 -0.0524 -0.2314 -0.0786
 2886W        W18355   1.001   6.552  15.324  0.3459  0.0536 -0.0537
 2887W        W18356  11.691   5.946  11.556  0.2866 -0.1924 -0.1230
 2888W        W18357   3.810  14.720  13.560 -0.2570 -0.1810  0.3916
 2889W        W18358   3.841  17.504   4.311  0.0948  0.1039 -0.1257
 2890W        W18359   5.536  11.424  15.233 -0.0661 -0.1073  0.1616
 2891W        W18360   8.205   7.303   3.887 -0.0493 -0.3585 -0.1571
 2892W        W18361   9.391  16.094  11.977 -0.2836 -0.2146  0.0209
 2893W        W18362  16.823   2.810   2.232 -0.0883  0.1811  0.1398
 2894W        W18363   6.467   5.051   4.789 -0.0394  0.0739 -0.2953
 2895W        W18364  15.235   6.280   2.425  0.0975  0.0636  0.1182
 2896W        W18365   7.755  12.660   0.807 -0.0016 -0.1144 -0.3212
 2897W        W18366  11.091  13.988   3.885 -0.1127  0.0765 -0.1652
 2898W        W18367   9.631  17.187   2.287 -0.0598  0.0670 -0.0492
 2899W        W18368   5.252   7.558  13.510 -0.1266  0.1453 -0.1287
 2900W        W18369   2.457  14.729   4.020  0.2078 -0.0672  0.1265
 2901W        W18370  16.045   8.387  13.754  0.1045 -0.3036 -0.1982
 2902W        W18371   9.495   2.952  12.297 -0.1561  0.0311 -0.3114
 2903W        W18372  18.036   5.090  14.173  0.0383  0.0291 -0.0199
 2904W        W18373   8.728   7.387  11.564 -0.2209 -0.2076  0.0819
 2905W        W18374   7.908  16.184   5.439  0.2930 -0.0140  0.2584
 2906W        W18375   5.240   5.387  15.518 -0.0639 -0.1618 -0.2317
 2907W        W18376   7.973  13.446   3.594  0.4589 -0.0960  0.2904
 2908W        W18377  16.734  13.439   4.506  0.1634 -0.2943 -0.0653
 2909W        W18378   4.661   0.753  13.747 -0.0919  0.0286  0.0179
 2910W        W18379   4.525   1.469   4.693  0.2282  0.3740  0.0550
 2911W        W18380  10.225   7.993   4.159 -0.3609 -0.1916 -0.0987
 2912W        W18381  11.529   1.231  11.739  0.1889  0.2148 -0.0695
 2913W        W18382  11.629   7.356   5.349 -0.2904  0.0061  0.0846
 2914W        W18383  12.616   1.131  12.343 -0.0587 -0.0868 -0.0174
 2915W        W18384   1.823   5.675  14.381 -0.3014 -0.2675  0.1097
 2916W        W18385   6.008   3.735  11.878  0.0251  0.1198 -0.0254
 2917W        W18386   9.502   8.055  10.055  0.0463  0.0716  0.2606
 2918W        W18387   8.095   2.428   2.765 -0.1115  0.3015  0.1399
 2919W        W18388  16.019   1.652   1.331  0.2006 -0.1554  0.2026
 2920W        W18389  11.844   5.921  13.307 -0.2429  0.0118 -0.0872
 2921W        W18390  14.821   3.717  13.123 -0.1012  0.3095  0.0577
 2922W        W18391   1.118   8.521   4.189  0.2065 -0.1445 -0.1060
 2923W        W18392  18.267   1.867   4.885  0.3313 -0.1071 -0.2385
 2924W        W18393   9.680  14.840   4.036  0.0412  0.2532 -0.2648
 2925W        W18394   3.647  10.380   1.646 -0.1587  0.2649  0.0201
 2926W        W18395  14.978   7.498  15.153 -0.2976 -0.2467 -0.2705
 2927W        W18396  14.102  14.049  13.418 -0.2323  0.2019 -0.1943
 2928W        W18397   4.674  15.752  13.551 -0.1162  0.0887  0.4935
 2929W        W18398  10.625   5.720   3.969 -0.1632 -0.0585  0.1298
 2930W        W18399  16.789  17.463   4.938  0.0351  0.2775  0.2486
 2931W        W18400  15.137   1.172  13.412  0.2494  0.0692 -0.0641
 2932W        W18401  16.923  12.357  12.493 -0.0629  0.3880  0.2339
 2933W        W18402   7.328  18.463   3.431  0.3758  0.0847  0.3268
 2934W        W18403   9.732   0.513   3.342 -0.2681 -0.0610 -0.1547
 2935W        W18404  15.191  16.891  14.819 -0.1995 -0.2423  0.0712
 2936W        W18405   1.154   2.392  13.633  0.2319 -0.4490  0.3192
 2937W        W18406  12.765  10.505   2.074  0.1662  0.4449  0.0147
 2938W        W18407   0.777  13.495  15.459 -0.0397 -0.1088  0.0457
 2939W        W18408   1.916  16.118   4.956  0.4698 -0.0933  0.0565
 2940W        W18409  13.018   1.016  13.708 -0.0119 -0.0657  0.0518
 2941W        W18410  14.105   9.029  15.349  0.1134  0.0704 -0.1641
 2942W        W18411  11.299  10.448   3.911  0.0183 -0.1129  0.2557
 2943W        W18412   9.048  18.084  12.394  0.0293  0.0387  0.0554
 2944W        W18413   0.302  10.924   5.360  0.0984 -0.1010 -0.4085
 2945W        W18414   7.122  17.188  13.328 -0.1698 -0.1707  0.2123
 2946W        W18415  17.573   5.472   0.288  0.0718  0.0289 -0.1366
 2947W        W18416   4.115   0.265  14.806 -0.1066  0.0407 -0.2809
 2948W        W18417   3.735   7.870   5.445  0.0297 -0.0341 -0.1224
 2949W        W18418  10.015   8.103  13.001 -0.1679  0.1676 -0.1400
 2950W        W18419  15.783  15.579   6.018  0.1895  0.4128 -0.1645
 2951W        W18420  17.215  15.331  15.274 -0.0170 -0.0661 -0.1310
 2952W        W18421   9.034   8.987  12.699 -0.6922  0.3160  0.4417
 2953W        W18422   6.400  11.307   2.963 -0.0478 -0.1295  0.1935
 2954W        W18423   5.540  17.426  14.121  0.4187  0.1187 -0.0548
 2955W        W18424  10.276   2.986  12.119 -0.0545 -0.2967 -0.4166
 2956W        W18425  14.806  14.666   2.842 -0.3452 -0.0939  0.4188
 2957W        W18426   4.396  14.538   4.561 -0.0726 -0.0727 -0.2140
 2958W        W18427  14.310  14.621   2.781 -0.1054 -0.1577  0.3143
 2959W        W18428   1.945   4.651   0.097 -0.0371 -0.1384  0.0557
 2960W        W18429   2.028  13.407  11.823 -0.3621  0.1906 -0.0038
 2961W        W18430   5.398  13.674  15.541 -0.1046 -0.0646  0.3672
 2962W        W18431   7.051   7.531   0.686  0.2185 -0.1295 -0.2901
 2963W        W18432  12.419  13.596  15.043  0.2358  0.1660  0.0582
 2964W        W18433  16.437  12.622  10.859 -0.0127 -0.1291  0.1132
 2965W        W18434  13.293  13.470  13.744 -0.0667  0.1962 -0.4939
 2966W        W18435  10.404  18.248   0.697 -0.0374  0.1546 -0.0152
 2967W        W18436   3.289  16.134   0.679 -0.3804 -0.0225 -0.2418
 2968W        W18437   0.355   0.626   1.996 -0.1850  0.1110 -0.2200
 2969W        W18438   0.701  18.386   1.735 -0.1575  0.1363 -0.0323
 2970W        W18439  12.792   6.342   4.153 -0.0296 -0.0499  0.0327
 2971W        W18440   9.947   2.279   1.406 -0.3159  0.3112  0.0696
 2972W        W18441  17.026   1.492   4.483 -0.0376  0.0733  0.1042
 2973W        W18442  10.763  12.776   0.427 -0.2101 -0.0839  0.2443
 2974W        W18443  11.500  16.135   3.833  0.5583 -0.0159  0.0089
 2975W        W18444   6.075  13.800   4.086  0.1482  0.0814 -0.0760
 2976W        W18445  13.627  16.052   5.112  0.2373 -0.1823 -0.2592
 2977W        W18446   2.358  12.155   3.177 -0.1589  0.0418  0.3663
 2978W        W18447   7.333  13.517   0.845 -0.3278  0.1577  0.1910
 2979W        W18448   0.976   8.977  12.871 -0.0711 -0.2178 -0.2036
 2980W        W18449   8.303   1.361   0.771 -0.2342  0.1042  0.1967
 2981W        W18450   7.137   6.568   2.009  0.1491  0.0853 -0.0552
 2982W        W18451  16.195  10.906   1.760 -0.0754 -0.0142 -0.0826
 2983W        W18452   8.690   8.986  11.915 -0.0199 -0.1336 -0.0221
 2984W        W18453  14.096   5.783   0.443 -0.3379 -0.0772  0.1723
 2985W        W18454  17.825   5.703   3.562 -0.2206  0.1008  0.0566
 2986W        W18455  13.589   6.122  13.368  0.0429 -0.0912 -0.3413
 2987W        W18456   6.057   5.459   1.238 -0.3213 -0.1779 -0.3162
 2988W        W18457  14.653  15.207  10.583  0.0064  0.1469  0.0019
 2989W        W18458   5.867   4.902  15.115  0.1666 -0.0981 -0.1672
 2990W        W18459   9.386   1.536   0.294 -0.3144 -0.0883 -0.1495
 2991W        W18460   0.992  17.301   1.546  0.0392 -0.1847  0.1368
 2992W        W18461  13.793  18.562  11.578 -0.0510  0.1214 -0.5961
 2993W        W18462   7.226   1.314   2.250 -0.1376  0.3681 -0.1201
 2994W        W18463   5.642   7.947  14.507  0.2026  0.3815 -0.0322
 2995W        W18464  15.348  13.988   5.130  0.1635  0.2048  0.2072
 2996W        W18465   2.002  13.857  13.082 -0.0678  0.4296  0.0506
 2997W        W18466   9.753   8.850   2.734  0.2457 -0.1401  0.3493
 2998W        W18467   9.963   2.333  11.541 -0.0404  0.3444 -0.0317
 2999W        W18468  10.849   4.940  14.649 -0.1928 -0.0074 -0.1446
 3000W        W18469  12.401  14.565   2.529  0.3372  0.2973  0.2235
 3001W        W18470  10.464   1.027   5.278 -0.0473  0.0080  0.1414
 3002W        W18471  14.846  12.868  12.880 -0.0486 -0.0402 -0.1304
 3003W        W18472   1.468  13.694   4.932 -0.0048 -0.2620  0.1463
 3004W        W18473   1.680  17.241   4.264 -0.1273  0.2015 -0.4210
 3005W        W18474  13.498   2.935   4.115 -0.3982  0.3397 -0.0065
 3006W        W18475  15.383   2.314  14.627 -0.2446 -0.0227 -0.2017
 3007W        W18476   6.679  10.763  11.198  0.1667 -0.1233  0.0154
 3008W        W18477  15.232   5.159  15.533 -0.3027 -0.0131  0.0366
 3009W        W18478   1.972   6.629   5.496 -0.0610  0.0960  0.1474
 3010W        W18479  11.561  15.793   5.119  0.1215 -0.0016  0.0378
 3011W        W18480   0.435   2.542  13.382  0.2285  0.0254 -0.0067
 3012W        W18481  14.298  16.872  12.419 -0.1498 -0.0718 -0.5401
 3013W        W18482   0.980  13.910   0.907  0.0695 -0.0135 -0.3466
 3014W        W18483   1.172  14.695   1.231  0.0464  0.2098 -0.1287
 3015W        W18484  14.290   4.949   5.310 -0.0413  0.1969 -0.0219
 3016W        W18485  12.213   1.459   4.011 -0.2341 -0.1076  0.1211
 3017W        W18486  10.215   4.220  14.859  0.4907  0.1487  0.0791
 3018W        W18487  13.452   8.518   3.673  0.1635 -0.0410 -0.1642
 3019W        W18488  14.867   2.362  14.792 -0.0324 -0.3917  0.0413
 3020W        W18489   9.857   5.158  14.305  0.1013  0.0742 -0.1893
 3021W        W18490   3.014  11.255   2.085  0.0474  0.2557 -0.2065
 3022W        W18491   9.700   6.145   1.592 -0.0208 -0.0506  0.2985
 3023W        W18492   3.797  13.922   2.464  0.3090 -0.0069  0.0704
 3024W        W18493  14.020   1.573  14.775 -0.2758 -0.1566 -0.0455
 3025W        W18494  12.482   1.045  12.823  0.0018 -0.1813 -0.0508
 3026W        W18495   7.863  12.123   5.049 -0.3810 -0.1886 -0.1758
 3027W        W18496  18.413   7.271   1.580 -0.0750  0.2919  0.2225
 3028W        W18497   4.113   4.770   4.780  0.1373 -0.0155  0.0164
 3029W        W18498  14.239   1.246  15.720  0.0743  0.1179 -0.0178
 3030W        W18499   1.995   7.461  14.393  0.4558  0.1770  0.1469
 3031W        W18500   2.978  15.070   1.945 -0.0301 -0.2386 -0.1024
 3032W        W18501  12.037  14.801   4.271 -0.0490  0.2152  0.0356
 3033W        W18502   3.867  16.199   9.927  0.1326 -0.0271  0.0549
 3034W        W18503  16.645   5.473  15.712 -0.0501  0.2356  0.1081
 3035W        W18504   1.569  12.821   2.301 -0.2293 -0.0572  0.1198
 3036W        W18505   2.084  10.629  13.792 -0.2922  0.0742 -0.3540
 3037W        W18506   0.003  11.085  15.614  0.3890 -0.1917 -0.3050
 3038W        W18507   8.925   5.492   3.380 -0.1829 -0.0024 -0.0446
 3039W        W18508  12.973   0.585   3.959  0.2697 -0.0835 -0.1039
 3040W        W18509  17.444   2.092   2.401  0.0857  0.0849  0.0946
 3041W        W18510   3.696  12.539  12.081 -0.0543 -0.0517 -0.0485
 3042W        W18511   3.849  14.185   6.047 -0.0390  0.2867  0.1601
 3043W        W18512  15.013   1.909   2.605 -0.3791 -0.3083 -0.0024
 3044W        W18513   9.335   6.402  13.321 -0.3605 -0.0575 -0.2291
 3045W        W18514   9.273   1.509  15.542 -0.0052 -0.0099  0.0492
 3046W        W18515  16.102   5.721   9.957  0.1735 -0.0212  0.0977
 3047W        W18516   6.678   3.047   0.783  0.0829 -0.1997 -0.2141
 3048W        W18517  14.349   5.308   2.108 -0.1783 -0.0954  0.2167
 3049W        W18518  13.766   1.627   0.676 -0.1255  0.3568 -0.2744
 3050W        W18519  15.244  10.545   0.655  0.1081 -0.0405  0.1232
 3051W        W18520   3.470  17.383   4.956  0.2462  0.0694  0.0729
 3052W        W18521  14.601   6.276   2.691  0.1630 -0.0988 -0.1575
 3053W        W18522   2.467  14.803  13.752  0.0957 -0.1965  0.0910
 3054W        W18523  11.743   0.273   4.920 -0.4741 -0.0264  0.0150
 3055W        W18524   9.933   7.492   5.525 -0.1935 -0.0677 -0.3160
 3056W        W18525  12.677   4.100  13.799  0.0709 -0.2385 -0.2663
 3057W        W18526   1.262   8.510  15.298 -0.1278 -0.0323  0.0844
 3058W        W18527  17.099  13.989   4.030 -0.0145  0.4216 -0.3463
 3059W        W18528  10.339   7.619  13.927  0.0349 -0.2438  0.1551
 3060W        W18529   2.439   6.654  11.553 -0.3414  0.1513 -0.1587
 3061W        W18530   7.217   1.137   3.663 -0.0499 -0.0567 -0.1181
 3062W        W18531  12.911  15.201   0.671  0.0977 -0.1104 -0.0557
 3063W        W18532   8.715  15.909   1.166  0.1956 -0.2186  0.0832
 3064W        W18533   2.488  14.383   3.691 -0.2062 -0.2864  0.0152
 3065W        W18534  11.839  16.803   0.340  0.1066  0.1037 -0.2728
 3066W        W18535   8.632   1.404  15.442 -0.0356  0.1422 -0.3176
 3067W        W18536   5.278   3.071  12.244 -0.4289  0.0261  0.0456
 3068W        W18537   0.404  12.811   2.268 -0.2937 -0.0520 -0.0793
 3069W        W18538   6.599  18.230   3.130  0.0006 -0.1855  0.1005
 3070W        W18539   4.380   6.845   4.253  0.4680  0.0849 -0.0639
 3071W        W18540   8.918  13.657  12.842  0.4745  0.0260  0.5192
 3072W        W18541  11.332   6.506   3.745 -0.2057 -0.0414 -0.3955
 3073W        W18542   7.528   5.861  10.664  0.1289 -0.0795  0.0185
 3074W        W18543  11.989  14.520  13.106  0.1952 -0.1030  0.1424
 3075W        W18544   0.371  10.416  14.338 -0.2486  0.2441  0.2475
 3076W        W18545  11.739   5.118   0.496  0.1673 -0.2213  0.1027
 3077W        W18546   5.664  10.796   3.588  0.0805  0.0631 -0.4098
 3078W        W18547  11.334  17.498   5.193  0.0785  0.2085 -0.0772
 3079W        W18548   7.452   0.595  12.292 -0.2803  0.1224  0.0351
 3080W        W18549   9.773   0.797   2.477 -0.1372  0.3409  0.3522
 3081W        W18550  15.050   0.925   1.479  0.1663  0.1385 -0.0971
 3082W        W18551  13.317   5.777   4.564 -0.0963 -0.1263  0.1265
 3083W        W18552  14.844  12.291  12.969 -0.0743 -0.2722  0.3183
 3084W        W18553   5.617  10.988   0.819  0.0323  0.0120 -0.0936
 3085W        W18554   8.649  18.252   1.666  0.1561 -0.1903  0.2309
 3086W        W18555  15.022   4.809   4.355  0.4327  0.5337 -0.0802
 3087W        W18556  15.165   2.209   0.757 -0.2455 -0.1376 -0.0538
 3088W        W18557  10.691   1.033   4.859  0.1873 -0.1811  0.3599
 3089W        W18558   1.251   0.065  10.574  0.6732  0.2740  0.0482
 3090W        W18559   3.353   1.743  11.727  0.3333  0.2083 -0.0057
 3091W        W18560   4.797   8.118  11.663  0.1151 -0.2529  0.1072
 3092W        W18561  13.876  13.202  12.338  0.0940  0.1140 -0.0025
 3093W        W18562  15.701  15.002  15.660  0.4169  0.0637 -0.0507
 3094W        W18563   1.723  16.033  12.960  0.2222 -0.2328 -0.0606
 3095W        W18564  13.287   6.930  11.907 -0.1985 -0.0085 -0.1820
 3096W        W18565   3.296   0.829  11.243  0.0422 -0.2574  0.0609
 3097W        W18566  14.237   9.012  14.263 -0.0121 -0.0877  0.3835
 3098W        W18567  15.178   5.302  15.044 -0.1305  0.1236 -0.1014
 3099W        W18568   6.603  10.141   0.885  0.0269  0.2107  0.0164
 3100W        W18569   1.811  18.344  12.854  0.1476 -0.1225 -0.3040
 3101W        W18570   3.170   1.992  12.168 -0.3641 -0.1262  0.0325
 3102W        W18571   3.251   1.859  13.275 -0.0805  0.4266  0.1258
 3103W        W18572   7.051   8.246   2.993  0.0810 -0.0402 -0.0071
 3104W        W18573  10.104  17.079   4.271 -0.1366 -0.2828 -0.1849
 3105W        W18574   9.684   3.118   2.778  0.0443  0.0961 -0.2782
 3106W        W18575  17.440   2.777  13.908  0.3339  0.2051 -0.4608
 3107W        W18576  10.619  14.712  11.066 -0.1104  0.0564 -0.3230
 3108W        W18577   9.252  16.420   3.850 -0.1838  0.1069  0.2287
 3109W        W18578   6.129   1.081  14.900 -0.4259 -0.0646 -0.1361
 3110W        W18579  12.889  17.798   0.617 -0.0332 -0.0427  0.6156
 3111W        W18580  14.783   2.386  15.604 -0.2001 -0.1861  0.1352
 3112W        W18581   4.558  16.403   2.980  0.3104  0.0181 -0.0287
 3113W        W18582   7.643   0.835   4.164 -0.0162 -0.0111 -0.0544
 3114W        W18583   2.499   4.496  10.450  0.4825 -0.2675  0.1379
 3115W        W18584   4.938   6.107   2.729 -0.2276 -0.2262  0.0614
 3116W        W18585  10.992   7.623   4.666 -0.0787 -0.0623 -0.0534
 3117W        W18586   3.341   3.036   1.586 -0.3046  0.1250  0.1784
 3118W        W18587   0.978  17.913   0.653 -0.1159  0.0180 -0.0788
 3119W        W18588   6.791  12.549   3.089 -0.0091 -0.2043 -0.0084
 3120W        W18589  18.218   6.345   2.068  0.2758  0.2459 -0.0936
 3121W        W18590   0.532  13.723   4.834  0.2726  0.2237 -0.0519
 3122W        W18591  12.961   2.698  12.753 -0.1232 -0.0736  0.1944
 3123W        W18592  17.085  16.266  11.362  0.3021 -0.0669  0.1250
 3124W        W18593  18.413   7.638  12.286 -0.0798 -0.2879 -0.0476
 3125W        W18594   5.180   5.178  14.246 -0.2467  0.2163 -0.0126
 3126W        W18595  11.152  14.173   5.550  0.0625  0.0168  0.1429
 3127W        W18596  13.425   9.788  11.885  0.2086  0.1903 -0.1295
 3128W        W18597  10.433  18.071  13.948  0.0224 -0.2376  0.3329
 3129W        W18598  13.904   6.395   0.077  0.0941 -0.3615  0.0027
 3130W        W18599   7.316   4.038  12.378  0.0963  0.0425 -0.0308
 3131W        W18600  16.920  14.726   5.039 -0.1523 -0.2092 -0.2143
 3132W        W18601   8.099  15.100  11.030  0.4084  0.1683  0.1053
 3133W        W18602   4.547   8.182   4.734  0.1229  0.3683  0.0355
 3134W        W18603   8.579  16.579  14.175 -0.2444  0.0002 -0.2036
 3135W        W18604   2.059  12.414   0.232 -0.1856 -0.3517  0.3177
 3136W        W18605   0.589  16.123   0.846 -0.0401  0.0020  0.3273
 3137W        W18606   6.804  12.842   0.560 -0.1779 -0.1184 -0.1344
 3138W        W18607   8.575  10.463  12.781  0.1988 -0.1918  0.0960
 3139W        W18608  14.671  13.807  14.106 -0.1034  0.0593 -0.1366
 3140W        W18609  14.007   1.864   1.704  0.0196 -0.2709  0.2957
 3141W        W18610  17.883   3.797  12.832  0.3467 -0.2311  0.3469
 3142W        W18611  11.798  10.653   2.777  0.2463 -0.2901  0.0544
 3143W        W18612  16.557   9.636   0.352  0.1902 -0.1340 -0.1545
 3144W        W18613  12.775   4.706  12.498 -0.0727  0.1828 -0.2169
 3145W        W18614   8.102   2.048  13.825  0.0195  0.5317  0.2906
 3146W        W18615   6.219   7.053   3.213 -0.0499  0.0101 -0.4095
 3147W        W18616   5.140   2.972   0.795  0.0305  0.2306 -0.0989
 3148W        W18617   7.989   7.551   0.447  0.0590 -0.2937  0.0052
 3149W        W18618   2.097   5.409  15.139 -0.2879 -0.1433 -0.0094
 3150W        W18619   3.426  12.310  15.401  0.2201 -0.3081 -0.0805
 3151W        W18620   8.113   0.974   4.130 -0.1996  0.2419 -0.1006
 3152W        W18621  12.011   9.187   5.009 -0.2791 -0.1863  0.1126
 3153W        W18622  14.028  18.105   0.958 -0.1422  0.0141 -0.4564
 3154W        W18623  15.317   8.568   2.363 -0.2321  0.0408  0.0856
 3155W        W18624  10.904  16.837   3.343  0.2479  0.1111  0.0651
 3156W        W18625   9.162   0.267  11.873  0.0204  0.0131 -0.2036
 3157W        W18626   4.341  10.574   3.455  0.3291 -0.1220 -0.0523
 3158W        W18627  10.427   6.223  11.607 -0.0234  0.2061 -0.4053
 3159W        W18628   9.273   8.469   1.812  0.0726 -0.1434 -0.0389
 3160W        W18629  14.942   5.327  10.892  0.1183 -0.0887 -0.2870
 3161W        W18630   2.893   5.513  13.555  0.1169  0.4234 -0.2165
 3162W        W18631  17.884  13.605  12.261  0.1106  0.0022 -0.2599
 3163W        W18632   6.507   3.042   5.930 -0.1282  0.0092 -0.2735
 3164W        W18633   5.530   7.086  10.877  0.2329 -0.1063  0.2601
 3165W        W18634   1.637   3.625  14.274  0.3678 -0.0539 -0.2588
 3166W        W18635  18.071   0.755   4.571 -0.1473 -0.3297 -0.2785
 3167W        W18636   2.364   7.238   3.517 -0.2526  0.5767  0.0843
 3168W        W18637   9.852   7.018  13.668 -0.0607 -0.2548 -0.1188
 3169W        W18638  10.457  15.436   4.708 -0.0244 -0.3921  0.1914
 3170W        W18639   2.971   4.340  13.659  0.5640  0.1306 -0.0150
 3171W        W18640   2.942   6.839  14.733 -0.2130  0.2712 -0.2266
 3172W        W18641  16.158  11.784  10.266  0.0237 -0.0654  0.0535
 3173W        W18642   1.794   9.945   0.429 -0.1341  0.0584  0.0008
 3174W        W18643  10.833  11.274  13.411 -0.0048  0.1601 -0.1167
 3175W        W18644  17.233   6.154  14.020 -0.0235  0.3957 -0.2345
 3176W        W18645   8.657   0.522  12.804 -0.0641 -0.3816  0.0870
 3177W        W18646  14.051   8.095  13.703  0.1853 -0.0077 -0.0673
 3178W        W18647   4.062  15.958   0.824  0.0542  0.2667  0.2195
 3179W        W18648  10.339  11.128   4.560  0.0948  0.1943  0.1248
 3180W        W18649  12.095  17.590   4.469 -0.1632  0.2297 -0.2556
 3181W        W18650  12.088  15.881   0.444 -0.1200 -0.0109 -0.0650
 3182W        W18651   8.515   4.947   1.584  0.1476 -0.0474 -0.0498
 3183W        W18652  10.326  15.027   0.151 -0.1422  0.3376  0.0100
 3184W        W18653  15.763   2.065   4.298 -0.2083 -0.0199  0.1212
 3185W        W18654   4.114   9.983   0.257  0.3826 -0.1003  0.2414
 3186W        W18655   0.362   9.776   2.435 -0.2351  0.1075 -0.0255
 3187W        W18656   1.565   9.307  14.403 -0.3519 -0.0469 -0.1238
 3188W        W18657  15.574  18.174  13.983 -0.0100  0.0568 -0.0165
 3189W        W18658  17.761   2.984  13.538  0.2316  0.2763 -0.1565
 3190W        W18659  11.450   7.329   2.564 -0.1429  0.0907 -0.1241
 3191W        W18660   2.017   6.857   3.458  0.0056 -0.3115 -0.0368
 3192W        W18661  17.247  15.949  14.334 -0.0604  0.0200 -0.0944
 3193W        W18662   9.446  12.113  14.608  0.2890 -0.2838  0.1783
 3194W        W18663  12.458  13.900  14.132 -0.0728 -0.0190  0.0656
 3195W        W18664  10.985  10.910   3.982 -0.0366 -0.0031 -0.1836
 3196W        W18665   8.219  15.669  10.474  0.0626 -0.0066 -0.0153
 3197W        W18666  17.228  14.213  12.134 -0.1077 -0.0696 -0.3769
 3198W        W18667   4.210   3.220   3.032 -0.0899 -0.1555 -0.2073
 3199W        W18668   4.203   9.341  14.211 -0.0946  0.0172 -0.0828
 3200W        W18669   8.021   1.640   2.293 -0.0731  0.0263 -0.0561
 3201W        W18670   6.970   1.521   0.826 -0.0187  0.1224  0.2837
 3202W        W18671  14.317  11.966   4.793  0.1582  0.2606 -0.4280
 3203W        W18672   4.227   2.858  15.612 -0.5476  0.0922 -0.0811
 3204W        W18673   0.892  17.274   4.972 -0.2351 -0.1928 -0.1093
 3205W        W18674   9.849   1.492  11.723  0.0254  0.0714 -0.0948
 3206W        W18675   9.215   2.913   5.466 -0.2215 -0.2396  0.0586
 3207W        W18676  17.312  13.129   1.807  0.1845 -0.1516 -0.1272
 3208W        W18677  12.504   5.244   4.860 -0.0334 -0.0132 -0.2904
 3209W        W18678   2.421   2.690   9.803 -0.0976 -0.1318 -0.1894
 3210W        W18679  14.277   6.781  13.362 -0.2085 -0.0102  0.0865
 3211W        W18680   7.162  16.398   4.864  0.0120  0.3006  0.2799
 3212W        W18681  11.120  13.820   4.503  0.1212  0.2590  0.2883
 3213W        W18682   5.910   7.228   5.624 -0.2324  0.1512 -0.1733
 3214W        W18683  14.930  11.957  14.293  0.1646  0.1565 -0.1393
 3215W        W18684   0.204   0.943  14.849  0.1292 -0.4280 -0.0703
 3216W        W18685   3.468   2.319  14.214  0.1353  0.0310  0.1164
 3217W        W18686   0.587  11.914   0.731  0.2093 -0.1030 -0.1241
 3218W        W18687  18.535   6.966   4.157 -0.1183  0.1786 -0.0694
 3219W        W18688  13.520   4.847   0.380 -0.1514 -0.1217  0.1413
 3220W        W18689  10.020   1.957   0.244  0.2027 -0.3809 -0.3936
 3221W        W18690   7.500   0.371   1.675 -0.0484  0.0264 -0.0213
 3222W        W18691   8.602  12.685   0.786 -0.1794 -0.0775  0.0222
 3223W        W18692   4.744  17.583  13.699 -0.0656  0.1139  0.3081
 3224W        W18693  15.505  11.614   2.150 -0.0654  0.1267 -0.1843
 3225W        W18694  14.238   3.914   0.071  0.2290 -0.1930  0.1088
 3226W        W18695   3.895  10.211  14.653  0.3082 -0.1286 -0.0966
 3227W        W18696   6.808   2.148   3.903  0.2916 -0.0661  0.1546
 3228W        W18697  17.384  10.968   3.534  0.0632 -0.0912 -0.0307
 3229W        W18698   7.828  11.261  14.656 -0.1268 -0.1497  0.1088
 3230W        W18699  18.153   3.926  13.781 -0.1642  0.0976  0.0474
 3231W        W18700  11.662  11.581   4.703  0.0280 -0.0667  0.1177
 3232W        W18701  13.882   2.077  11.583  0.0240 -0.0894 -0.3663
 3233W        W18702   9.523  10.031   1.195  0.6727 -0.0067  0.0884
 3234W        W18703  12.826  16.528  13.321 -0.0152 -0.2146  0.0708
 3235W        W18704  15.364   7.972   2.318  0.2091  0.2052 -0.2141
 3236W        W18705   2.966  10.586   0.171  0.1616 -0.1467 -0.0335
 3237W        W18706   3.711   9.171  14.923  0.2527 -0.2913  0.4298
 3238W        W18707  13.138  17.694   5.266 -0.1089  0.1609 -0.2531
 3239W        W18708   9.581   2.451  15.435 -0.1748 -0.4334  0.1177
 3240W        W18709   7.705  11.926   0.021  0.0411 -0.0571 -0.0337
 3241W        W18710   9.061  14.099  11.940 -0.1274 -0.0974  0.2201
 3242W        W18711  15.585  14.270   2.623 -0.0335  0.1115  0.1800
 3243W        W18712  13.864   3.174  12.518 -0.0845  0.2328  0.0387
 3244W        W18713   4.614   3.641   2.931  0.2150  0.1233  0.0621
 3245W        W18714   7.419   5.253  13.921  0.1620 -0.0624 -0.2863
 3246W        W18715  11.985   1.659  14.812 -0.1317 -0.0053  0.3901
 3247W        W18716   0.896  15.136   5.992  0.3179 -0.3691 -0.3553
 3248W        W18717  17.937   4.925  12.169 -0.2965  0.0176 -0.1918
 3249W        W18718  14.135   7.205   3.465  0.1381  0.2225  0.3685
 3250W        W18719   9.154  17.197   2.523 -0.0858 -0.0856  0.0659
 3251W        W18720  18.416   6.713  12.590  0.2987 -0.2114 -0.0248
 3252W        W18721   6.871  15.069   9.859 -0.3480 -0.2044 -0.0203
 3253W        W18722   8.023   3.303   2.306  0.3283  0.2993  0.1579
 3254W        W18723   0.959   6.224   9.973 -0.0684 -0.3177  0.0112
 3255W        W18724  13.676   1.548   1.422  0.0379 -0.3890 -0.3089
 3256W        W18725  11.940   6.739   4.962 -0.0066 -0.0323 -0.1052
 3257W        W18726   9.201  15.012  11.611  0.2989  0.1861  0.3104
 3258W        W18727  17.806  16.164  13.672  0.1787  0.3940  0.3107
 3259W        W18728  11.121  18.071   1.139 -0.0246 -0.2539 -0.2344
 3260W        W18729  17.330  12.593  11.168  0.1216  0.0570 -0.1850
 3261W        W18730   9.607  16.866  12.576 -0.1255  0.4502  0.0063
 3262W        W18731   1.568   6.485  13.117  0.1921  0.0395 -0.0969
 3263W        W18732   3.495   6.786  14.001  0.0248 -0.0819  0.0905
 3264W        W18733  12.663  16.527   4.828  0.0368 -0.0405  0.0214
 3265W        W18734   8.425   5.551  15.015  0.0539 -0.3210 -0.0793
 3266W        W18735   5.691   0.882  13.070 -0.1819  0.3232 -0.0094
 3267W        W18736   3.189   9.658  12.531 -0.0406 -0.0398 -0.0179
 3268W        W18737   4.258  18.438  14.904 -0.1028  0.0154 -0.4157
 3269W        W18738  16.875  17.958   2.543 -0.1369  0.1955 -0.0722
 3270W        W18739  10.977   4.453   4.675 -0.3807 -0.2031 -0.0509
 3271W        W18740   2.446  17.704  12.776  0.0363 -0.2055  0.3046
 3272W        W18741   4.544  18.526  12.053  0.0584 -0.3222  0.0338
 3273W        W18742   0.112   6.492  13.600 -0.0505 -0.2185 -0.1035
 3274W        W18743  12.359   2.749   5.642 -0.0128 -0.0972  0.1258
 3275W        W18744  15.167   8.328   1.946 -0.3004 -0.0854 -0.0365
 3276W        W18745   9.940  18.155   0.945  0.0056 -0.0705 -0.1865
 3277W        W18746   4.760   1.430  12.969  0.0544  0.3374  0.0623
 3278W        W18747  12.364   8.102   4.771  0.0035  0.1607  0.1717
 3279W        W18748  17.241  17.823  10.752  0.1051  0.2022 -0.2290
 3280W        W18749  17.346  17.722  11.317 -0.0679 -0.4631  0.0680
 3281W        W18750   5.534   5.182  10.762  0.0093  0.3259  0.1513
 3282W        W18751   2.149   3.213   0.393 -0.0215  0.0726 -0.0064
 3283W        W18752   8.793   2.159   4.350 -0.1847  0.0210  0.1894
 3284W        W18753   5.346   6.556   5.971 -0.2032 -0.0610  0.0282
 3285W        W18754  14.098   3.030  11.465  0.1347  0.1389  0.0866
 3286W        W18755   6.888   8.601   1.150  0.0322  0.1117  0.3553
 3287W        W18756  13.728  10.977  13.331 -0.0456 -0.0993  0.1330
 3288W        W18757   1.296   6.583   0.588  0.0608 -0.0712 -0.0353
 3289W        W18758   8.535   5.095   1.083 -0.0808 -0.1837  0.1875
 3290W        W18759   2.440   8.514  14.152  0.2726  0.1155 -0.0921
 3291W        W18760  12.756   2.066  14.765 -0.1853 -0.0973  0.0767
 3292W        W18761  14.521   7.388  15.537 -0.1800 -0.0880 -0.0976
 3293W        W18762  10.953   5.360  11.825  0.0010 -0.2668 -0.0506
 3294W        W18763  14.138   9.519  10.988  0.0333  0.2810  0.2253
 3295W        W18764  18.342  13.449   4.640  0.1216  0.2308  0.2287
 3296W        W18765   0.678   0.631  14.928  0.0316 -0.2362  0.0234
 3297W        W18766  16.541  17.292   2.354  0.0191  0.0740 -0.1664
 3298W        W18767   7.461   5.365   4.073 -0.2109 -0.3258 -0.1890
 3299W        W18768   5.134  14.105   5.197  0.1030  0.0358 -0.0142
 3300W        W18769  13.609  13.743   3.829  0.2246 -0.0560  0.3236
 3301W        W18770  15.700   3.412   5.260 -0.1812  0.3542 -0.1345
 3302W        W18771  13.627   2.951  11.430  0.0890 -0.0551  0.1128
 3303W        W18772   2.466  11.864  12.921  0.0358  0.2685  0.1930
 3304W        W18773  17.038  11.249  14.289 -0.0403 -0.0415  0.1128
 3305W        W18774  14.543  10.273   3.943  0.1087 -0.0212 -0.2266
 3306W        W18775  10.447  18.344  12.656 -0.0914 -0.2425  0.0863
 3307W        W18776   4.446  10.855   3.964 -0.0501  0.2148 -0.0410
 3308W        W18777   1.394   8.282   0.759  0.3793  0.2567  0.1526
 3309W        W18778  17.869   8.782  13.375 -0.1824 -0.5031 -0.1154
 3310W        W18779   5.515   1.862   4.285  0.1770 -0.1201 -0.3431
 3311W        W18780   1.496  15.303   3.194  0.0858 -0.0137 -0.1380
 3312W        W18781  11.416   0.300   0.098  0.1594 -0.1261  0.0230
 3313W        W18782   1.169  17.338  14.873 -0.0480 -0.1737 -0.2484
 3314W        W18783   9.883   4.051   0.802  0.2260 -0.0679  0.3074
 3315W        W18784   7.058  16.268   1.739  0.0150 -0.0488 -0.0680
 3316W        W18785  11.472   0.005  15.226  0.2010  0.0996 -0.0399
 3317W        W18786  13.417   7.966   0.915 -0.1877 -0.2074 -0.2573
 3318W        W18787  16.388  16.783   4.663  0.1608  0.3542  0.0013
 3319W        W18788  12.351  16.273  13.957 -0.3601  0.0950  0.0577
 3320W        W18789  10.711   1.553  12.022 -0.0210 -0.2023 -0.0328
 3321W        W18790   1.044   8.804  15.684 -0.1683 -0.0238  0.2085
 3322W        W18791  10.612  10.909   5.251 -0.0951  0.1170  0.0867
 3323W        W18792   2.599   7.894   0.745  0.0719 -0.2667  0.0186
 3324W        W18793   8.496  13.910   4.896  0.2932 -0.0871  0.3000
 3325W        W18794  16.056  12.645  12.767  0.0968 -0.1136  0.1651
 3326W        W18795   0.304   4.107  10.542  0.0013 -0.2927 -0.0437
 3327W        W18796   2.590   8.447  15.152 -0.0763  0.1524 -0.1411
 3328W        W18797   5.728  13.315   2.945  0.2747 -0.2223  0.0558
 3329W        W18798   8.314  14.149   3.048  0.1670  0.0356 -0.3822
 3330W        W18799  16.820  15.160  14.309  0.1978 -0.2025 -0.1471
 3331W        W18800   9.342  10.464  14.464  0.2015  0.0342  0.1401
 3332W        W18801  18.268   6.590   4.304 -0.0628  0.0481 -0.0950
 3333W        W18802   6.170  17.038  12.070 -0.1433 -0.2888  0.0405
 3334W        W18803   0.007  16.812   2.303 -0.0536  0.3435 -0.0465
 3335W        W18804  17.580   0.000  10.286 -0.0498  0.0372 -0.0567
 3336W        W18805  18.313  18.515  13.961 -0.1068 -0.0450 -0.1358
 3337W        W18806  13.665  15.067   0.419 -0.1335 -0.4559  0.1040
 3338W        W18807   7.516  13.353   2.400 -0.0756  0.0602  0.0683
 3339W        W18808   0.031  15.298   0.036  0.0439  0.2863  0.2257
 3340W        W18809  16.920   7.473   0.378  0.1330  0.1956  0.2443
 3341W        W18810   6.740  16.638  11.262 -0.0162  0.2778  0.0465
 3342W        W18811   4.406  13.439   4.707  0.1375 -0.0214  0.0059
 3343W        W18812  17.495  18.057   4.865 -0.1499  0.2392 -0.1959
 3344W        W18813   1.629   6.916   0.389 -0.1549  0.1677 -0.1361
 3345W        W18814  17.234  11.559  12.563 -0.1767 -0.0658 -0.0937
 3346W        W18815   5.466   7.147  15.372 -0.1424 -0.0015 -0.0038
 3347W        W18816   4.562   0.224  14.507  0.0258 -0.0817 -0.0517
 3348W        W18817   8.990   1.782   0.447 -0.3300 -0.1456  0.0043
 3349W        W18818   1.725  16.834  13.906 -0.1520 -0.0763 -0.0993
 3350W        W18819   9.743  14.331   2.373  0.0109 -0.1623  0.1077
 3351W        W18820  14.043   6.620  15.366 -0.2518 -0.0987  0.1195
 3352W        W18821  12.764   6.477  10.823  0.2645  0.0935  0.1401
 3353W        W18822  13.674   1.862  15.078  0.0900 -0.3232 -0.2680
 3354W        W18823   2.975  11.144  11.042  0.1452 -0.2080  0.3691
 3355W        W18824  14.794  14.433  15.190 -0.3899  0.0793 -0.0980
 3356W        W18825   3.955  15.493   5.435  0.1192  0.3746 -0.3030
 3357W        W18826   9.733  15.507  11.180 -0.0891 -0.0997  0.0469
 3358W        W18827  17.444   5.260  11.637 -0.0970 -0.0087  0.3570
 3359W        W18828  16.880   5.505  12.642 -0.0095 -0.0533  0.0351
 3360W        W18829   1.104   7.451  13.411 -0.0874  0.3941 -0.3566
 3361W        W18830   4.082   8.526   2.492  0.0235 -0.0161  0.1104
 3362W        W18831  16.365  14.905   3.464 -0.4549 -0.1946 -0.1761
 3363W        W18832  17.183  16.996  11.138  0.2752 -0.1584  0.2257
 3364W        W18833  16.196  14.883  15.562  0.1095  0.0940 -0.2457
 3365W        W18834  18.136  13.254  10.552  0.1710 -0.0535 -0.0374
 3366W        W18835   1.848   3.696   3.043 -0.2745  0.0676  0.2298
 3367W        W18836  12.010   2.037  13.989  0.1276  0.2568  0.1540
 3368W        W18837  18.272  14.264  13.339 -0.1192  0.2975  0.3010
 3369W        W18838   6.459  16.252   6.034  0.1842 -0.1661 -0.1645
 3370W        W18839  14.867  13.182   1.090  0.0802  0.0260 -0.2011
 3371W        W18840   0.731  11.612   1.192 -0.1628  0.1411 -0.0402
 3372W        W18841   0.188  17.684  15.706 -0.0697  0.0186 -0.0281
 3373W        W18842  17.573   3.797   2.952 -0.1126  0.0808 -0.1810
 3374W        W18843  13.884   8.261  14.615 -0.1417 -0.0501  0.1848
 3375W        W18844  13.219   4.095   6.060 -0.0998  0.1850  0.0913
 3376W        W18845  11.023   1.011   0.184  0.1854  0.0106 -0.1358
 3377W        W18846  15.656   3.277  14.522 -0.2027  0.0872 -0.0077
 3378W        W18847  10.663  12.842   2.339  0.0642 -0.2594 -0.2108
 3379W        W18848   8.726  14.433  12.489 -0.2545 -0.1345 -0.0335
 3380W        W18849   2.216   7.654  11.939 -0.0392  0.0216 -0.0681
 3381W        W18850  17.690   7.240   0.857  0.2989  0.3121  0.0361
 3382W        W18851   7.185   9.472  14.181  0.2541 -0.4992 -0.1773
 3383W        W18852   0.621   7.023   2.734  0.2174 -0.2920  0.2102
 3384W        W18853   5.254   6.919  12.277  0.3683 -0.1054 -0.0387
 3385W        W18854  10.281  16.648   5.304  0.1478 -0.2159 -0.0464
 3386W        W18855   5.281   7.240  14.903 -0.0467  0.0349  0.1708
 3387W        W18856   8.709   9.864   9.804  0.1339  0.2357 -0.0836
 3388W        W18857   9.540  11.420   3.984 -0.2474  0.0828 -0.1673
 3389W        W18858   5.169  12.378   3.403 -0.0388 -0.1473  0.0370
 3390W        W18859  14.113  12.449  14.104  0.0378 -0.2757  0.0005
 3391W        W18860  10.375   3.180  12.985 -0.3445  0.1841  0.0928
 3392W        W18861  13.036  15.867  11.504 -0.1628  0.1682 -0.1240
 3393W        W18862  17.820  12.559  11.346 -0.0911 -0.1814  0.0720
 3394W        W18863  16.336  18.530   5.719 -0.2692 -0.0749 -0.1815
 3395W        W18864  10.539  17.884  13.446  0.4235  0.0164  0.1620
 3396W        W18865  18.388   2.396   4.283  0.0114  0.1492 -0.1390
 3397W        W18866   6.615   8.389  14.112  0.0305  0.1374 -0.0899
 3398W        W18867   6.684   2.277  15.319 -0.4518 -0.2000  0.0088
 3399W        W18868   8.504  15.699   0.716  0.6660  0.1323 -0.3173
 3400W        W18869   1.552  18.370   0.128  0.2981  0.1992 -0.2308
 3401W        W18870   9.728   2.829  15.174 -0.3365  0.2919  0.4498
 3402W        W18871   3.233  13.421  13.904 -0.1773  0.0348 -0.1473
 3403W        W18872  15.126  12.355  14.006  0.1345  0.0934 -0.3953
 3404W        W18873   8.276  15.179   5.298  0.0545 -0.0368  0.0603
 3405W        W18874   9.564  15.482   1.142  0.0294 -0.0654  0.0040
 3406W        W18875  14.372  17.699  12.006  0.3068 -0.2805 -0.0018
 3407W        W18876   7.967   2.720  12.632  0.0768 -0.1741  0.0639
 3408W        W18877   1.992   1.219  11.002  0.1683 -0.2550 -0.0149
 3409W        W18878  12.456   0.176   5.410  0.1606  0.0321  0.0432
 3410W        W18879   9.612  10.360   0.372 -0.0962  0.0257  0.0973
 3411W        W18880   1.776   4.965   0.901  0.1374  0.1354 -0.0527
 3412W        W18881  16.459  10.348   4.465  0.1555 -0.0659  0.1961
 3413W        W18882   9.909   3.296   1.189 -0.1636  0.2812 -0.0862
 3414W        W18883   7.020  15.530   3.277  0.0320 -0.2624 -0.0515
 3415W        W18884  18.181   9.674  11.247  0.0525  0.1474 -0.1833
 3416W        W18885   9.838  16.325   1.984  0.3119  0.2029  0.0840
 3417W        W18886   0.961   2.837   1.487 -0.0594  0.0591  0.3167
 3418W        W18887   8.463   8.072   3.169 -0.0665 -0.2567 -0.0881
 3419W        W18888  15.499   7.963   0.501  0.1057  0.1559 -0.1276
 3420W        W18889   7.274   4.325   0.285  0.2616  0.1093 -0.0906
 3421W        W18890  16.900   9.466  14.752  0.0481  0.1509  0.2807
 3422W        W18891   2.232   7.074   2.278  0.1206 -0.5581  0.0931
 3423W        W18892   0.960  12.504   1.977 -0.0024 -0.2407 -0.0632
 3424W        W18893   7.421   2.006   4.922  0.0230  0.1926 -0.1040
 3425W        W18894  13.538   8.830   4.597  0.2121 -0.0547 -0.0885
 3426W        W18895  13.760   1.425   0.239 -0.1854 -0.0659  0.1067
 3427W        W18896  12.823  18.445   4.537  0.1601 -0.2077  0.2878
 3428W        W18897  11.533   4.304   5.021  0.0555  0.0132  0.1797
 3429W        W18898  11.999   2.386   3.206 -0.0611 -0.0579 -0.1465
 3430W        W18899  16.022   4.204   3.175 -0.3966  0.0412 -0.3248
 3431W        W18900   1.345   6.645   2.628 -0.1059 -0.3788 -0.3073
 3432W        W18901   2.352   6.830  12.230 -0.3354  0.1663  0.0663
 3433W        W18902   1.942  11.997   2.032 -0.1167 -0.3431 -0.1154
 3434W        W18903   4.686   6.530   4.554 -0.2804  0.0444  0.1325
 3435W        W18904  16.765  14.096  11.456  0.2609 -0.0870  0.3077
 3436W        W18905  18.251  10.562   2.109 -0.0194 -0.0993  0.3362
 3437W        W18906   4.815   3.989  12.074 -0.2845 -0.3539  0.1208
 3438W        W18907   8.338  10.432   0.696  0.2935  0.5463  0.0674
 3439W        W18908   5.682  13.977  15.049  0.2450 -0.0464  0.0220
 3440W        W18909   6.298   6.014   1.063  0.2235  0.1475 -0.0171
 3441W        W18910   9.547  16.416  14.457 -0.1761 -0.0427  0.0267
 3442W        W18911   1.878  11.365  10.384  0.1351  0.1655  0.0052
 3443W        W18912  11.938  15.461   2.757 -0.4496  0.1416  0.1321
 3444W        W18913  11.516   5.600  12.550 -0.2864  0.1996  0.0275
 3445W        W18914   3.275  13.021   4.573 -0.2337 -0.3433 -0.1669
 3446W        W18915   3.987  10.291  15.622 -0.2482  0.1289  0.0109
 3447W        W18916   8.269   7.340   3.338 -0.2850 -0.0735  0.1893
 3448W        W18917  15.134   6.323   1.624 -0.0052  0.2490  0.0414
 3449W        W18918   7.086   9.096   1.971  0.0200  0.0612 -0.1775
 3450W        W18919   6.821   2.987   1.268  0.5316  0.2562 -0.0912
 3451W        W18920  12.424  14.167   0.136  0.0979  0.1115 -0.0217
 3452W        W18921   0.245   5.073  11.579  0.4046 -0.0092 -0.1145
 3453W        W18922   7.449   1.803   4.354  0.2832  0.0630 -0.1515
 3454W        W18923  10.429   8.907  14.118  0.0010 -0.4269 -0.0112
 3455W        W18924  13.393   1.555   5.014  0.1268 -0.0868 -0.0191
 3456W        W18925   6.031   5.040   9.861  0.2554 -0.1376  0.1640
 3457W        W18926  11.004   7.970   5.002  0.0025 -0.1608  0.2787
 3458W        W18927  16.914   2.112   0.239 -0.0490  0.0433  0.1648
 3459W        W18928   5.781   8.471   3.903  0.2285  0.0228 -0.1582
 3460W        W18929  17.419  14.561   0.975 -0.0683  0.1941 -0.1574
 3461W        W18930  15.999   4.125  12.116  0.2013 -0.1001 -0.0361
 3462W        W18931   7.133  11.938  12.553 -0.0923  0.2194 -0.1088
 3463W        W18932  14.616  16.981   0.245  0.1912 -0.2477  0.1041
 3464W        W18933  12.832  14.358   4.411 -0.0517 -0.1104  0.2690
 3465W        W18934   1.708  10.918   1.673 -0.0122  0.0502 -0.2749
 3466W        W18935  13.811   3.588   0.945  0.1055 -0.2196  0.3681
 3467W        W18936   1.600  10.498  13.690 -0.0297  0.0422  0.0436
 3468W        W18937   8.737   0.171  14.956 -0.0668 -0.0776  0.0984
 3469W        W18938  14.486   4.893   1.309  0.0112 -0.0215  0.0839
 3470W        W18939  18.117  15.284  15.181  0.1761  0.0910  0.5189
 3471W        W18940  17.457   5.848   1.637  0.1429  0.1766  0.3790
 3472W        W18941   9.091  13.289  10.329  0.0467 -0.1499  0.1879
 3473W        W18942  14.533  14.622  14.847 -0.0908 -0.1332 -0.0017
 3474W        W18943   3.957  10.881  15.505 -0.0084  0.5027  0.1646
 3475W        W18944  15.730   5.928  12.605  0.0660  0.0712  0.5334
 3476W        W18945  10.153   4.154   0.153 -0.1716  0.1561  0.0418
 3477W        W18946   7.692  13.931   4.744 -0.0172 -0.0497 -0.0173
 3478W        W18947  15.975  11.189   1.330  0.2772 -0.4540  0.1370
 3479W        W18948  17.595   3.232  14.019 -0.0447 -0.0539  0.0129
 3480W        W18949   3.094  12.939   5.086 -0.0646 -0.0938  0.4181
 3481W        W18950   9.084  13.647  13.351  0.1268 -0.0710 -0.1379
 3482W        W18951  10.079   9.810  13.985  0.1544 -0.0265  0.0447
 3483W        W18952   7.717  10.584  13.619 -0.0592 -0.2085  0.2648
 3484W        W18953   2.405  11.607   2.212  0.3630  0.2465 -0.1449
 3485W        W18954   3.703   9.054  15.400  0.0168  0.0205  0.0353
 3486W        W18955  13.506  15.902  11.940  0.1899 -0.0315  0.1532
 3487W        W18956  15.915  17.854   1.971  0.0268  0.1098 -0.0671
 3488W        W18957   0.297   7.611  13.040 -0.0963 -0.0598 -0.0367
 3489W        W18958  17.591   8.324  15.343 -0.0578 -0.0413 -0.0855
 3490W        W18959  12.201   9.718  11.006  0.2926  0.2248  0.0162
 3491W        W18960   4.050  13.190  12.016  0.0728 -0.2485 -0.0361
 3492W        W18961  11.095   0.387   4.535  0.0331 -0.0985 -0.4657
 3493W        W18962   5.924   1.073  11.859  0.1093  0.2438  0.2774
 3494W        W18963   2.582  11.336  15.286 -0.2068  0.2547  0.1004
 3495W        W18964   5.149  10.499  11.756  0.1171  0.0578  0.1705
 3496W        W18965   5.740  18.595   1.261  0.2260  0.1265 -0.1858
 3497W        W18966   7.999  16.569  12.299  0.0637  0.0967  0.1775
 3498W        W18967   9.639  17.619   2.030 -0.3179  0.0193  0.1236
 3499W        W18968   3.814   4.854  10.997 -0.1374 -0.2530 -0.0649
 3500W        W18969  17.452  11.050  12.745 -0.0356  0.0104  0.1234
 3501W        W18970   4.176   1.266   0.603  0.2594 -0.1469 -0.1163
 3502W        W18971  13.047  10.890   2.806 -0.4284  0.3929 -0.1254
 3503W        W18972  12.264   6.292  11.848  0.1506  0.0905  0.2385
 3504W        W18973   6.753  12.712  12.217 -0.0789 -0.4181  0.1708
 3505W        W18974   6.098   9.937   5.565 -0.0443  0.2532  0.0627
 3506W        W18975   6.533  15.951   1.980 -0.3858  0.0257  0.0851
 3507W        W18976  12.108  11.775  14.698 -0.1038 -0.0801 -0.0212
 3508W        W18977  11.351   5.101  14.237 -0.2780  0.1909  0.0773
 3509W        W18978   4.842  18.114  12.253 -0.0392 -0.1418 -0.3739
 3510W        W18979  12.629   8.990  15.071 -0.0173 -0.0283  0.3532
 3511W        W18980  16.782  17.239  11.438  0.1652 -0.0527 -0.0801
 3512W        W18981  15.714  14.086   1.621 -0.1170  0.0387  0.2807
 3513W        W18982   7.108  18.244   4.838  0.0762 -0.0976  0.1269
 3514W        W18983   2.932  14.089   3.639  0.0506 -0.2132  0.0649
 3515W        W18984  11.437  15.255  12.252 -0.1896 -0.0671  0.0535
 3516W        W18985   2.653   1.831   1.141 -0.0349  0.0437  0.2769
 3517W        W18986   5.380  15.196  14.099  0.0784 -0.2803 -0.0692
 3518W        W18987  15.765  15.711   5.533  0.0384 -0.0413 -0.1616
 3519W        W18988   9.154   3.823   2.627  0.0511 -0.2289  0.2414
 3520W        W18989  13.546   9.676  15.030  0.0400 -0.2422 -0.3181
 3521W        W18990  17.804   3.365   1.373  0.1752  0.1368  0.0695
 3522W        W18991  14.323  13.551   3.132  0.0354 -0.1847 -0.0938
 3523W        W18992   9.786  17.747  11.239 -0.1297  0.3550 -0.1816
 3524W        W18993  18.432  17.107   6.167  0.0235 -0.2006 -0.1395
 3525W        W18994   6.283   1.432  14.267 -0.1098 -0.0921  0.1287
 3526W        W18995   5.976  10.643  15.188  0.3328 -0.0429 -0.1137
 3527W        W18996  11.771   6.884   5.530  0.2879 -0.0040  0.0132
 3528W        W18997  10.375   5.228  15.493  0.3322  0.0650  0.3583
 3529W        W18998  14.335   7.220  13.582 -0.0764 -0.0536 -0.2181
 3530W        W18999   5.533  11.683   0.698  0.0909  0.2092 -0.0398
 3531W        W19000   0.692   1.603  15.739 -0.4063 -0.1153  0.1926
 3532W        W19001  10.994   2.255   2.581 -0.3729  0.0382 -0.0918
 3533W        W19002   9.950   8.298   3.297 -0.1084  0.2743  0.0470
 3534W        W19003   4.495   2.341  10.025  0.2003 -0.0921  0.0331
 3535W        W19004  15.089  11.159   2.763 -0.0588  0.0868 -0.2016
 3536W        W19005   0.605   9.397   4.491  0.0554  0.3584  0.1550
 3537W        W19006   4.468  17.387  12.965  0.2236 -0.1082  0.1106
 3538W        W19007   5.667   2.061   2.636 -0.2155 -0.0738  0.3331
 3539W        W19008  12.697   3.443   4.962 -0.2168 -0.2064  0.0485
 3540W        W19009  11.144   9.222  11.763 -0.3448 -0.2663  0.0895
 3541W        W19010   7.883  15.576  10.103  0.1986  0.3055 -0.2215
 3542W        W19011  18.022  14.537   0.065  0.0670  0.1250  0.0786
 3543W        W19012  18.066   5.200   1.986 -0.1862 -0.0443 -0.1125
 3544W        W19013   0.040   2.061   2.037 -0.4524  0.3728  0.0030
 3545W        W19014  13.603  10.897   2.066 -0.3850  0.1951  0.1434
 3546W        W19015  13.802  12.073   1.082  0.1365 -0.2072  0.2961
 3547W        W19016   6.747  11.005   3.098  0.0205  0.0342 -0.3366
 3548W        W19017   4.358  17.397  10.690 -0.1626 -0.2662 -0.1008
 3549W        W19018   0.184   9.522  11.679  0.0814 -0.0453 -0.0313
 3550W        W19019  16.540   9.181   2.360  0.2661  0.2377  0.2717
 3551W        W19020   3.056  16.710   5.436 -0.0176 -0.0031 -0.1556
 3552W        W19021   7.360   4.947  11.157  0.2230 -0.0751  0.0339
 3553W        W19022   2.872  15.639  14.047  0.2690 -0.0746  0.1673
 3554W        W19023  18.385   9.661  13.664  0.3512  0.2293  0.1342
 3555W        W19024  17.396   4.710   3.022  0.1727 -0.0831  0.0944
 3556W        W19025   8.476   0.311   1.665 -0.0063 -0.2476  0.1288
 3557W        W19026  15.472   7.011  13.997 -0.2213 -0.1027  0.0454
 3558W        W19027   5.123  11.331   5.127  0.1818 -0.0936  0.0053
 3559W        W19028  12.575   4.684   5.501 -0.1665  0.0587 -0.0679
 3560W        W19029   5.647  16.695  15.578 -0.0017 -0.1395  0.0962
 3561W        W19030   1.138  14.584  14.063  0.0366 -0.1832  0.0284
 3562W        W19031  10.714   3.633  11.699  0.2406 -0.2051 -0.1464
 3563W        W19032   0.817   7.014  12.173  0.1771  0.5095 -0.4028
 3564W        W19033   0.216  12.595   3.599  0.0726 -0.2786 -0.0698
 3565W        W19034   7.751   1.068   3.755  0.1134 -0.3245 -0.0147
 3566W        W19035  16.297  10.307  12.074  0.1036  0.1668 -0.1719
 3567W        W19036  12.543   1.027   4.352  0.1262 -0.0821 -0.2102
 3568W        W19037  14.289  16.456   5.265 -0.0099  0.0504 -0.4780
 3569W        W19038   6.999   3.480   4.629 -0.1269 -0.0849 -0.2884
 3570W        W19039  16.290  13.413  13.437 -0.0202 -0.0820  0.1164
 3571W        W19040   9.394   3.075  11.504 -0.1349 -0.0888  0.0707
 3572W        W19041  15.694   2.866  12.425 -0.0796  0.0656 -0.0504
 3573W        W19042  18.345  13.850   2.422  0.1172  0.0680  0.6375
 3574W        W19043  17.160  12.397   4.365  0.0229 -0.3362  0.0316
 3575W        W19044   8.906   8.023   1.655 -0.1369  0.0738  0.4302
 3576W        W19045   2.156   0.947  12.162 -0.2676 -0.0283 -0.1801
 3577W        W19046   7.097  13.906  11.532 -0.2912  0.0287  0.0553
 3578W        W19047  16.011   2.869   3.447 -0.1741 -0.2121  0.0706
 3579W        W19048   2.511   4.447   2.374  0.1726  0.0754  0.0045
 3580W        W19049   1.387  11.476  12.109  0.2946  0.2316 -0.0067
 3581W        W19050  14.471   6.117   3.477 -0.0834 -0.0068 -0.0492
 3582W        W19051  10.659   5.163   2.801 -0.0985  0.0501 -0.3079
 3583W        W19052   2.579  12.699  12.254  0.1031 -0.2817 -0.1594
 3584W        W19053  17.634  11.370   3.386  0.2135  0.1141 -0.0314
 3585W        W19054   8.470  12.822  11.798  0.0880 -0.3295  0.2439
 3586W        W19055  18.510  14.386   4.076 -0.0037 -0.0164  0.1747
 3587W        W19056   5.865  16.367  13.905 -0.1335  0.0733  0.1072
 3588W        W19057   1.941   2.300   4.779  0.0873 -0.2289 -0.2773
 3589W        W19058  18.400   7.294  10.719  0.0749  0.1670  0.1953
 3590W        W19059   3.378  17.136  12.274  0.2154 -0.0032  0.0257
 3591W        W19060   6.478   5.301  14.082  0.0477 -0.1948 -0.1004
 3592W        W19061   6.009  16.938   5.678 -0.0617 -0.2555 -0.0962
 3593W        W19062   0.715  11.651  13.856 -0.1122  0.2417 -0.3606
 3594W        W19063   2.237  16.081   4.285 -0.0500  0.1700 -0.0345
 3595W        W19064  10.529   8.285   0.797  0.1061  0.1603 -0.0979
 3596W        W19065  16.108   8.083  15.065  0.0105  0.1118 -0.2763
 3597W        W19066   8.918  14.654  13.047 -0.2396  0.1910 -0.0162
 3598W        W19067   3.836  13.673   0.620 -0.1700  0.1095  0.0997
 3599W        W19068   9.668   5.704   0.106  0.2277 -0.3252 -0.0229
 3600W        W19069  17.147   2.354   5.079  0.2033 -0.1916  0.1089
 3601W        W19070  14.556  14.248   5.747 -0.0937 -0.0744 -0.2234
 3602W        W19071   4.359   3.066   2.546 -0.1743 -0.0594  0.1233
 3603W        W19072  17.094  11.462   2.767 -0.0405  0.0796  0.0136
 3604W        W19073  16.502  10.269   3.789 -0.1286  0.0334  0.2327
 3605W        W19074  18.314  13.416   2.718 -0.1262  0.3011  0.1338
 3606W        W19075  14.337   8.028   1.555 -0.0949 -0.3322 -0.0007
 3607W        W19076  13.921   3.264  14.059  0.0216 -0.1101 -0.2198
 3608W        W19077  16.646  13.566  13.759  0.0492  0.2512  0.1581
 3609W        W19078   7.098   3.832  14.003  0.2075 -0.1399  0.0075
 3610W        W19079   3.227   5.126   4.299 -0.0464 -0.2774 -0.0035
 3611W        W19080   4.013   3.766   1.605  0.1151 -0.0648  0.2506
 3612W        W19081   3.591   2.248  10.911  0.0019 -0.0884  0.1683
 3613W        W19082   6.028  18.209  13.591 -0.2681  0.0586  0.1622
 3614W        W19083   3.747  12.112  14.235 -0.1424  0.1946  0.2329
 3615W        W19084  13.087   0.165   2.306 -0.0424  0.3517  0.0349
 3616W        W19085   0.203  17.932   4.657  0.0633 -0.0221 -0.0075
 3617W        W19086   4.251   1.391  12.722 -0.0709  0.2070 -0.1855
 3618W        W19087  12.988   8.583   4.019  0.0043 -0.3092 -0.0155
 3619W        W19088   0.380   0.852   3.686  0.0175 -0.2400  0.1838
 3620W        W19089   4.468  14.242   1.712  0.0812  0.0782 -0.1659
 3621W        W19090  13.031   3.191  12.564 -0.1513 -0.0791 -0.3542
 3622W        W19091  13.257  12.802   2.684 -0.3663  0.0320  0.1415
 3623W        W19092  12.355  12.252   4.599  0.3211  0.1597 -0.3767
 3624W        W19093  16.993  17.505   2.397 -0.0746  0.1719  0.3967
 3625W        W19094   0.968   8.761   2.029  0.1255  0.2140  0.0309
 3626W        W19095  14.784   5.570  13.985  0.0851 -0.0495 -0.0404
 3627W        W19096  17.358  15.249  11.334 -0.0128 -0.0843  0.0441
 3628W        W19097  17.856   7.433  14.701 -0.3633 -0.2963  0.1010
 3629W        W19098  13.028  14.317   0.215  0.0812  0.2769 -0.2270
 3630W        W19099   4.419   5.535   1.335  0.0013  0.0658  0.1124
 3631W        W19100   2.107   3.202  10.815  0.2604 -0.1309  0.2377
 3632W        W19101   7.836  17.780  10.968  0.1806  0.0656  0.0459
 3633W        W19102  15.492   9.613  11.869  0.1165  0.2601 -0.0705
 3634W        W19103   3.319  14.835   4.252 -0.2136 -0.2299 -0.0434
 3635W        W19104   2.729   0.686   1.311 -0.1497  0.0051 -0.3372
 3636W        W19105  16.762   0.220   0.685  0.1427 -0.3178  0.2906
 3637W        W19106   3.610  17.231   0.126  0.0436 -0.1441  0.1834
 3638W        W19107   1.339   4.820  13.076 -0.1029 -0.1358  0.1338
 3639W        W19108  12.436  17.074  11.541  0.0281  0.0063 -0.1333
 3640W        W19109   4.174  10.547   5.179 -0.3006  0.1420  0.0961
 3641W        W19110   5.919   4.411   1.795 -0.0482  0.3935 -0.0709
 3642W        W19111  17.003   8.081  15.441  0.2659 -0.0357 -0.0679
 3643W        W19112  14.851   6.181   1.272 -0.1431  0.0090  0.4364
 3644W        W19113   5.099   4.113   4.705 -0.3534 -0.0364 -0.0678
 3645W        W19114  17.669   4.794  14.075 -0.2774  0.1106 -0.3276
 3646W        W19115  10.570  11.254  13.979  0.0241 -0.2017  0.0382
 3647W        W19116  16.961  12.295   2.428 -0.0657 -0.0978 -0.2469
 3648W        W19117  14.906   6.797   2.484  0.0603 -0.0387 -0.0959
 3649W        W19118   9.049   8.474  13.244  0.0631  0.1492  0.0602
 3650W        W19119  12.290   5.128  14.531 -0.1364  0.3363  0.0080
 3651W        W19120   0.817  10.244  13.351  0.0507 -0.1055  0.1685
 3652W        W19121  11.385   1.285   4.069 -0.1622  0.0577 -0.1976
 3653W        W19122   3.301   8.927  11.388  0.0915  0.1513  0.1277
 3654W        W19123  17.258  11.132  14.769 -0.0714  0.0541  0.1325
 3655W        W19124  13.492   6.608   2.921  0.0499  0.5009  0.0664
 3656W        W19125   4.506   0.993   1.039 -0.1397  0.1510  0.1573
 3657W        W19126  10.969   2.070  15.325  0.0980 -0.0771 -0.1238
 3658W        W19127  16.766  14.215  10.453  0.2856 -0.1266 -0.0378
 3659W        W19128   1.929  12.888   0.338  0.2552  0.0308 -0.1043
 3660W        W19129  10.418   2.805   3.239  0.2120  0.2092 -0.1553
 3661W        W19130  11.615   8.304  14.742  0.0197  0.4356  0.2119
 3662W        W19131  15.123   5.050  12.291  0.0636  0.3023  0.3365
 3663W        W19132   4.171  14.841  13.051 -0.0865 -0.4199 -0.0793
 3664W        W19133  13.525  16.601  12.693  0.2017  0.0754 -0.2233
 3665W        W19134   8.432  10.847   4.225  0.0538 -0.0277  0.0312
 3666W        W19135  15.919   3.406  15.559  0.0207 -0.3159  0.4065
 3667W        W19136  10.449   7.858   0.600  0.3210 -0.1275 -0.3878
 3668W        W19137  10.479   2.869  14.426  0.6024  0.0192  0.4207
 3669W        W19138   7.139  15.803  14.195 -0.1587 -0.1443 -0.0652
 3670W        W19139  16.231  11.388   4.950 -0.0743 -0.1015  0.4529
 3671W        W19140   1.554   4.277  12.405  0.1181  0.1251 -0.0206
 3672W        W19141   0.703  16.842   3.763 -0.3034 -0.1058  0.2848
 3673W        W19142  15.867   1.164   0.345  0.1666  0.1830  0.2394
 3674W        W19143  14.736  12.885  12.375  0.1126 -0.0530 -0.0515
 3675W        W19144   0.531  16.196  12.177  0.2270 -0.2770  0.3663
 3676W        W19145  12.884  16.319  11.488 -0.2745  0.1208 -0.0691
 3677W        W19146   1.044   4.968  11.042 -0.2753  0.1146  0.2539
 3678W        W19147  13.606  14.199   5.528 -0.1063 -0.0117 -0.0013
 3679W        W19148  11.571  16.433  12.854  0.2339 -0.2117 -0.2209
 3680W        W19149  17.521  16.532  15.753 -0.0351  0.1486 -0.0445
 3681W        W19150  14.122   0.344  13.424 -0.0064 -0.1966  0.0341
 3682W        W19151  13.213  18.224  11.499 -0.0800  0.2371 -0.0153
 3683W        W19152  10.455  12.999   1.035  0.2061 -0.0700 -0.0611
 3684W        W19153  17.415   8.881   4.187 -0.4644 -0.2445 -0.0924
 3685W        W19154   8.443  11.211  14.793  0.3181  0.0044 -0.0235
 3686W        W19155   2.397   5.315   0.139  0.1067 -0.0361 -0.1188
 3687W        W19156  13.773   0.442  14.170  0.0690 -0.1575  0.1823
 3688W        W19157   9.056   9.108  12.202 -0.0474  0.2264  0.1643
 3689W        W19158  17.946   9.902  11.907  0.2657  0.6294 -0.1453
 3690W        W19159   5.058   1.086   4.402 -0.1492 -0.0228 -0.0183
 3691W        W19160   8.494  12.386   4.198 -0.0875 -0.1516  0.1125
 3692W        W19161  11.688  14.989  10.378  0.3260  0.0011 -0.0394
 3693W        W19162  12.674   9.767  13.589 -0.1502 -0.2151 -0.4648
 3694W        W19163   5.698   6.969   3.277 -0.3323 -0.1722  0.0091
 3695W        W19164   6.534  13.479   2.932 -0.0720 -0.1252  0.3091
 3696W        W19165   5.134  15.168   4.301 -0.1453 -0.0940  0.0557
 3697W        W19166   5.094  10.369  12.384  0.0745 -0.0268  0.3123
 3698W        W19167   3.836  12.395  15.127 -0.0550 -0.0917  0.2012
 3699W        W19168  16.194   4.035   4.621 -0.0448 -0.0516 -0.1324
 3700W        W19169   0.157  15.598   4.108  0.0229  0.2290  0.0182
 3701W        W19170   0.550   1.458   1.511  0.3112 -0.2983 -0.2144
 3702W        W19171   6.813  10.442   3.452  0.1533  0.0695 -0.2939
 3703W        W19172  11.677   0.781   4.021  0.0516  0.1126 -0.0491
 3704W        W19173   9.375   0.509   2.338 -0.0929  0.1722  0.2929
 3705W        W19174   8.758   4.863   2.908 -0.2163  0.1371 -0.0406
 3706W        W19175   8.300   0.170   2.975 -0.0701 -0.1492  0.0317
 3707W        W19176  17.203  13.628  13.816 -0.1489 -0.4375  0.0475
 3708W        W19177  16.568  11.909  12.091  0.0932  0.1885  0.0476
 3709W        W19178   8.164   8.605   2.713  0.2727  0.0955 -0.1468
 3710W        W19179  10.395   9.976   4.583  0.0051  0.0046 -0.1085
 3711W        W19180   6.866   3.391   5.435  0.1135 -0.2745 -0.2980
 3712W        W19181   8.172  12.571   1.070  0.1440  0.0676  0.2144
 3713W        W19182   6.986   7.977  10.642 -0.0782 -0.1135  0.1383
 3714W        W19183   4.762  14.761   0.101  0.2368 -0.0737 -0.0200
 3715W        W19184   8.822   4.708   1.264  0.1672  0.0532 -0.0116
 3716W        W19185   9.945  12.270   3.487 -0.0279 -0.0999  0.0608
 3717W        W19186   1.968   6.450  11.142 -0.0025  0.2986 -0.1169
 3718W        W19187   8.537  13.565  15.130 -0.1282 -0.3019 -0.0142
 3719W        W19188  12.201  12.805  13.326 -0.0189  0.0648  0.1411
 3720W        W19189   6.169   6.944   2.404 -0.3977  0.1359  0.3575
 3721W        W19190   9.475  11.491   1.670  0.1097  0.0603  0.0904
 3722W        W19191   2.533  14.079  12.442 -0.0230 -0.0903  0.0678
 3723W        W19192   8.375  17.536   4.356 -0.1286 -0.2461 -0.1148
 3724W        W19193  14.396   7.580  10.650 -0.2664  0.0010  0.0081
 3725W        W19194  11.311  10.411  11.952  0.1334  0.0305 -0.0385
 3726W        W19195  16.690   0.752   1.937  0.2105  0.0956  0.0287
 3727W        W19196   2.818   7.390   1.630  0.1381  0.2448  0.0644
 3728W        W19197   6.425   9.224  13.425  0.2202 -0.0131  0.1542
 3729W        W19198  17.008  12.667   3.893  0.3202  0.1733  0.1048
 3730W        W19199  14.722  14.453   4.307 -0.1983  0.0437  0.2292
 3731W        W19200   8.768   4.666  11.022  0.3475  0.1887 -0.1256
 3732W        W19201  12.249  11.977   3.976  0.1082 -0.2028 -0.1467
 3733W        W19202  13.029  18.330   0.476  0.0659  0.4130 -0.2510
 3734W        W19203  16.350  16.728  12.524  0.0625  0.2363  0.1965
 3735W        W19204   0.233  16.724  11.416 -0.1848  0.2234 -0.1676
 3736W        W19205   1.250   0.821   3.334 -0.1330  0.3347 -0.2139
 3737W        W19206  12.395  15.691  15.670  0.1785  0.3543  0.1010
 3738W        W19207   6.605   5.025   5.666 -0.1141  0.0433  0.1008
 3739W        W19208   6.217  14.325  10.239  0.3062 -0.2581 -0.3696
 3740W        W19209   7.360  17.098   1.753  0.1224 -0.0663  0.4813
 3741W        W19210   8.398   5.451  10.538 -0.1481  0.2244 -0.0914
 3742W        W19211   1.633   7.827   0.527 -0.3054  0.0995  0.0782
 3743W        W19212  10.885  12.834  12.012  0.2343 -0.0172 -0.0854
 3744W        W19213   7.706   5.321  11.992 -0.0869  0.0723 -0.0824
 3745W        W19214  14.671  17.614  13.343  0.0729  0.1227  0.0369
 3746W        W19215  13.627   3.136  14.744  0.2184 -0.0157  0.1871
 3747W        W19216  10.420   2.746  13.428 -0.0492 -0.1453  0.4012
 3748W        W19217   6.562   2.847  15.238 -0.0735  0.1334  0.0484
 3749W        W19218  13.130   1.685  12.546 -0.4075 -0.3631  0.0236
 3750W        W19219  14.640  17.407   0.507  0.1629 -0.0964 -0.0529
 3751W        W19220  16.392   8.713   2.025 -0.0469  0.3183 -0.0830
 3752W        W19221  11.041   7.483  14.584  0.1169  0.1902  0.1558
 3753W        W19222   6.399  18.005   6.057  0.3399  0.0591 -0.1606
 3754W        W19223   1.100   7.542  10.730 -0.2518 -0.2809  0.0983
 3755W        W19224  16.733  16.745   4.034 -0.3206 -0.0414 -0.0389
 3756W        W19225   0.139   6.560   4.395  0.0928 -0.1440 -0.3638
 3757W        W19226   4.195  11.175   1.169 -0.0993 -0.0341  0.1708
 3758W        W19227   0.167   5.802  12.344  0.1169 -0.2003 -0.0818
 3759W        W19228   9.767   7.545  12.433 -0.1033  0.1903  0.3128
 3760W        W19229  17.019   8.542  15.594 -0.2211 -0.3073  0.0564
 3761W        W19230   2.082   9.482  13.434  0.2248  0.2149 -0.1779
 3762W        W19231  17.785   2.566   0.052 -0.4605 -0.1722 -0.0336
 3763W        W19232   4.871  13.506  15.387 -0.0452  0.3089 -0.0729
 3764W        W19233  10.373  13.987  15.313  0.3734  0.2987 -0.2887
 3765W        W19234   4.713   1.720   6.098 -0.1553  0.2682  0.0798
 3766W        W19235  18.251   0.686   2.420  0.0974  0.0985 -0.0955
 3767W        W19236  15.962   4.792  13.415  0.1872 -0.2185  0.0289
 3768W        W19237  16.668  18.277   0.335  0.1536 -0.2952  0.0228
 3769W        W19238  17.050  18.350   0.798 -0.1507  0.1113  0.1775
 3770W        W19239  11.715  18.594  14.640 -0.3623  0.2778  0.0843
 3771W        W19240   7.445   3.407  13.800  0.2922 -0.0585 -0.0047
 3772W        W19241  15.413  17.203   2.456  0.0588  0.0426 -0.2993
 3773W        W19242   7.281  12.221   0.228  0.1731  0.1213  0.1018
 3774W        W19243  11.039   2.618  15.285  0.0260  0.0513 -0.0206
 3775W        W19244   5.400   1.147  11.844  0.2408 -0.2070  0.0665
 3776W        W19245  15.501   6.918  14.511  0.0477  0.1272 -0.1581
 3777W        W19246   6.667   0.459  13.423 -0.1550  0.0722 -0.0730
 3778W        W19247  17.890  18.031  13.570 -0.2870  0.1443 -0.1114
 3779W        W19248  10.197  13.499  13.729 -0.2890 -0.3344 -0.2883
 3780W        W19249   1.018   1.081   4.265  0.1364  0.1501 -0.2849
 3781W        W19250  14.147   5.862   2.883  0.2341 -0.0623  0.0218
 3782W        W19251  18.407   7.338  14.820  0.0700 -0.0435  0.0437
 3783W        W19252  15.074  16.843   1.739  0.1440  0.1683  0.2541
 3784W        W19253  12.857   8.509  14.981  0.0041 -0.1920  0.0060
 3785W        W19254   5.843   3.245  14.255  0.1765 -0.1409 -0.1271
 3786W        W19255   6.093   3.024   4.156 -0.1029 -0.2896  0.0531
 3787W        W19256   2.777   6.812  13.384  0.3112  0.0791  0.3052
 3788W        W19257   7.720   3.963   4.396  0.0471  0.2275  0.0363
 3789W        W19258   5.028   1.417   0.486 -0.1402  0.3320 -0.1681
 3790W        W19259  15.438  12.351   0.025 -0.1940  0.0413  0.0631
 3791W        W19260   3.432  16.704   3.716  0.1681 -0.0862  0.1698
 3792W        W19261  11.481   8.108   4.930 -0.2617  0.1055  0.0311
 3793W        W19262  13.819  13.104   5.347 -0.1559 -0.1172 -0.0204
 3794W        W19263   9.308  13.396  15.452 -0.0037  0.2137 -0.0550
 3795W        W19264   8.553  13.360  10.132  0.3528 -0.0714  0.1010
 3796W        W19265   6.588   3.722  12.038 -0.0071  0.2108 -0.2804
 3797W        W19266  14.222   7.192  13.111 -0.2601  0.3091  0.1145
 3798W        W19267   1.453   8.707   0.315  0.1178  0.2237 -0.1846
 3799W        W19268  10.955   1.874   3.526  0.1104  0.1943 -0.0269
 3800W        W19269  14.414   3.133   2.005  0.0402  0.1431 -0.1457
 3801W        W19270  15.563  10.103   0.908 -0.1224 -0.0106  0.2688
 3802W        W19271  10.974  12.731   1.312 -0.1834 -0.0127 -0.1851
 3803W        W19272   6.283  11.077   0.584 -0.0146  0.3359 -0.1751
 3804W        W19273  14.584   6.558  11.003  0.0261  0.1598 -0.1613
 3805W        W19274   5.177   7.993  10.938 -0.0954 -0.2530 -0.0680
 3806W        W19275  17.971   2.244  13.174 -0.0922  0.0674 -0.0569
 3807W        W19276  14.169  14.238   0.356 -0.0874  0.3463  0.1952
 3808W        W19277  14.091  14.621  13.289  0.2293  0.3359 -0.0264
 3809W        W19278  17.110  17.145   0.863 -0.1804 -0.2422  0.2174
 3810W        W19279  11.005   7.978   1.871  0.3119 -0.0399 -0.0967
 3811W        W19280  15.343   0.015  11.833 -0.1179  0.0302 -0.3547
 3812W        W19281   8.840   1.589  13.968 -0.0044 -0.0657 -0.2531
 3813W        W19282  10.289   8.143   3.661 -0.0765  0.2057  0.3319
 3814W        W19283  15.486   5.926   5.020  0.2187  0.3140 -0.3474
 3815W        W19284  11.764   7.177  10.477 -0.0592  0.5084  0.1540
 3816W        W19285  13.236   6.605  11.061 -0.1057 -0.2563  0.1361
 3817W        W19286  15.469   5.799   2.476 -0.1448 -0.0499 -0.1098
 3818W        W19287   4.879   7.531  14.731 -0.0384  0.0424  0.0329
 3819W        W19288   1.910  11.168  13.035 -0.1269 -0.1670  0.1906
 3820W        W19289   4.188  11.716  13.595  0.1467  0.0195  0.1649
 3821W        W19290  15.238  16.791   3.397 -0.2493 -0.0203 -0.3073
 3822W        W19291  13.485   5.264   0.948 -0.1001  0.0016  0.1777
 3823W        W19292   5.805   4.130   5.031  0.1539  0.1083  0.0092
 3824W        W19293  17.858   8.762   3.194  0.1692 -0.0238  0.2147
 3825W        W19294  14.966  17.139   0.809 -0.2186  0.2258  0.0995
 3826W        W19295  11.926  16.638   5.428  0.1195 -0.0112  0.2085
 3827W        W19296  17.642   2.050   1.958 -0.2295 -0.0200  0.1794
 3828W        W19297   5.338  15.872   3.385  0.2881 -0.3673  0.2911
 3829W        W19298   7.785   9.657  13.618 -0.3237 -0.0313 -0.3975
 3830W        W19299   9.929  18.268  14.093  0.2046 -0.2491  0.3072
 3831W        W19300   2.652  10.921  11.665  0.1719 -0.0723  0.3545
 3832W        W19301  10.240   8.641  10.906  0.1982  0.2642 -0.1224
 3833W        W19302   9.508   0.491   1.850 -0.1535  0.2073 -0.1649
 3834W        W19303  14.774   8.884  10.802  0.1427  0.0896  0.0085
 3835W        W19304   6.721   9.128  10.654 -0.0135  0.0952  0.1315
 3836W        W19305  18.241  10.574  11.229  0.0380  0.0519 -0.0890
 3837W        W19306  11.530   8.130   0.173 -0.0987  0.0023  0.0418
 3838W        W19307   7.947   4.877   9.862  0.4352  0.5146 -0.0773
 3839W        W19308   4.705   3.334   1.607 -0.0621 -0.4011  0.2437
 3840W        W19309  13.071  16.542  11.930 -0.0945 -0.0940 -0.2457
 3841W        W19310   7.233  15.222  13.427 -0.0313 -0.1499 -0.0329
 3842W        W19311   2.741  17.347   3.711 -0.0709 -0.0549 -0.0876
 3843W        W19312  10.450   2.623  12.929  0.1298 -0.1173 -0.2299
 3844W        W19313   8.894  10.636  11.069 -0.0321  0.0410  0.0612
 3845W        W19314   6.555   7.668  14.555  0.0856 -0.4604 -0.3254
 3846W        W19315  11.518   4.723  11.350  0.1564 -0.1658 -0.2574
 3847W        W19316   1.100   0.267   1.829 -0.1560  0.1575  0.0908
 3848W        W19317  12.865   9.673  12.713  0.3110  0.2236  0.0396
 3849W        W19318   6.170  12.689  12.586  0.1965 -0.0728 -0.2093
 3850W        W19319   1.381   4.674   4.870  0.0737 -0.1116  0.2543
 3851W        W19320  12.246  16.794  14.653  0.0834 -0.1855  0.1392
 3852W        W19321   8.850   7.800  13.385 -0.0738  0.0973 -0.2634
 3853W        W19322   5.386  17.244  15.579 -0.0700 -0.1381  0.2389
 3854W        W19323  18.426   4.635  14.843 -0.1678 -0.0184 -0.2134
 3855W        W19324  18.066  18.617  13.535 -0.0808 -0.2109  0.2481
 3856W        W19325  13.368  18.573  12.301  0.1429 -0.3906  0.4132
 3857W        W19326   3.091   9.987   0.969  0.0026  0.0708 -0.0751
 3858W        W19327   2.622  15.661  12.260  0.3598 -0.0137  0.0746
 3859W        W19328   1.888   1.887   2.173 -0.0309  0.0648  0.1172
 3860W        W19329  17.665  10.069  13.042  0.1558  0.1372  0.0814
 3861W        W19330   4.425  11.210  10.694  0.2441  0.0618 -0.3698
 3862W        W19331  14.762  10.765   3.231 -0.0387 -0.4043 -0.0929
 3863W        W19332   7.589  11.018   3.278 -0.2226  0.2246 -0.0382
 3864W        W19333  13.518   8.346   1.917 -0.0913  0.1162 -0.1600
 3865W        W19334   7.013   6.909  12.296  0.0407  0.0109  0.3624
 3866W        W19335  12.334   9.222  13.192 -0.3452  0.1840 -0.0764
 3867W        W19336   5.987  10.758   3.163 -0.0582 -0.0748  0.0816
 3868W        W19337  14.981  16.093   4.166  0.1353 -0.0182  0.0980
 3869W        W19338   3.529   7.127  13.372  0.1313 -0.0588 -0.1043
 3870W        W19339  13.605   4.656   2.119  0.0166  0.0711  0.0276
 3871W        W19340   9.992  14.603   1.401 -0.0749 -0.1969 -0.0253
 3872W        W19341   9.205  13.722   3.320 -0.0936 -0.0772  0.0250
 3873W        W19342  15.621   2.572  11.554 -0.1780 -0.1126  0.2934
 3874W        W19343  17.776  18.404   2.828  0.0086  0.0610 -0.0798
 3875W        W19344   4.867  11.250   3.270 -0.0058 -0.1784 -0.1171
 3876W        W19345  17.132  11.752  10.417 -0.0887 -0.0374  0.0671
 3877W        W19346  17.053   1.792  13.492  0.0662  0.5360 -0.2331
 3878W        W19347   4.624   0.342   5.936 -0.3043 -0.0639 -0.3591
 3879W        W19348  17.450  10.491  12.712  0.3843  0.3316  0.0729
 3880W        W19349   0.246  16.405   3.357 -0.2694 -0.1010  0.1059
 3881W        W19350  16.899   7.325  12.844  0.1060  0.1736 -0.2060
 3882W        W19351  11.141   7.242  14.124 -0.0148 -0.4196  0.0000
 3883W        W19352   9.920  18.437   1.725  0.0119 -0.0906  0.1851
 3884W        W19353   3.627   7.581  12.537 -0.0478 -0.2506 -0.0822
 3885W        W19354  10.586  10.724  13.171  0.2397  0.1358  0.2217
 3886W        W19355  11.147   8.158  14.986 -0.0015 -0.2544  0.1363
 3887W        W19356   2.904  10.575  12.814 -0.1678 -0.5472  0.2012
 3888W        W19357  12.440  15.101   1.594 -0.1425 -0.1309 -0.1260
 3889W        W19358  14.702   9.753  15.578 -0.0658 -0.0440 -0.1598
 3890W        W19359   0.455  16.773  14.716 -0.1730 -0.4711 -0.0865
 3891W        W19360  10.009   1.894   4.338  0.1706  0.0744 -0.1748
 3892W        W19361  16.290   6.555  14.816  0.0530 -0.0291 -0.1801
 3893W        W19362  18.249  17.718   1.605 -0.1715  0.3402  0.1235
 3894W        W19363   0.947   2.998   0.558 -0.4707  0.3021 -0.5432
 3895W        W19364   1.829   4.331   2.370 -0.0190  0.0419 -0.1854
 3896W        W19365  16.533  16.164   2.726 -0.0838  0.2545  0.2054
 3897W        W19366  14.366   4.926  15.378  0.0155  0.1224  0.0641
 3898W        W19367  13.687   5.619   3.444  0.1829 -0.0531 -0.0941
 3899W        W19368  13.502  11.280  11.628  0.0802  0.0894 -0.4861
 3900W        W19369  14.679  17.363   3.978  0.1618  0.1464  0.4761
 3901W        W19370   0.142  15.495  13.658  0.0301  0.2496  0.0666
 3902W        W19371   2.301   6.200  15.445  0.0829 -0.0849 -0.0600
 3903W        W19372   7.714   3.137  12.711  0.0765  0.0218 -0.3858
 3904W        W19373  14.956   8.218  11.296  0.2820  0.0114  0.0285
 3905W        W19374  12.635   8.408   0.678  0.0633  0.0820 -0.0434
 3906W        W19375   6.823   7.915   1.217  0.1158  0.2176 -0.0952
 3907W        W19376   0.145   4.468  11.738  0.0960 -0.0965 -0.1278
 3908W        W19377   6.908   0.606   4.682  0.0248  0.0574 -0.0121
 3909W        W19378   2.476   7.241  13.268  0.0596  0.1479  0.2435
 3910W        W19379   8.419   9.766  14.464 -0.1885 -0.1217 -0.3388
 3911W        W19380   8.110   3.073   5.352  0.1575  0.0277 -0.1892
 3912W        W19381   5.047  17.491   0.220 -0.0931 -0.0731  0.0723
 3913W        W19382  18.598  17.667   4.989  0.0195 -0.3091  0.1180
 3914W        W19383  18.120  15.386   0.178  0.1035  0.2875  0.1061
 3915W        W19384  12.221  11.028   1.136 -0.3111  0.1524 -0.0313
 3916W        W19385  18.234  11.780  11.418 -0.0403 -0.0134 -0.0113
 3917W        W19386   9.039   0.317   4.951  0.0484 -0.0808  0.2329
 3918W        W19387   8.039   4.132  13.954 -0.2372 -0.0683 -0.5087
 3919W        W19388  11.290   5.156   0.212  0.0466  0.0411 -0.1611
 3920W        W19389  12.047  10.608   0.965  0.1645  0.0415 -0.0391
 3921W        W19390   9.358  12.844   2.826  0.3565  0.0031  0.0039
 3922W        W19391  18.083   6.559   0.057 -0.4086  0.1541  0.1376
 3923W        W19392  18.085  13.075   2.408 -0.4710  0.0103 -0.0059
 3924W        W19393  14.590  14.586  12.540  0.0058  0.0905  0.0988
 3925W        W19394  16.135   5.380   2.045 -0.0946  0.4584  0.0016
 3926W        W19395  17.099  10.497  15.559  0.2733 -0.1884  0.4177
 3927W        W19396  17.953  14.875   3.956 -0.0001  0.2105  0.3363
 3928W        W19397  16.384   4.973  10.532  0.0144  0.1942 -0.3204
 3929W        W19398  10.230   4.759  12.619  0.1555 -0.4043 -0.0050
 3930W        W19399   0.712  18.188   1.182  0.1736 -0.0094  0.0776
 3931W        W19400   3.527  14.381   4.572 -0.0270 -0.0318  0.0299
 3932W        W19401   6.030   5.822  10.968  0.1652  0.0522 -0.1042
 3933W        W19402   7.784  17.885  14.783  0.3025  0.3511 -0.2603
 3934W        W19403  10.411   3.356   3.318 -0.1573 -0.0232 -0.0955
 3935W        W19404   9.759   0.821   4.950 -0.2945  0.3667  0.1020
 3936W        W19405   2.227  17.441  13.840  0.1278  0.1156 -0.2463
 3937W        W19406  15.188   2.695  13.333 -0.1503  0.1641 -0.2130
 3938W        W19407   0.904   2.602  12.155 -0.2762 -0.0380  0.1480
 3939W        W19408  16.169   8.065   4.381  0.2206  0.2424  0.2093
 3940W        W19409   4.842  13.228  12.413  0.0992  0.1915  0.2323
 3941W        W19410  11.819   7.113   2.781  0.1027  0.0207  0.2841
 3942W        W19411   3.019   7.353   1.195  0.1098 -0.0947 -0.2126
 3943W        W19412   3.210  16.667   2.409  0.0640 -0.0717 -0.0017
 3944W        W19413   4.556   7.064  14.629  0.3475 -0.0156 -0.0116
 3945W        W19414  10.545  15.217  15.545 -0.2889 -0.1468  0.1470
 3946W        W19415  18.211  15.985  14.669 -0.3614 -0.0011  0.0286
 3947W        W19416   1.779   8.464  14.142  0.1347 -0.1704 -0.1644
 3948W        W19417  12.309   2.806   1.171 -0.1015 -0.1500  0.0298
 3949W        W19418   1.373  11.930  11.119 -0.1056 -0.1845 -0.0559
 3950W        W19419  11.599  11.770   0.451  0.0502  0.1706  0.0064
 3951W        W19420  11.723  16.259  11.566 -0.3793  0.1115 -0.1775
 3952W        W19421   5.314   2.010   4.769  0.1047  0.0803 -0.0720
 3953W        W19422  12.485   9.749   0.498 -0.1552  0.2312  0.0562
 3954W        W19423  17.230   0.803  13.570  0.0517  0.3146  0.0230
 3955W        W19424   6.103  18.231   1.398  0.0938 -0.2555 -0.0524
 3956W        W19425  10.364   7.663   3.802 -0.1745 -0.2295  0.0876
 3957W        W19426   9.175   3.079  14.467  0.0158  0.3129  0.0521
 3958W        W19427  10.195   5.132   6.361 -0.1939 -0.1753  0.2970
 3959W        W19428   7.449   9.122   2.395 -0.2231 -0.1389 -0.3959
 3960W        W19429   6.674   4.475  14.661 -0.0108 -0.2577  0.0052
 3961W        W19430  16.030  11.921  14.887 -0.1374 -0.2389  0.0886
 3962W        W19431   4.648  10.997  14.896  0.1802  0.0585  0.3176
 3963W        W19432  14.936   3.181  11.073  0.1360 -0.0713 -0.2616
 3964W        W19433   9.135   5.162   2.146 -0.0283  0.0285  0.3898
 3965W        W19434  16.273  10.153  11.019  0.0321 -0.0231 -0.3208
 3966W        W19435  13.147   9.962  11.298  0.0251 -0.0520  0.3470
 3967W        W19436  17.031   6.711   0.872 -0.0558  0.2834  0.0169
 3968W        W19437  15.705  10.581   0.853  0.0509 -0.2820 -0.1042
 3969W        W19438  12.298   4.745   0.673  0.2336  0.0070  0.2618
 3970W        W19439   1.369  12.778   1.714 -0.2089 -0.3568  0.2797
 3971W        W19440   8.644   2.648  13.543  0.2437  0.2445  0.0073
 3972W        W19441  13.918  10.565  13.092  0.0614 -0.1983 -0.2274
 3973W        W19442  10.618   4.543  14.351  0.0972  0.0322  0.2098
 3974W        W19443  12.848   0.273   0.293  0.1996 -0.0601  0.0742
 3975W        W19444   9.655   0.075  15.514 -0.3491  0.0700  0.0712
 3976W        W19445   3.213  10.089   2.336  0.1341 -0.0687 -0.1686
 3977W        W19446  15.207  14.458   2.294  0.0755 -0.0797  0.0691
 3978W        W19447   0.555   7.869  15.125  0.2835 -0.2512  0.1834
 3979W        W19448  13.483  13.685   2.763 -0.0293 -0.1917  0.1571
 3980W        W19449   8.463  10.930   2.700 -0.0487  0.0758  0.0047
 3981W        W19450   3.373  16.071  11.828 -0.0453 -0.2861  0.1169
 3982W        W19451  13.227   7.048  12.550 -0.3445 -0.1240 -0.1432
 3983W        W19452  14.230  17.082  11.923  0.2691 -0.0584 -0.2923
 3984W        W19453   5.996   9.128   1.908  0.1627  0.0808  0.1129
 3985W        W19454  13.863  13.859  11.655 -0.2161  0.0429  0.4473
 3986W        W19455   4.878  18.511   2.193  0.0207 -0.0151  0.3141
 3987W        W19456  12.134   6.657   0.429  0.0172 -0.0899 -0.1983
 3988W        W19457   2.748   5.427   3.995 -0.0906 -0.2150  0.0428
 3989W        W19458   3.874   9.975   3.260  0.2961 -0.0047  0.2524
 3990W        W19459  10.792   1.685   3.112 -0.0222  0.2100 -0.1648
 3991W        W19460   0.031  13.314   0.460  0.0427  0.0044  0.3240
 3992W        W19461  16.730  17.194   5.995  0.2735 -0.1148 -0.2557
 3993W        W19462   1.026  13.046   5.786 -0.0516  0.1981  0.0174
 3994W        W19463  11.063  10.928  11.879  0.0796  0.2681 -0.4182
 3995W        W19464  16.054   7.984   0.704  0.3611  0.1590  0.0595
 3996W        W19465  18.623   2.972   0.346 -0.0275 -0.0149 -0.0360
 3997W        W19466   1.989   8.527  12.488 -0.0515 -0.0249  0.2775
 3998W        W19467  12.246  12.058  12.481 -0.1231 -0.0962  0.0910
 3999W        W19468   1.116  10.410  12.932  0.0460  0.2684  0.0207
 4000W        W19469  15.374   0.228  15.093  0.0246  0.0687  0.0210
 4001W        W19470  15.691   9.117   1.816  0.1884  0.1868 -0.0295
 4002W        W19471  10.171  16.166   5.156 -0.1235 -0.1540  0.4700
 4003W        W19472   0.608   9.346   2.742  0.0526 -0.1456  0.0209
 4004W        W19473   7.062  10.835  10.923  0.0571  0.2107  0.2725
 4005W        W19474  16.305   6.407  12.465 -0.1252  0.0547 -0.1441
 4006W        W19475   3.527   0.695   3.235 -0.3223 -0.1177 -0.1126
 4007W        W19476   5.318  14.851  15.018  0.3545  0.0640 -0.4518
 4008W        W19477  12.475  12.054   1.094  0.0792 -0.0199 -0.1363
 4009W        W19478  11.187   7.374  13.588 -0.1661  0.2400  0.0938
 4010W        W19479   9.411  17.567  13.877 -0.0379  0.0252 -0.0041
 4011W        W19480  17.070  13.263   2.228 -0.0238  0.1377  0.1983
 4012W        W19481  13.815   5.500  14.105 -0.3620  0.1861  0.1067
 4013W        W19482   2.422   6.852   3.133  0.0950  0.0602  0.1486
 4014W        W19483   2.447  12.206  11.930 -0.2538 -0.2116  0.0460
 4015W        W19484  12.144  15.637  10.324  0.0234  0.3548 -0.0037
 4016W        W19485   0.834  18.387   4.852  0.1155 -0.2975  0.0005
 4017W        W19486   0.822  17.443   2.910 -0.0658  0.2269  0.1104
 4018W        W19487  13.367  12.042  11.158  0.1423  0.0509  0.2888
 4019W        W19488   7.349   1.596   1.605  0.0775 -0.1521  0.2824
 4020W        W19489   1.647   7.114  14.265 -0.1415 -0.2346  0.1341
 4021W        W19490   3.829  18.302   1.594  0.0109  0.0809  0.1794
 4022W        W19491  14.477   0.240  14.572  0.1217 -0.1927 -0.2410
 4023W        W19492   7.618  13.947   5.810  0.1803 -0.0565 -0.1825
 4024W        W19493  10.314  17.624  12.483 -0.0345  0.1194 -0.0362
 4025W        W19494   3.086   0.808   5.019 -0.0831  0.0946 -0.3508
 4026W        W19495   6.195  11.724   3.079  0.0554  0.1521 -0.1675
 4027W        W19496   7.362  12.041  13.619 -0.1966  0.1929 -0.0230
 4028W        W19497   8.281   0.014  13.214 -0.2187  0.3064 -0.3405
 4029W        W19498  13.398  10.492   2.892  0.1183  0.0150 -0.0758
 4030W        W19499  10.002  16.874  14.591 -0.1246 -0.0628 -0.0377
 4031W        W19500   4.835  12.479  12.420  0.0439  0.2189  0.1715
 4032W        W19501   2.233   3.706  10.766 -0.0181  0.0435 -0.1644
 4033W        W19502  18.326  16.020  11.005  0.1072  0.0737 -0.3878
 4034W        W19503   6.305   9.734   3.980 -0.0123 -0.1690  0.0261
 4035W        W19504   9.516   5.145  10.313 -0.2361  0.2210  0.0712
 4036W        W19505   3.249   2.577  15.773  0.1768 -0.1787 -0.2375
 4037W        W19506   4.456   4.596   4.087  0.2792 -0.2537  0.0009
 4038W        W19507  13.194  16.817   2.825 -0.0648  0.0434  0.0467
 4039W        W19508  15.855  12.821  14.478 -0.2057 -0.0338 -0.2832
 4040W        W19509  11.988   1.403   2.431  0.0761 -0.0591 -0.2690
 4041W        W19510  14.251  15.171  11.479  0.0025  0.2318 -0.0732
 4042W        W19511  16.314   7.779   2.567 -0.1811  0.2127  0.0695
 4043W        W19512  10.703  13.239  15.722  0.1172  0.2466  0.1851
 4044W        W19513   5.297  11.540   0.160  0.0113  0.1580 -0.1036
 4045W        W19514  13.288  15.752   4.792 -0.0076  0.0363 -0.1865
 4046W        W19515   6.945  11.245  10.594 -0.1624  0.0078  0.1281
 4047W        W19516   8.288  14.450  14.022  0.1734 -0.3813  0.0025
 4048W        W19517  15.659  17.156   0.123  0.0424  0.0485 -0.0266
 4049W        W19518  10.735   0.496  11.684  0.0059  0.0524  0.1176
 4050W        W19519  18.294   3.770   0.205 -0.2668 -0.1716  0.1863
 4051W        W19520   3.989  13.256  10.798  0.2619  0.0463  0.0107
 4052W        W19521   7.061   4.835   5.675 -0.0287 -0.2083 -0.0628
 4053W        W19522   6.221   0.588   1.650 -0.4561 -0.3755 -0.2168
 4054W        W19523  18.303  13.429  10.063 -0.0593  0.0268 -0.0969
 4055W        W19524   4.780   7.874  13.742 -0.2352 -0.0203  0.0986
 4056W        W19525   2.251   5.420   1.703  0.1519  0.2107  0.1039
 4057W        W19526  11.371   6.693   5.894 -0.5119  0.1816 -0.0642
 4058W        W19527  15.715   7.113   4.127  0.0788 -0.0632  0.0810
 4059W        W19528  12.772  16.084  12.584 -0.1795 -0.4822  0.1332
 4060W        W19529   5.653   8.926   4.056 -0.1821  0.0687 -0.2184
 4061W        W19530  11.110   0.816   3.210 -0.1899  0.2916 -0.1657
 4062W        W19531   7.717   1.674  15.469  0.1104 -0.3100  0.0108
 4063W        W19532   6.395  15.959  14.721 -0.2084 -0.3581  0.0994
 4064W        W19533   3.044   3.752   3.698  0.1992  0.2602 -0.1408
 4065W        W19534   4.632   4.578   3.532 -0.1285 -0.1289 -0.1565
 4066W        W19535  14.978  15.722  15.634 -0.0377 -0.1041 -0.1731
 4067W        W19536  13.825   3.348   4.957  0.0364  0.2052  0.0181
 4068W        W19537  17.991   2.779   2.509 -0.3584 -0.1024  0.1581
 4069W        W19538   8.073  12.722  15.673  0.4196  0.0099 -0.1674
 4070W        W19539   5.571   3.617   5.968 -0.2454 -0.2676  0.0272
 4071W        W19540  12.197   6.584   3.437 -0.1400  0.1146  0.1487
 4072W        W19541   4.124  14.476   3.574 -0.1370  0.2180  0.2617
 4073W        W19542  11.139   0.827  11.545 -0.3805  0.0739  0.4215
 4074W        W19543   1.499   2.400   0.813 -0.0602  0.0477 -0.2802
 4075W        W19544   8.041   7.353  14.330 -0.0530 -0.1412  0.0205
 4076W        W19545   4.413   7.337  10.778 -0.1369  0.0004 -0.3313
 4077W        W19546  17.760   8.395   0.369 -0.2338  0.1215  0.1231
 4078W        W19547  14.535   8.277  15.640 -0.0198  0.0822 -0.1762
 4079W        W19548  12.250  12.832   1.506 -0.1116 -0.1088 -0.0702
 4080W        W19549   2.936   9.218   4.383  0.0214 -0.0444 -0.2151
 4081W        W19550   3.818  17.577  14.618 -0.0399 -0.0923  0.3496
 4082W        W19551   0.523  18.285   2.962 -0.2957  0.2244 -0.2857
 4083W        W19552   3.074  12.954  15.580 -0.0561  0.1397 -0.0835
 4084W        W19553  13.241  13.834  12.365  0.0790 -0.3504 -0.0640
 4085W        W19554  13.272   1.566   2.344 -0.2757 -0.0452 -0.1410
 4086W        W19555  10.918  18.229   3.932 -0.2548 -0.1721 -0.2211
 4087W        W19556   0.940   8.305   2.912 -0.1378  0.0991 -0.0658
 4088W        W19557   5.682   5.825  15.550 -0.0159 -0.0105 -0.0545
 4089W        W19558  11.266   3.424  12.446 -0.0062 -0.2914 -0.0513
 4090W        W19559  18.443   5.745   0.082  0.0272  0.0516 -0.1350
 4091W        W19560   6.675  13.821   0.205 -0.4969 -0.0230 -0.1068
 4092W        W19561  14.957   4.523   0.258  0.0343 -0.2927  0.3592
 4093W        W19562  12.778  14.222  14.338 -0.0888  0.0044  0.2123
 4094W        W19563   5.989   2.735   2.385  0.1203  0.1668 -0.0776
 4095W        W19564  16.524   1.688   4.534 -0.0563 -0.1382 -0.2434
 4096W        W19565   6.184  10.010  12.356 -0.0603 -0.1575  0.0806
 4097W        W19566  11.071  15.081   4.003 -0.0194  0.0022 -0.0747
 4098W        W19567  16.831   9.799   4.003 -0.2114  0.2702  0.0142
 4099W        W19568  17.716   8.298  12.602 -0.2361  0.0242  0.3444
 4100W        W19569   7.244   8.260   1.324 -0.3976  0.0451  0.0805
 4101W        W19570   2.544  14.014   4.091  0.0071 -0.1583  0.0385
 4102W        W19571   6.524  10.497   4.184  0.0528 -0.0749 -0.3732
 4103W        W19572   0.857   5.090   2.644 -0.2653 -0.1910  0.1323
 4104W        W19573   6.720   9.395  11.028 -0.0145  0.0763 -0.1137
 4105W        W19574  15.343   5.474   3.625  0.0742  0.1179 -0.3280
 4106W        W19575  12.033  16.316  12.990 -0.2863 -0.1525 -0.0703
 4107W        W19576   3.597   4.762   5.021 -0.0069 -0.1868 -0.0514
 4108W        W19577   2.793   3.853  15.434 -0.0331  0.2841  0.0302
 4109W        W19578   1.605   7.436  12.182  0.0257 -0.2966  0.0689
 4110W        W19579   1.712  14.605   2.040 -0.0761 -0.2381 -0.2444
 4111W        W19580  16.955   2.561   4.657 -0.0046  0.1225 -0.0968
 4112W        W19581  16.453   6.257  11.868  0.0457  0.0537  0.1206
 4113W        W19582   0.434   3.215   0.340 -0.2225 -0.2362 -0.1186
 4114W        W19583   3.683   2.446   0.793 -0.1584  0.0584  0.0640
 4115W        W19584   0.133   5.094   1.997 -0.1511 -0.1148  0.1636
 4116W        W19585   6.390   2.630   6.195  0.0733  0.1077  0.1674
 4117W        W19586  14.194   9.290   0.144 -0.0696  0.5095 -0.2683
 4118W        W19587  16.515   0.594  15.116  0.2158 -0.2843  0.0729
 4119W        W19588   5.158  16.364   5.470 -0.1111  0.0533 -0.1574
 4120W        W19589  16.451   4.646  13.566 -0.0208  0.1447  0.4207
 4121W        W19590  10.824  14.214   1.670  0.1032 -0.0215 -0.2352
 4122W        W19591   4.001   1.525   4.745  0.1025  0.1586  0.2373
 4123W        W19592  14.994   2.494  12.767  0.3495  0.4686  0.4210
 4124W        W19593  12.393   2.020  13.082  0.2821  0.0328  0.1955
 4125W        W19594   3.248   8.456  11.630  0.0064 -0.0138  0.0991
 4126W        W19595  13.348   6.934  13.667 -0.0105  0.0693  0.0432
 4127W        W19596   4.182  17.636   1.266  0.1357  0.0475  0.0660
 4128W        W19597   2.117   4.508  15.255  0.1165 -0.2324  0.2607
 4129W        W19598  13.657  11.421  12.908 -0.1646  0.0612  0.0761
 4130W        W19599  15.290  13.743   2.811  0.2379 -0.1938 -0.4395
 4131W        W19600   4.192   5.408  15.248 -0.2784 -0.3032  0.2034
 4132W        W19601  15.598  16.168  11.487 -0.2248 -0.0185  0.0381
 4133W        W19602  13.831   1.829  10.049 -0.1289 -0.0892  0.0284
 4134W        W19603   0.705   2.893  11.321  0.0301  0.1842 -0.0159
 4135W        W19604   1.172  14.692   0.402 -0.1159 -0.3229 -0.0361
 4136W        W19605   2.760  10.207  13.120 -0.2855 -0.0301 -0.2502
 4137W        W19606   0.062  16.887   1.761  0.1254 -0.0429 -0.0265
 4138W        W19607   2.383   4.809   0.481 -0.0439 -0.1298 -0.5122
 4139W        W19608  11.902  10.534   1.846  0.0894 -0.1501  0.3353
 4140W        W19609   5.837   6.365   1.309 -0.2109  0.0516  0.2201
 4141W        W19610  18.422  10.143  11.138 -0.0469 -0.1358  0.1300
 4142W        W19611  10.137   5.799  12.500 -0.1242 -0.0398 -0.0828
 4143W        W19612  17.457   1.699  14.407 -0.0975 -0.2841  0.0245
 4144W        W19613   6.850   0.444   5.726 -0.1799 -0.1591  0.0392
 4145W        W19614  17.759  16.185  13.181 -0.1832  0.4255  0.0886
 4146W        W19615  15.289   6.353  14.823 -0.0649  0.1051  0.1373
 4147W        W19616  13.924   9.465  14.056 -0.1755 -0.1985  0.0376
 4148W        W19617  10.275   5.758  14.834  0.2769  0.3420  0.1361
 4149W        W19618   1.749   5.548  12.950  0.0438  0.1628 -0.1803
 4150W        W19619   0.564  17.049   1.748  0.1007  0.3552  0.2947
 4151W        W19620  10.143   9.263  12.329  0.1402  0.2277 -0.0353
 4152W        W19621   9.587   2.841   3.550 -0.2428  0.0955  0.2986
 4153W        W19622  16.785  17.412   1.294 -0.0042 -0.0166 -0.2162
 4154W        W19623   3.978   4.604   4.300  0.2528 -0.0540  0.1748
 4155W        W19624  16.248   4.106  10.631  0.0941  0.1798 -0.1983
 4156W        W19625   8.499  12.505   1.432 -0.0548  0.2978  0.1544
 4157W        W19626   1.410   0.264  11.987 -0.2249  0.3407 -0.0399
 4158W        W19627   1.889   9.339   0.855 -0.1348  0.0184  0.0244
 4159W        W19628   2.344   2.772  15.022  0.5640 -0.3991 -0.3935
 4160W        W19629   0.483   6.618  15.188  0.0511 -0.0896 -0.1375
 4161W        W19630   1.921  14.685  10.973 -0.1068 -0.1545 -0.2080
 4162W        W19631   6.183   4.164   1.303 -0.3031 -0.0047  0.2046
 4163W        W19632  17.621  17.458   3.622  0.0002  0.2817 -0.2637
 4164W        W19633  15.755   2.352   6.060  0.0861 -0.1037 -0.0933
 4165W        W19634   0.386   7.643   0.334  0.1647  0.2365 -0.0399
 4166W        W19635  15.020   5.601  14.419  0.0126  0.1482 -0.2878
 4167W        W19636  13.990   4.957  14.965  0.0600 -0.0856 -0.0566
 4168W        W19637  14.177   2.214   3.117  0.2493 -0.1372 -0.0708
 4169W        W19638   3.015   5.331   1.246  0.0872 -0.0410  0.0442
 4170W        W19639  17.749  16.843   2.733 -0.1980  0.0806  0.0506
 4171W        W19640   7.271   3.175   1.334  0.1628 -0.2884  0.0598
 4172W        W19641  18.466   2.839  11.012  0.3175 -0.1953  0.0879
 4173W        W19642   3.054  12.862   3.665 -0.0791  0.0493  0.0164
 4174W        W19643   2.822  12.254   2.244  0.3551 -0.0166 -0.1820
 4175W        W19644  18.551  17.041   4.315  0.3073  0.0012 -0.1778
 4176W        W19645   3.254  17.561  10.612 -0.0235 -0.1548  0.2242
 4177W        W19646   7.592   8.053   4.416 -0.0788  0.1548  0.3125
 4178W        W19647  11.943   6.867  11.061 -0.0135 -0.3678  0.1318
 4179W        W19648  10.880   7.487   2.809 -0.1974  0.4173 -0.1454
 4180W        W19649   8.825   3.735  11.430 -0.0513 -0.0569 -0.1565
 4181W        W19650  17.453  15.488   5.975 -0.0264 -0.4023 -0.0480
 4182W        W19651   9.772   6.242   5.101 -0.3388 -0.0742 -0.0705
 4183W        W19652   6.009  12.000   0.667  0.0438  0.1236  0.1229
 4184W        W19653  12.684   3.068   4.222  0.2590  0.0164  0.2123
 4185W        W19654   8.678   6.524  14.616 -0.2026  0.0360  0.4323
 4186W        W19655  15.066   3.127   3.433  0.1105  0.1746  0.0679
 4187W        W19656   9.498   1.897   5.729 -0.1770  0.2059  0.3816
 4188W        W19657   7.083   4.514  13.537 -0.4574  0.2756  0.1670
 4189W        W19658  14.147   5.954  14.456  0.1402  0.2913 -0.1202
 4190W        W19659   8.423   6.470  13.199  0.1897 -0.4013  0.1729
 4191W        W19660   5.118   7.427  11.039  0.0178  0.3197 -0.2358
 4192W        W19661   1.144   7.120  10.023 -0.1446 -0.1196  0.0898
 4193W        W19662  16.821  15.621  14.517 -0.1697  0.1447 -0.1872
 4194W        W19663   9.795   6.934   4.388 -0.2360 -0.0287 -0.0775
 4195W        W19664  14.643   6.674  10.500  0.0883 -0.1040  0.0331
 4196W        W19665  14.068  12.727   0.570  0.1389  0.2688  0.2169
 4197W        W19666   5.319   5.733   0.135  0.0827 -0.3180 -0.3045
 4198W        W19667   7.797   6.550  15.394  0.3381 -0.1229  0.1523
 4199W        W19668  15.688   6.492  14.609 -0.0409 -0.1977 -0.0724
 4200W        W19669   8.532   0.363   6.163 -0.0270  0.1337 -0.1236
 4201W        W19670   3.083  13.007   3.162  0.0559 -0.1025 -0.0285
 4202W        W19671   3.062   8.793  12.891 -0.1328 -0.0077  0.0750
 4203W        W19672  14.081   1.790   2.252 -0.1737  0.3317 -0.3469
 4204W        W19673  10.382   8.265  15.627 -0.0921 -0.3607 -0.2566
 4205W        W19674   3.931  16.256   3.266 -0.0710  0.0847 -0.0557
 4206W        W19675  16.428   9.943  13.532 -0.2890 -0.0617  0.0575
 4207W        W19676   9.600   0.224   4.142 -0.0372 -0.0736  0.0575
 4208W        W19677  15.188   0.882   4.589 -0.4086  0.2829  0.0469
 4209W        W19678   9.850  11.635   0.432 -0.0434  0.2993 -0.0641
 4210W        W19679  18.228  11.786   5.222  0.0783 -0.3070  0.0879
 4211W        W19680  17.653   7.304   2.928  0.3098 -0.2559 -0.1962
 4212W        W19681   5.934   3.718  14.165 -0.0826  0.1914 -0.2755
 4213W        W19682  15.338   6.460   0.155  0.0267  0.1148 -0.2149
 4214W        W19683  15.696   3.998   2.798 -0.3830  0.2070  0.0726
 4215W        W19684   3.452   7.732  11.499 -0.0813  0.2340 -0.1461
 4216W        W19685   8.232  13.581   4.026 -0.0519 -0.2950  0.0202
 4217W        W19686   7.996   5.709   0.524  0.1669  0.1251 -0.1013
 4218W        W19687  11.318  13.047  13.467  0.0820  0.1611 -0.0865
 4219W        W19688  17.835   4.932   4.768  0.0874 -0.1979  0.3444
 4220W        W19689   5.680   7.999   0.612  0.2806 -0.1715 -0.0456
 4221W        W19690  10.010  18.318  11.857 -0.0097  0.1066 -0.0999
 4222W        W19691  10.426   1.372   1.080 -0.1718  0.2810 -0.0419
 4223W        W19692   1.636   9.872   3.507 -0.0602 -0.3340  0.2880
 4224W        W19693  11.451   5.156  12.210  0.2577  0.0402 -0.3136
 4225W        W19694   5.591  12.695   0.921  0.1236  0.1384 -0.2100
 4226W        W19695  16.415   0.215   1.035  0.1658  0.0297  0.2061
 4227W        W19696  16.854   5.842  13.924 -0.1278 -0.0264  0.1336
 4228W        W19697  12.260  14.590   0.828  0.0303 -0.1566  0.0048
 4229W        W19698   1.501  13.047  11.984 -0.2473  0.0039  0.0665
 4230W        W19699  13.447   2.918   0.304  0.2271  0.0747  0.3864
 4231W        W19700  10.052   0.081  14.417 -0.2563  0.1571 -0.0084
 4232W        W19701   1.561  17.854   1.068  0.0024  0.0639 -0.0401
 4233W        W19702   1.790   1.665  11.078  0.2408  0.2327  0.0780
 4234W        W19703   3.030   9.020   3.172 -0.3987 -0.3175 -0.1815
 4235W        W19704   0.924   1.720  10.926 -0.3722  0.1386 -0.0628
 4236W        W19705   5.835  15.372  11.968 -0.5667 -0.0227  0.0550
 4237W        W19706  10.119   5.979   2.543 -0.1812  0.1318  0.0326
 4238W        W19707   6.055   5.750  15.251 -0.3209  0.4315 -0.3336
 4239W        W19708  17.692   9.017   3.576 -0.3214  0.2561 -0.0077
 4240W        W19709  13.392   4.662   4.876 -0.0714 -0.2292  0.2429
 4241W        W19710  11.028  17.220  11.198  0.2288 -0.0222 -0.2058
 4242W        W19711  11.698  16.410   0.041 -0.0239 -0.1158  0.0637
 4243W        W19712   9.741   0.325   2.661 -0.0759  0.0368  0.1956
 4244W        W19713   7.878   2.273   4.364 -0.0990 -0.0973 -0.4048
 4245W        W19714   3.018  15.390  13.192  0.0622 -0.2724 -0.3669
 4246W        W19715  13.653   5.118  12.194 -0.1716  0.3484 -0.0517
 4247W        W19716  16.963  15.976  12.738 -0.0026  0.0395  0.5177
 4248W        W19717  10.507  14.800   1.732 -0.2415 -0.0385  0.0840
 4249W        W19718  16.471  16.826  10.524 -0.0721 -0.0138  0.1499
 4250W        W19719   6.332  17.646  12.683 -0.1730 -0.0765 -0.1586
 4251W        W19720   3.125  14.712  14.963  0.0754 -0.1055  0.0648
 4252W        W19721  17.400   8.569   2.799  0.0122  0.0614 -0.0268
 4253W        W19722   8.493   0.299   4.639 -0.1077  0.3765  0.1921
 4254W        W19723  10.672   7.067  14.340 -0.1287 -0.2886 -0.1372
 4255W        W19724   6.946  10.699   2.444  0.0898  0.0126  0.1024
 4256W        W19725  17.129   7.330   2.959  0.0324  0.3175 -0.1191
 4257W        W19726   6.921   7.540   0.155  0.0443 -0.0601 -0.1484
 4258W        W19727  14.530   4.950   3.365  0.2092  0.2709 -0.3368
 4259W        W19728  17.887   2.555   2.089  0.2726  0.1727  0.0585
 4260W        W19729   6.710   9.403   2.357 -0.2099 -0.1722  0.1277
 4261W        W19730   4.840  15.631   2.509  0.1962 -0.1837 -0.0142
 4262W        W19731  12.803   7.858   9.756  0.0724  0.2787  0.0419
 4263W        W19732   6.537  10.451  13.993 -0.3397  0.3126  0.1721
 4264W        W19733  14.121   5.276  10.730 -0.1601  0.1494 -0.1447
 4265W        W19734  16.734   0.611  14.442 -0.4556 -0.2825  0.1276
 4266W        W19735   9.409   0.708   4.316 -0.0114 -0.0284 -0.3646
 4267W        W19736  12.383   6.648   4.654  0.2225 -0.0709  0.2086
 4268W        W19737  16.832  17.332   5.496 -0.1263  0.1441 -0.0563
 4269W        W19738  10.624   1.539   3.613  0.2962  0.0944  0.3168
 4270W        W19739  18.422  18.407  11.299 -0.0751 -0.0550  0.0583
 4271W        W19740   5.221   6.332   1.330  0.3560 -0.2341  0.0209
 4272W        W19741  12.721  17.906   3.307 -0.1980  0.0785  0.1472
 4273W        W19742  11.280   2.087   2.177  0.0676 -0.3416 -0.2195
 4274W        W19743  14.342   0.819   1.877 -0.1976 -0.2900  0.0229
 4275W        W19744   1.154  18.357  11.403  0.0531  0.0252 -0.0281
 4276W        W19745   4.505   5.785  15.512  0.0368  0.1835 -0.2096
 4277W        W19746  11.572   8.854  13.374 -0.1536  0.2057 -0.0886
 4278W        W19747  17.526  11.491   0.692 -0.1565  0.0138 -0.0951
 4279W        W19748  12.845  12.942   2.970  0.1427  0.0749  0.2631
 4280W        W19749   3.262  13.195  11.550  0.1650  0.2501 -0.1280
 4281W        W19750  14.629   0.410  13.781  0.0402  0.0159 -0.2330
 4282W        W19751  17.147   5.246   1.083 -0.2324  0.0427  0.0728
 4283W        W19752   9.609  13.053  11.529  0.2371  0.0314  0.0689
 4284W        W19753   1.782  13.923  14.229  0.0556  0.0411 -0.2137
 4285W        W19754  13.303   3.717   3.808 -0.1053  0.2084  0.1527
 4286W        W19755  15.733   0.209   2.364  0.0096 -0.0542  0.2179
 4287W        W19756  11.572   2.050  10.927  0.2446 -0.0327 -0.0871
 4288W        W19757   4.018   2.257   2.891 -0.1014 -0.2832  0.0786
 4289W        W19758   2.794  17.965   0.321  0.2465  0.2077  0.0236
 4290W        W19759   7.770  17.742   1.163  0.0363 -0.0760  0.4907
 4291W        W19760   6.838   1.403  12.379  0.0208 -0.0746 -0.2106
 4292W        W19761   4.747   1.102  14.116  0.2886 -0.0945 -0.2620
 4293W        W19762  14.303   0.408  10.812 -0.3131 -0.1276  0.0871
 4294W        W19763   4.341   3.186  13.656  0.2317  0.1251  0.1430
 4295W        W19764   3.399  15.979   4.969 -0.1511  0.1886 -0.1849
 4296W        W19765  14.790  18.321   5.394  0.2882 -0.1705  0.0269
 4297W        W19766  14.632   4.122  14.831 -0.1066  0.0409 -0.1314
 4298W        W19767   6.314   7.527  13.020  0.2063  0.1710  0.0003
 4299W        W19768  11.387   4.344  14.237 -0.1935  0.0733 -0.2059
 4300W        W19769  16.786  17.624  15.216 -0.0177 -0.2128  0.2929
 4301W        W19770  18.577   7.960  11.141  0.0530  0.0382 -0.2243
 4302W        W19771   0.630  12.846  13.907 -0.3305 -0.2746 -0.2376
 4303W        W19772  15.446   0.297  15.621  0.4026 -0.0150  0.1334
 4304W        W19773  14.734  11.135  13.383  0.1468 -0.0005  0.2348
 4305W        W19774   9.786  17.636   0.755 -0.2076  0.2317  0.2708
 4306W        W19775   9.613  10.965  10.305  0.0818  0.0878 -0.1384
 4307W        W19776  11.031   8.168   9.946 -0.0651 -0.0082  0.0586
 4308W        W19777   1.870  17.474   1.124  0.1263  0.0594 -0.1878
 4309W        W19778  12.599  11.336   0.278 -0.2761  0.0991  0.2351
 4310W        W19779  12.777   9.983  14.463 -0.0794 -0.0980  0.0646
 4311W        W19780   5.546  14.870  11.280 -0.4861  0.1563 -0.1126
 4312W        W19781  17.697   7.422   3.504  0.0574  0.0388  0.0890
 4313W        W19782   2.652   5.663   3.566 -0.1500  0.4550 -0.1963
 4314W        W19783  17.134  10.105  13.020 -0.0585 -0.1278 -0.0994
 4315W        W19784   4.296  17.010   4.936 -0.2062  0.0031 -0.1448
 4316W        W19785   2.075  15.853  13.448  0.0435 -0.0663 -0.0169
 4317W        W19786  11.495   5.510   3.604  0.1835  0.0700  0.2068
 4318W        W19787  14.745   8.672   0.690 -0.0361  0.3041 -0.3704
 4319W        W19788   9.744  16.812   2.576 -0.0849 -0.0013  0.2160
 4320W        W19789   3.169  15.798  15.225  0.4338  0.3798 -0.2243
 4321W        W19790   9.086  10.523  15.213  0.0050  0.2449 -0.0018
 4322W        W19791   2.939  14.322   0.938 -0.2854 -0.2211  0.0364
 4323W        W19792   5.777  12.613  12.228 -0.0575 -0.0328 -0.1809
 4324W        W19793   3.188   3.392  11.529  0.1096 -0.0702  0.1655
 4325W        W19794   4.301  14.119   4.128  0.1033  0.0831  0.0675
 4326W        W19795  10.670   3.281  13.473  0.1513 -0.0298 -0.0452
 4327W        W19796   3.779  12.818  14.913  0.0886  0.1000 -0.2371
 4328W        W19797   9.736   8.854  13.295 -0.2866 -0.1587  0.1014
 4329W        W19798  12.183  18.607  11.470  0.1062 -0.3333 -0.1259
 4330W        W19799  18.519   1.441  14.134 -0.2579  0.0910  0.2296
 4331W        W19800  13.356   5.402  12.554  0.1436 -0.2158 -0.3219
 4332W        W19801   4.330   0.680   4.207  0.1898 -0.1068  0.2406
 4333W        W19802   4.007   6.649  15.559 -0.1900  0.2740  0.1514
 4334W        W19803  10.450   4.798   1.186  0.0482  0.1665  0.2288
 4335W        W19804   7.978   6.430   0.616 -0.1213 -0.2268  0.1525
 4336W        W19805   5.542  10.572   3.061  0.0562 -0.3478  0.1561
 4337W        W19806   2.953  12.427  13.471  0.4318 -0.1018 -0.0384
 4338W        W19807   3.724   8.735  11.644  0.4503 -0.3205  0.2381
 4339W        W19808   7.748  10.842   0.978  0.1800 -0.0513 -0.2182
 4340W        W19809   5.668  10.668  11.640  0.1092 -0.2656 -0.1300
 4341W        W19810  10.524   2.010  14.112  0.2073  0.0531 -0.2737
 4342W        W19811  10.885  10.519   3.497  0.1471  0.1887  0.0254
 4343W        W19812  13.606   0.941  12.525  0.0885  0.1708 -0.2384
 4344W        W19813   5.934  11.864  14.526  0.0679 -0.1399 -0.2449
 4345W        W19814   7.566   3.708  15.360  0.1512  0.1915 -0.1063
 4346W        W19815   7.350   4.804  13.199  0.2614 -0.1612 -0.0147
 4347W        W19816  11.198   2.423  11.124 -0.1254  0.1640  0.3226
 4348W        W19817   1.498   6.712   1.745 -0.1700 -0.0447  0.2503
 4349W        W19818  17.360   0.103   2.854  0.2014  0.2593 -0.1773
 4350W        W19819  13.759  17.582   5.131 -0.4015 -0.0584 -0.3789
 4351W        W19820   2.820  12.581   3.321  0.0173 -0.2680  0.0402
 4352W        W19821  15.542   0.525   1.205 -0.1325  0.2227 -0.1914
 4353W        W19822  16.444   6.365   5.527  0.0364  0.1459  0.1829
 4354W        W19823   9.144   6.648  13.874  0.0505  0.0960  0.0100
 4355W        W19824   7.189   5.386   5.488 -0.1496 -0.0934  0.0554
 4356W        W19825   7.434  18.428  12.269 -0.3807 -0.2268  0.1832
 4357W        W19826   8.187  15.837   1.510  0.2075  0.0273  0.1237
 4358W        W19827  17.430  14.749   4.934  0.0002  0.0111  0.3308
 4359W        W19828  15.786  10.381   2.163  0.1007 -0.0334  0.3184
 4360W        W19829   2.207   5.958  14.226 -0.4065 -0.2006  0.0074
 4361W        W19830  15.173  14.832   6.033  0.3741  0.0455 -0.0333
 4362W        W19831   6.976   4.268  15.172  0.0754 -0.0231  0.0463
 4363W        W19832   9.273  16.418  14.971 -0.1765 -0.0172  0.0507
 4364W        W19833  11.715  13.531  11.457  0.0218 -0.2130 -0.2369
 4365W        W19834   0.864   8.091   1.627 -0.1418  0.0369 -0.1607
 4366W        W19835   9.441   2.870   9.753  0.1331  0.0553 -0.2132
 4367W        W19836   0.291  10.878  12.480  0.1820  0.1422  0.1506
 4368W        W19837   1.199   7.314   1.161 -0.1826  0.1176  0.0089
 4369W        W19838  15.629   0.814   4.862 -0.1393  0.0396  0.0426
 4370W        W19839   0.402  10.464   0.645 -0.2300 -0.3963  0.0222
 4371W        W19840   7.810  13.251  15.580 -0.1892  0.0602 -0.2083
 4372W        W19841  17.128   8.898  10.159 -0.0032  0.0234  0.0244
 4373W        W19842   4.337  13.418   1.912 -0.0975 -0.1098 -0.0342
 4374W        W19843  13.652   7.217   0.341  0.0037 -0.0058  0.1431
 4375W        W19844   4.162   2.031  10.929  0.1978  0.3905  0.2594
 4376W        W19845   0.860   4.742  14.571  0.3639  0.1252 -0.2530
 4377W        W19846  10.495  14.679  15.660 -0.0235 -0.1272  0.1631
 4378W        W19847   3.904  15.742  15.556 -0.1114  0.2254  0.1325
 4379W        W19848   8.805  18.537   6.187 -0.0150 -0.1820  0.1230
 4380W        W19849   8.916  14.102   1.196  0.0150 -0.2727  0.0670
 4381W        W19850  11.594   3.470   4.219 -0.2349  0.0156  0.1335
 4382W        W19851   6.647   0.633   4.253 -0.2660 -0.1706 -0.3475
 4383W        W19852  11.729   1.942   2.454  0.2883  0.1791  0.0278
 4384W        W19853  11.566   2.011   1.724 -0.0333  0.4355  0.0384
 4385W        W19854  11.616  12.341  15.097  0.0959  0.0847 -0.0791
 4386W        W19855   6.829   4.887  13.249  0.4845  0.0444 -0.1743
 4387W        W19856  11.043  16.378   3.302  0.2362 -0.2149  0.0656
 4388W        W19857   0.381   4.084  11.853 -0.1641  0.1742 -0.0991
 4389W        W19858  16.862  13.737   2.111 -0.1133 -0.1942  0.1383
 4390W        W19859   0.672   0.220   4.742  0.1808 -0.1759  0.1168
 4391W        W19860   7.004  17.416   4.230  0.2492 -0.1991 -0.1690
 4392W        W19861   8.543   4.589  12.031 -0.1910  0.3021 -0.2290
 4393W        W19862   6.290  15.011   3.758 -0.0580  0.0850  0.3086
 4394W        W19863  14.378  15.434   5.749 -0.0124  0.1237  0.0306
 4395W        W19864   9.336   2.587   0.049 -0.0630  0.3335  0.0098
 4396W        W19865  17.759   1.279   1.084 -0.0893  0.2538 -0.0958
 4397W        W19866  18.609  11.591  11.808 -0.4315 -0.0259  0.0880
 4398W        W19867  14.757   4.890   4.769 -0.0999 -0.1279 -0.0378
 4399W        W19868   8.036   8.380   3.138  0.0902 -0.1908 -0.2376
 4400W        W19869  14.426  18.613  11.678  0.3896 -0.0274 -0.2189
 4401W        W19870  13.870  17.992  14.715  0.0463 -0.0800  0.1063
 4402W        W19871  13.202  10.687  11.867 -0.3995 -0.1517  0.1846
 4403W        W19872  11.657   2.152   3.534 -0.3126  0.1737  0.0129
 4404W        W19873  14.438   3.250  13.845  0.3553  0.1531 -0.4033
 4405W        W19874   1.167   5.772  10.022 -0.3390  0.1541  0.0762
 4406W        W19875   5.109   6.127   5.726 -0.0416  0.0450  0.1306
 4407W        W19876  13.688  17.117   0.876 -0.4047 -0.1742 -0.0244
 4408W        W19877  17.377  15.255   3.618 -0.2497  0.0537  0.2067
 4409W        W19878   7.374   4.983   0.873 -0.0080  0.0375 -0.4486
 4410W        W19879  13.148   6.432   2.075 -0.0698  0.0019 -0.3014
 4411W        W19880   2.424   3.867   4.767 -0.1364  0.0956  0.0046
 4412W        W19881  11.438   5.577   2.978  0.2117 -0.1054 -0.0032
 4413W        W19882  14.728  14.957  15.198  0.3164 -0.0707  0.3371
 4414W        W19883  14.582   2.564   1.788 -0.2885 -0.1422  0.0829
 4415W        W19884  15.345  17.288   1.694  0.2891 -0.1026 -0.1683
 4416W        W19885  13.583   7.118   2.889  0.2845 -0.1881  0.0089
 4417W        W19886  13.236   9.292   1.523  0.0876 -0.2309  0.0031
 4418W        W19887  18.235   7.431  11.145  0.0813  0.4264 -0.0317
 4419W        W19888   0.778  14.447   3.891  0.0968 -0.0454  0.1730
 4420W        W19889   3.522  16.001  11.323  0.0461 -0.1512  0.1151
 4421W        W19890   6.315  16.511   4.988 -0.0839  0.0286  0.2483
 4422W        W19891  15.208  18.516  14.131 -0.0070  0.1025  0.1441
 4423W        W19892  13.010  18.115  13.656 -0.2421 -0.0861  0.3163
 4424W        W19893  13.906  11.927   3.227 -0.0466  0.0636  0.3492
 4425W        W19894   2.239  13.526  13.471  0.0221  0.1837 -0.0836
 4426W        W19895  10.981   4.536   3.560  0.2909  0.0802 -0.1659
 4427W        W19896  10.230  16.738  14.131  0.0430  0.2812  0.0825
 4428W        W19897   7.495  14.476  13.490 -0.2027  0.2731 -0.0295
 4429W        W19898   8.255  16.133   2.946 -0.3264  0.0953  0.0858
 4430W        W19899  14.311  11.065   4.466 -0.3511 -0.0045 -0.0645
 4431W        W19900   4.604   9.200   2.685 -0.1110 -0.0521  0.2487
 4432W        W19901   4.526   9.325   1.059  0.1028  0.0217 -0.1829
 4433W        W19902  11.427   4.287  11.102 -0.2165  0.0254 -0.0709
 4434W        W19903  16.433  12.586  11.416  0.0520 -0.0377 -0.1015
 4435W        W19904   7.267  14.620   3.156 -0.3074 -0.1216  0.1101
 4436W        W19905  14.274   3.988   2.425  0.2263 -0.0991  0.1887
 4437W        W19906  10.943   9.513  12.948  0.1797  0.2885 -0.0248
 4438W        W19907   8.474  14.471   4.484  0.3975 -0.0917 -0.2512
 4439W        W19908   3.109  13.603   2.806 -0.0187  0.0362 -0.4720
 4440W        W19909   3.835   3.633   3.897  0.0324 -0.1574  0.1388
 4441W        W19910  18.556   7.501  11.510  0.3781  0.2637  0.2162
 4442W        W19911  11.867   1.602  12.642 -0.0307 -0.4637  0.2117
 4443W        W19912   9.948  10.184  12.687 -0.0619  0.1224  0.1693
 4444W        W19913  12.678  15.353   2.040  0.1475 -0.0106  0.5291
 4445W        W19914   4.846  12.957   4.542 -0.2311 -0.0694  0.0431
 4446W        W19915  12.108  11.070   1.683 -0.1066 -0.2118  0.2850
 4447W        W19916  15.713   3.479   4.516 -0.0276  0.2333 -0.0800
 4448W        W19917   1.100   5.551   1.309 -0.1433  0.0895 -0.2155
 4449W        W19918  13.105   6.584   5.848  0.0548  0.2496 -0.1185
 4450W        W19919   6.955   3.044  12.708  0.1223  0.2732  0.0450
 4451W        W19920  14.721   7.968   0.732 -0.0301 -0.2736  0.4486
 4452W        W19921  14.854  16.169  14.806  0.3756  0.0671 -0.2239
 4453W        W19922   0.141  12.583  10.911  0.0118 -0.1556 -0.0227
 4454W        W19923  10.645   2.425  14.590  0.1933 -0.0652  0.1060
 4455W        W19924   5.413   5.004  11.315  0.0862 -0.1585 -0.1953
 4456W        W19925   4.079  17.142  13.375  0.0632 -0.1819  0.2610
 4457W        W19926  18.441   3.387   4.304  0.1905 -0.3702 -0.4230
 4458W        W19927  16.807   0.460   4.777 -0.2483 -0.5851  0.1036
 4459W        W19928   2.632  13.550   1.223 -0.2858 -0.2299 -0.0389
 4460W        W19929   9.427  15.689  14.107  0.0935  0.0496 -0.2786
 4461W        W19930   4.721   3.372   4.744  0.1473  0.0750 -0.1349
 4462W        W19931  18.546   9.238   9.840  0.2241 -0.1511 -0.2542
 4463W        W19932   5.042   6.423  11.341 -0.0690 -0.2604 -0.0397
 4464W        W19933  11.468  16.942  12.948 -0.3155 -0.1831 -0.1546
 4465W        W19934   8.776   7.777   5.058  0.0514  0.3068 -0.0277
 4466W        W19935   7.638  13.625   1.764  0.1312  0.2311  0.1857
 4467W        W19936   6.783   6.088   3.853  0.0167  0.0202 -0.2442
 4468W        W19937  17.735   3.849   3.965 -0.0383 -0.1367 -0.2073
 4469W        W19938  15.365  10.715  13.846  0.1268  0.1614 -0.0003
 4470W        W19939  18.274  10.797  13.970 -0.2051  0.0482  0.3101
 4471W        W19940  15.559  13.315  15.282  0.0314  0.0729 -0.0895
 4472W        W19941  17.537   0.607   3.146 -0.2288  0.0401 -0.0039
 4473W        W19942  10.105   2.230   1.925 -0.0684 -0.0286 -0.2005
 4474W        W19943   9.505  16.476  13.615 -0.2259 -0.4654  0.2304
 4475W        W19944  17.424   2.080  13.491 -0.0632 -0.0848  0.0599
 4476W        W19945  11.982   8.680  14.640  0.3335 -0.0176 -0.2011
 4477W        W19946  12.847  15.640   1.072  0.1696  0.1088 -0.1015
 4478W        W19947   0.779   6.562   2.896 -0.0211 -0.0427  0.1958
 4479W        W19948  16.103  18.377  12.462 -0.1335 -0.1129 -0.1404
 4480W        W19949  18.563  17.235   3.481  0.1714 -0.0049  0.1487
 4481W        W19950  15.489  12.073   3.348 -0.3117  0.1115  0.0957
 4482W        W19951  15.623   1.479   4.236  0.0118  0.1836 -0.1065
 4483W        W19952  12.876  10.452  13.932  0.1429  0.1090 -0.3718
 4484W        W19953   8.688   5.271   5.577 -0.0640 -0.1532  0.2219
 4485W        W19954   2.013   0.671   4.830  0.1277 -0.2711  0.1490
 4486W        W19955  12.996   5.471   2.254  0.0229  0.2256 -0.0951
 4487W        W19956  10.760   5.016  10.052  0.0469 -0.1349  0.4275
 4488W        W19957  10.948   0.551  13.578 -0.3160  0.1301 -0.0270
 4489W        W19958  13.912   4.917  14.471 -0.3880  0.0310  0.0782
 4490W        W19959   0.493  13.849  14.315  0.0637 -0.0078 -0.0074
 4491W        W19960  12.866  15.613  10.823  0.0922 -0.2023 -0.0854
 4492W        W19961   3.616  15.891  14.673 -0.0953  0.0156 -0.5557
 4493W        W19962  13.873   0.612  11.778 -0.1397 -0.1294 -0.1483
 4494W        W19963   5.389   9.517   5.117  0.1213  0.2849  0.2035
 4495W        W19964  15.576  15.460  13.686  0.0280  0.3158 -0.3053
 4496W        W19965  16.415  15.698  14.191  0.2748  0.2531  0.1849
 4497W        W19966  13.600  18.515   4.864 -0.0692 -0.0732  0.2270
 4498W        W19967  11.006  11.763   3.617  0.2442 -0.2991 -0.0978
 4499W        W19968   9.531   7.887  12.122 -0.2642 -0.2717  0.0352
 4500W        W19969   5.431   4.798   0.423 -0.0823  0.0898 -0.2709
 4501W        W19970  12.921   3.738   0.617  0.0674 -0.2029 -0.0625
 4502W        W19971  13.690   6.046   3.145  0.1971 -0.0022 -0.0186
 4503W        W19972  12.221  12.068  10.560  0.0856  0.1466 -0.2217
 4504W        W19973   3.491   5.359  10.221  0.0389 -0.0019 -0.0344
 4505W        W19974  16.571   3.093  14.367 -0.1525  0.1984  0.1244
 4506W        W19975  11.614   2.797   4.854 -0.3498  0.1419  0.1219
 4507W        W19976  17.187  11.454   0.227 -0.1702 -0.1378  0.1752
 4508W        W19977  10.421  17.004   4.936  0.3295  0.1359 -0.1283
 4509W        W19978  15.486   3.129   0.166  0.1357 -0.0076 -0.0213
 4510W        W19979   2.598  12.145  12.431 -0.1097 -0.1692 -0.2938
 4511W        W19980  16.743   6.312  13.975  0.4010 -0.0760  0.2868
 4512W        W19981   9.408   8.341   3.567 -0.3472  0.0659 -0.2064
 4513W        W19982   4.915  18.010   3.010  0.0239 -0.2758  0.2542
 4514W        W19983   2.647   4.558   9.574 -0.0599  0.2460 -0.0766
 4515W        W19984  13.510  12.885  12.214  0.2251  0.2090  0.1101
 4516W        W19985   6.666  13.781  15.019 -0.0621 -0.2882 -0.1579
 4517W        W19986  15.453  12.799   2.196 -0.3422  0.0334 -0.3341
 4518W        W19987   3.585  11.088   0.010 -0.0660 -0.1650  0.2223
 4519W        W19988  12.392  12.436  10.936 -0.0941  0.2010  0.2775
 4520W        W19989   3.739  11.179   1.508  0.2034  0.0864  0.0554
 4521W        W19990  10.288   0.069   1.689  0.1582  0.1771 -0.0030
 4522W        W19991   8.494  16.706  12.191  0.1397 -0.1874  0.3191
 4523W        W19992  17.506  17.093  12.050  0.3053 -0.1074 -0.1702
 4524W        W19993   5.093  12.738   1.076 -0.0130 -0.1049 -0.0702
 4525W        W19994   2.971   8.417   3.909  0.0576 -0.1492 -0.0357
 4526W        W19995   6.945  15.363   1.545 -0.0192 -0.1237 -0.0020
 4527W        W19996   7.798  14.218   1.999  0.0906 -0.0434  0.3319
 4528W        W19997  12.947   1.694   5.201 -0.1295  0.3676  0.1141
 4529W        W19998   9.312   4.386  13.889 -0.3525 -0.1043 -0.0460
 4530W        W19999  10.387   0.755   5.895 -0.0466 -0.3335 -0.2119
 4531W        W20000  16.229   3.795  15.576 -0.2176  0.2991 -0.0487
 4532W        W20001   6.607   4.300  13.843  0.2251 -0.2730  0.0496
 4533W        W20002  13.372   9.517   0.071 -0.2881  0.3411  0.0297
 4534W        W20003  16.914   6.465   2.760 -0.2915 -0.0998  0.2715
 4535W        W20004  11.086   9.771  12.577 -0.0908 -0.0228 -0.1114
 4536W        W20005   4.374   2.697   3.141 -0.1177  0.2327 -0.2238
 4537W        W20006   8.465  16.644   3.046 -0.0557  0.0632  0.0404
 4538W        W20007  10.320  16.634  15.095  0.0626 -0.1361 -0.1348
 4539W        W20008   2.478   8.200  11.767 -0.0051 -0.2332 -0.0824
 4540W        W20009   0.245  12.151  13.036  0.0226  0.3069 -0.3936
 4541W        W20010   5.290   4.876   4.177  0.2033  0.2344 -0.0388
 4542W        W20011   3.824  14.872   2.909 -0.0693 -0.1136 -0.1660
 4543W        W20012  16.905  15.647  13.975  0.0290  0.0228 -0.2516
 4544W        W20013   2.592   3.579   3.461 -0.0155  0.1624  0.0461
 4545W        W20014  17.888  18.369   4.562 -0.1086  0.2932 -0.1669
 4546W        W20015   2.898   9.838  14.799  0.2911  0.0742 -0.2111
 4547W        W20016   6.914  10.825   1.134 -0.1008 -0.0936  0.0903
 4548W        W20017   2.925  18.596  11.334  0.1645 -0.1439 -0.0358
 4549W        W20018  16.557   6.497   3.101 -0.1967 -0.2321  0.0940
 4550W        W20019   8.404  18.414   3.281 -0.0285 -0.0020  0.0677
 4551W        W20020   1.901  11.186   3.469  0.3196  0.1285  0.2183
 4552W        W20021   5.247  14.308  15.112  0.3012 -0.0130  0.0842
 4553W        W20022  14.006  15.388   3.398  0.2206 -0.1126 -0.0844
 4554W        W20023   9.412  15.421  12.560 -0.1890  0.0736  0.0405
 4555W        W20024  17.215  17.181   3.610 -0.0241  0.1725 -0.1811
 4556W        W20025   4.822  13.692  12.496  0.1397  0.0074  0.2327
 4557W        W20026   1.762  17.632  15.517 -0.0333 -0.1354 -0.0479
 4558W        W20027   1.438   2.869   4.579 -0.1464 -0.0679 -0.0591
 4559W        W20028   3.177   1.648   0.973 -0.1303  0.1188 -0.4661
 4560W        W20029  10.283   0.623   2.402 -0.2850  0.1263  0.0323
 4561W        W20030   8.908   7.124  11.980  0.2285 -0.1315 -0.2264
 4562W        W20031   7.644   8.372  11.272 -0.0177  0.2571  0.5453
 4563W        W20032  10.326  14.025   4.594 -0.1141 -0.1167  0.0604
 4564W        W20033   3.257  10.900  15.408  0.0017 -0.1748 -0.0043
 4565W        W20034  13.061   6.484  11.725  0.1004 -0.0767  0.2332
 4566W        W20035   1.527   0.035   9.420  0.0130 -0.2376  0.0509
 4567W        W20036  11.153  13.654  13.646  0.0439 -0.0853  0.0516
 4568W        W20037  11.245   9.910   2.850 -0.1468  0.0892  0.0574
 4569W        W20038  10.032   3.635   3.736 -0.0417 -0.0558 -0.1170
 4570W        W20039  15.026   5.802  10.464  0.1532  0.3598 -0.2581
 4571W        W20040  16.221  11.438  14.256  0.0659 -0.2936 -0.0513
 4572W        W20041  11.664   6.864   1.143  0.3448  0.0689 -0.3232
 4573W        W20042  13.877   2.981  15.139  0.0774 -0.0122 -0.4019
 4574W        W20043  18.512  16.486   1.532  0.1992 -0.1570  0.0142
 4575W        W20044  16.826  15.534  10.193 -0.0954 -0.0890  0.4674
 4576W        W20045  16.270  10.431   6.046 -0.1227 -0.0286  0.0307
 4577W        W20046  12.907  13.532  12.642  0.3518 -0.0640 -0.1500
 4578W        W20047   8.238   2.175   3.191  0.0344  0.0846 -0.0247
 4579W        W20048   9.093   1.850   2.081 -0.2423 -0.1654  0.1261
 4580W        W20049  13.502   5.110   3.699 -0.1215  0.0400 -0.0984
 4581W        W20050   5.925   0.012  13.935 -0.1764 -0.0549 -0.0355
 4582W        W20051  17.427  11.551  14.073  0.0007  0.0309  0.0544
 4583W        W20052   9.025  17.380  12.919  0.2667  0.1164 -0.1408
 4584W        W20053   2.246  11.528  10.618  0.0195  0.1204  0.0441
 4585W        W20054   9.530   1.012  14.131 -0.2281  0.2046  0.2313
 4586W        W20055  18.109  13.979   1.350 -0.1829  0.0111 -0.0907
 4587W        W20056   6.489   7.818   2.208 -0.2875  0.2827 -0.1833
 4588W        W20057   3.436  16.409   2.826 -0.0444 -0.0722  0.0072
 4589W        W20058  10.193  14.335  11.091 -0.1342 -0.1263 -0.0107
 4590W        W20059  15.271   5.979   2.926  0.0977 -0.0903  0.2183
 4591W        W20060  10.360  10.340  12.428  0.0091 -0.0601 -0.1069
 4592W        W20061   3.439  14.843  10.561 -0.0107 -0.1189  0.0431
 4593W        W20062  10.014   2.412  12.834 -0.1558 -0.0388  0.1062
 4594W        W20063   5.960  12.575   3.649 -0.0712  0.2107  0.1668
 4595W        W20064   5.873   1.932   0.328 -0.1476  0.3210 -0.0605
 4596W        W20065  10.770  17.966  15.657  0.0764  0.2876  0.2148
 4597W        W20066  15.876   0.316   0.196 -0.0880  0.1749  0.1121
 4598W        W20067   2.651   2.108  11.277 -0.3295 -0.3111  0.0495
 4599W        W20068  13.452  13.507   5.310  0.1865 -0.2701  0.2418
 4600W        W20069   8.792   8.808   3.212 -0.0184  0.1791 -0.1748
 4601W        W20070  16.219  17.812   1.580 -0.1922 -0.2669 -0.1091
 4602W        W20071  13.812  13.513  15.529  0.0741  0.0194  0.0425
 4603W        W20072   8.058   1.280  11.636 -0.0985 -0.0123 -0.2595
 4604W        W20073   2.178  12.126  15.077 -0.1740  0.0027  0.1091
 4605W        W20074  12.513   3.084   2.620 -0.2637  0.0098 -0.0515
 4606W        W20075   5.164  18.527  12.260 -0.0796 -0.1910 -0.2988
 4607W        W20076   1.224  15.421   0.170 -0.0240  0.1496  0.0396
 4608W        W20077  12.104   9.749  11.458 -0.1208 -0.1592 -0.1443
 4609W        W20078  16.232   0.775   2.194  0.0435 -0.0953  0.0059
 4610W        W20079  17.212  17.342  15.681 -0.3547  0.3054  0.3062
 4611W        W20080  17.841  13.890  14.854  0.0889 -0.0027 -0.1717
 4612W        W20081   2.553   3.182   2.721  0.0402 -0.3695 -0.0445
 4613W        W20082   1.901  16.550   1.716  0.0740 -0.2170  0.2281
 4614W        W20083  10.055   7.947   2.830  0.0518  0.0071  0.0107
 4615W        W20084  12.681  17.222   5.254 -0.1489  0.0547  0.0424
 4616W        W20085  13.621  14.874  12.312 -0.1976 -0.0301  0.2638
 4617W        W20086   1.272  10.773   0.800 -0.0549 -0.2112  0.3651
 4618W        W20087  12.639  18.012   0.133 -0.0688  0.1524  0.2244
 4619W        W20088  18.596   0.038  15.210 -0.1605 -0.0105 -0.2799
 4620W        W20089  12.027   9.623  11.975  0.0821 -0.1795  0.0702
 4621W        W20090   8.986   7.038  12.430  0.3777  0.1545  0.1083
 4622W        W20091   7.696   6.975   2.356 -0.2824 -0.2240  0.1330
 4623W        W20092  17.031  14.681  10.464 -0.0771 -0.4389  0.1010
 4624W        W20093   0.777  14.650   4.990  0.0088  0.1619  0.1695
 4625W        W20094  12.631   5.195  15.261  0.1156  0.0053 -0.0040
 4626W        W20095  10.620  15.995   1.272 -0.1073 -0.1690  0.3158
 4627W        W20096   3.504   7.632  13.148  0.1317  0.0855 -0.1680
 4628W        W20097   2.908   4.878   0.481 -0.2818  0.1079 -0.0678
 4629W        W20098   2.366  15.148   4.487  0.1193  0.0895 -0.0714
 4630W        W20099   0.994   0.366  14.489 -0.1189  0.0606  0.1000
 4631W        W20100  17.892  12.185  12.760 -0.1470 -0.2546  0.6467
 4632W        W20101  14.305  14.356   1.956 -0.0119  0.2547  0.0249
 4633W        W20102  13.772   5.774  11.497  0.2768  0.0601  0.1001
 4634W        W20103   7.807  17.079   9.902 -0.2843 -0.4106  0.0256
 4635W        W20104  12.140  13.540  14.356 -0.0083  0.3481  0.1515
 4636W        W20105  13.382   9.517  12.454 -0.0761 -0.1343 -0.4406
 4637W        W20106  14.598   2.569  12.119  0.2312 -0.2647 -0.1185
 4638W        W20107   1.845   2.862   2.632  0.2055  0.2708 -0.0412
 4639W        W20108  16.783  14.417  12.315 -0.0843  0.3149 -0.0064
 4640W        W20109  10.663   2.984  11.784  0.0516  0.1796 -0.3258
 4641W        W20110  16.661   3.479  14.081 -0.1314 -0.1807  0.2927
 4642W        W20111   0.592   0.094   0.296  0.3786 -0.1766 -0.0949
 4643W        W20112  12.551   1.438   0.999  0.0337 -0.0566  0.0087
 4644W        W20113   5.884   7.978   4.394 -0.0629  0.1881  0.1475
 4645W        W20114  15.940  10.928  13.787  0.1572  0.0941 -0.1612
 4646W        W20115   9.202  16.181   2.799 -0.0499  0.1257  0.2319
 4647W        W20116   2.103   0.909  12.674  0.0101 -0.1643 -0.0162
 4648W        W20117   3.367  11.207  13.879 -0.1539  0.4898 -0.1396
 4649W        W20118  14.185   0.684   4.137  0.1155 -0.2789  0.1276
 4650W        W20119   2.534  11.324  10.915 -0.2792  0.2400 -0.3548
 4651W        W20120  11.464   9.833  14.583 -0.2174 -0.2946  0.0440
 4652W        W20121  18.437  10.974  14.803  0.1273  0.2697 -0.0176
 4653W        W20122  11.894   8.891  12.876 -0.1382 -0.0228 -0.2095
 4654W        W20123  12.819  10.024   4.643 -0.0948 -0.1103 -0.2473
 4655W        W20124   5.662   8.563  12.609 -0.3757  0.0934  0.0216
 4656W        W20125   5.750  14.949   3.858 -0.4364  0.3785 -0.2612
 4657W        W20126   3.099   7.509   4.976 -0.5914 -0.2678 -0.0270
 4658W        W20127  17.959  15.250  12.004  0.1473  0.3322  0.0059
 4659W        W20128   3.479   8.274   3.777 -0.1246  0.0561 -0.0145
 4660W        W20129   2.712   0.422  15.380 -0.0028 -0.2231 -0.0590
 4661W        W20130  12.570   1.859   5.847  0.1391 -0.1457  0.1245
 4662W        W20131   8.434  14.083   3.634  0.2776  0.1308 -0.0500
 4663W        W20132  13.808   2.049  13.831  0.1820  0.0954 -0.0858
 4664W        W20133  12.862   5.227   0.037  0.1115  0.1686 -0.1435
 4665W        W20134   1.065   5.399  10.586  0.3236  0.0175  0.2751
 4666W        W20135  14.532  10.287   4.474 -0.0273  0.1724 -0.0006
 4667W        W20136   7.034   7.508  14.195  0.1325  0.0419 -0.2138
 4668W        W20137  10.207   5.621   6.159  0.2553  0.0003  0.0251
 4669W        W20138   4.515   0.216   1.440  0.1173 -0.0890  0.1962
 4670W        W20139   8.555  14.679   5.421  0.1470 -0.0599  0.1577
 4671W        W20140   7.853  11.974  12.040  0.0860  0.0527 -0.0959
 4672W        W20141  12.813   5.125   5.218 -0.0570 -0.4117  0.0175
 4673W        W20142   2.771  10.851   3.445 -0.0123  0.0384 -0.0434
 4674W        W20143   6.461   9.413   3.475 -0.2671  0.2448 -0.4996
 4675W        W20144  14.232  12.900  11.400  0.0208  0.2834 -0.0096
 4676W        W20145   4.140  12.369   2.014  0.2545  0.4113  0.3980
 4677W        W20146   0.221   9.984   3.826  0.0633  0.1954 -0.1632
 4678W        W20147   0.326   9.636   0.780 -0.0697 -0.0613 -0.1652
 4679W        W20148   5.588  18.084  11.142 -0.0027  0.3019 -0.0979
 4680W        W20149   0.027  15.579  11.174 -0.1887  0.3295 -0.0771
 4681W        W20150  11.317   7.275   1.071 -0.1815 -0.0465  0.0949
 4682W        W20151   8.034   9.718   5.325  0.2048  0.0107  0.2764
 4683W        W20152   2.878  11.863  14.934 -0.0378  0.2442 -0.2880
 4684W        W20153   3.478   3.325  11.955  0.1129  0.3326  0.1115
 4685W        W20154   0.470   5.442  15.182 -0.0457 -0.0322  0.1137
 4686W        W20155  14.366   1.808  12.520 -0.2701 -0.0418  0.2684
 4687W        W20156  11.331   3.608   2.452 -0.3184  0.1678  0.1706
 4688W        W20157  15.510  10.131  11.856 -0.2049  0.0001  0.3912
 4689W        W20158  17.401   4.593  14.467  0.0585  0.0186 -0.0691
 4690W        W20159   1.149  10.124  14.763 -0.5255 -0.1175  0.2243
 4691W        W20160  10.942  16.256   2.605  0.0672 -0.0920  0.3342
 4692W        W20161   9.506   8.210  13.022  0.0533  0.2309  0.2860
 4693W        W20162  14.185  17.135   4.182  0.0643 -0.1033 -0.0238
 4694W        W20163  13.568  10.895   6.005  0.0148 -0.0092  0.0021
 4695W        W20164  14.323   0.172  12.898 -0.3064  0.0535 -0.1613
 4696W        W20165   7.077  13.792  14.345 -0.0270 -0.4367  0.2556
 4697W        W20166   0.998   6.138  10.924 -0.0041 -0.0283 -0.1476
 4698W        W20167   2.888  12.971  11.873 -0.2161  0.1000 -0.1780
 4699W        W20168  18.049   0.086   6.062  0.1742 -0.1688  0.3388
 4700W        W20169  12.921   8.495   3.575 -0.3391  0.2384 -0.0029
 4701W        W20170  13.414  16.260   4.721  0.1944 -0.1368  0.1952
 4702W        W20171  15.786  13.487   0.559  0.0028  0.1329  0.0183
 4703W        W20172  10.617  11.609  11.376 -0.0587 -0.0276 -0.0689
 4704W        W20173  13.716  13.698  12.537  0.1031 -0.1730 -0.5801
 4705W        W20174  12.191   5.321  10.333  0.0942  0.0541 -0.2359
 4706W        W20175  16.050   7.294  13.206  0.3769 -0.2997  0.3115
 4707W        W20176  16.531  13.513  12.119  0.0185  0.0383 -0.0952
 4708W        W20177  18.281  15.126   5.238  0.0854 -0.0275  0.0198
 4709W        W20178   6.731   9.219   3.046 -0.0335 -0.3718 -0.1669
 4710W        W20179   6.357  15.258  10.969  0.2439  0.1871 -0.3051
 4711W        W20180  14.168  16.917  14.970  0.0378 -0.0660 -0.2210
 4712W        W20181   6.606   6.023   4.762  0.0505 -0.0006  0.1921
 4713W        W20182  12.572  13.181  11.897 -0.1301 -0.1579 -0.2306
 4714W        W20183  10.547  18.373  14.928 -0.1435  0.3461 -0.2566
 4715W        W20184  14.820  16.724   1.257  0.0278 -0.1201 -0.1989
 4716W        W20185   5.154   2.932   2.690 -0.0188  0.2569 -0.3263
 4717W        W20186   7.982   8.734  13.820  0.0772 -0.1375 -0.1562
 4718W        W20187  18.071  10.733  11.666 -0.3600  0.1621  0.1108
 4719W        W20188   4.486  13.470  12.069 -0.2345  0.0199 -0.2427
 4720W        W20189   7.910  14.755  14.833  0.0326  0.4152  0.2116
 4721W        W20190  13.422  13.032  11.717 -0.1944 -0.0519  0.2613
 4722W        W20191  16.949   1.995  15.113 -0.1756  0.1164 -0.0728
 4723W        W20192  17.780  15.292  15.598  0.5059  0.1299 -0.3289
 4724W        W20193   8.458   3.036  12.709 -0.0866 -0.0667 -0.1553
 4725W        W20194   2.880  10.489   5.177 -0.2480 -0.1569  0.2100
 4726W        W20195  13.692  11.468  15.643 -0.1415  0.0808  0.1003
 4727W        W20196   8.875  11.939   2.199  0.3356  0.2751 -0.0158
 4728W        W20197   4.343   6.162   4.670 -0.0631 -0.1756 -0.0128
 4729W        W20198  14.038  16.136   1.900 -0.3460 -0.3337 -0.0457
 4730W        W20199  14.320  10.299   3.348 -0.1022 -0.0379 -0.1246
 4731W        W20200  15.004   6.293   3.332 -0.2976  0.0096  0.0046
 4732W        W20201   6.355  18.403   5.046 -0.3403 -0.1163  0.3560
 4733W        W20202  14.072   2.354   0.280  0.1853  0.3127  0.0036
 4734W        W20203  16.132  14.718  13.408 -0.2080 -0.5096  0.1366
 4735W        W20204  13.732   5.958  14.857 -0.1829 -0.3046  0.0803
 4736W        W20205  13.844   6.247  12.293 -0.2841 -0.1702  0.0110
 4737W        W20206   3.774  11.794  11.858 -0.3196 -0.2387 -0.1864
 4738W        W20207   0.047   1.459  13.356  0.2027  0.1201  0.2510
 4739W        W20208   1.687   3.027   3.586 -0.0568  0.2067 -0.0007
 4740W        W20209   9.984   3.671   3.169 -0.0882 -0.2303  0.1230
 4741W        W20210   6.609  18.223  15.180  0.5113 -0.1542 -0.1029
 4742W        W20211  11.283  12.852  11.148  0.4133 -0.0760 -0.1263
 4743W        W20212  12.491   1.918   0.503  0.1115  0.1549  0.1785
 4744W        W20213   8.725   3.255   3.708  0.0750  0.0080 -0.0400
 4745W        W20214   0.930  15.458  11.684 -0.3227 -0.0887 -0.4521
 4746W        W20215   9.991  13.689   3.846  0.1362 -0.1072 -0.0276
 4747W        W20216  12.031  13.294   0.136  0.3016 -0.1765  0.2834
 4748W        W20217   1.183   2.099   1.104  0.0995  0.0006  0.1333
 4749W        W20218  14.241   2.448  15.555  0.1480 -0.0115  0.1199
 4750W        W20219   1.739  12.137   2.457 -0.2700  0.2120  0.0454
 4751W        W20220   7.585  11.033   2.472  0.0663  0.2139 -0.0514
 4752W        W20221   9.539   9.752  13.724 -0.1804  0.2020  0.1028
 4753W        W20222   7.965   1.160   4.649 -0.0550  0.0000  0.4182
 4754W        W20223  15.720  10.693  13.336 -0.5534 -0.0105 -0.2260
 4755W        W20224   4.435   5.589   5.581  0.1283  0.1788  0.1694
 4756W        W20225  17.320   2.405   3.368 -0.1763 -0.2489  0.1785
 4757W        W20226   9.225  15.102   0.908 -0.4333  0.1494 -0.2168
 4758W        W20227   5.914   9.203  13.539  0.0920  0.0994 -0.0117
 4759W        W20228   9.678   9.365   3.430  0.0444  0.2235  0.0676
 4760W        W20229   9.097  11.931  14.200 -0.1907 -0.2529  0.1175
 4761W        W20230  10.042  18.569   0.557 -0.0400 -0.0733  0.1440
 4762W        W20231   1.976   6.067   9.773 -0.3104 -0.1352  0.2085
 4763W        W20232  10.335  11.370  14.411 -0.0800 -0.0540 -0.0761
 4764W        W20233  10.552   8.548   1.205 -0.1106  0.0415 -0.2904
 4765W        W20234   6.065   2.157  11.217  0.2743  0.0282 -0.4715
 4766W        W20235  13.775  18.211  15.183 -0.1756  0.1595  0.2497
 4767W        W20236   4.481   9.190   4.806 -0.3396 -0.0065  0.1281
 4768W        W20237  16.748   4.818   3.669  0.0663 -0.1904  0.2223
 4769W        W20238  11.760  10.597  11.738  0.2925  0.0739 -0.4413
 4770W        W20239   9.744  12.440   5.705  0.2498  0.0382 -0.1242
 4771W        W20240   6.968   5.718   5.181 -0.0071  0.2429  0.2235
 4772W        W20241  10.674   7.590  11.703  0.2251 -0.0525 -0.1292
 4773W        W20242  10.701  11.360  15.269  0.1064 -0.2351 -0.2305
 4774W        W20243   2.689  13.548   4.013  0.0023  0.0173 -0.0235
 4775W        W20244   4.057   7.884  11.955 -0.2705 -0.1031  0.0793
 4776W        W20245  13.931   5.353  12.986  0.0831  0.2178  0.0143
 4777W        W20246   0.543   8.697   4.554  0.0226 -0.0431 -0.2030
 4778W        W20247   3.514   6.053  12.931 -0.3322  0.0063 -0.1214
 4779W        W20248  14.866   8.794  15.015 -0.2260 -0.1118  0.0731
 4780W        W20249   8.377  11.444  10.703  0.1120  0.0348 -0.1931
 4781W        W20250   0.729   0.975  15.651  0.2514 -0.0846  0.1269
 4782W        W20251   2.342  11.380  12.829  0.0804  0.2800  0.3049
 4783W        W20252   0.057   2.069  11.171 -0.1821 -0.3006  0.0646
 4784W        W20253   2.062   6.181   0.074  0.2718 -0.1531 -0.1213
 4785W        W20254   2.614   1.656  11.627  0.0422  0.0600  0.0375
 4786W        W20255  13.823  11.504  13.384  0.1155  0.1669 -0.1105
 4787W        W20256   1.260  16.590  12.607 -0.0674 -0.2606 -0.0971
 4788W        W20257   5.659   8.248  11.087  0.1058 -0.2486  0.0200
 4789W        W20258   2.065   5.785   2.711  0.2765 -0.1744  0.1600
 4790W        W20259  17.542   5.190   3.268  0.1993  0.0540  0.1490
 4791W        W20260  18.469  15.899   4.902 -0.1013  0.0453 -0.0049
 4792W        W20261  13.978   1.462  13.807 -0.3354 -0.0904 -0.2322
 4793W        W20262   5.825  14.319  14.346 -0.0827 -0.2673 -0.1446
 4794W        W20263  14.288   8.618  12.100 -0.3367 -0.4291 -0.2035
 4795W        W20264  15.834   5.047  15.670  0.0824  0.2869  0.2568
 4796W        W20265   6.135   1.961   3.007 -0.1354 -0.0465 -0.2898
 4797W        W20266   3.197  12.555  14.478 -0.3849  0.1934 -0.0181
 4798W        W20267   2.142  13.297  15.348  0.0335 -0.2691  0.1063
 4799W        W20268  16.411   0.105   2.612 -0.1765 -0.1813 -0.0695
 4800W        W20269  13.990   0.140  14.563 -0.1582  0.1454  0.1129
 4801W        W20270   7.347   0.173  12.589 -0.1621  0.1880 -0.2837
 4802W        W20271   5.037  17.949   1.340 -0.3635 -0.1905 -0.2588
 4803W        W20272  18.617  13.096  10.901  0.0955 -0.0283  0.2239
 4804W        W20273   8.607  14.110  14.142  0.1423  0.0045  0.2072
 4805W        W20274  13.669   2.709   2.662 -0.2916  0.1062 -0.0644
 4806W        W20275   4.808  13.587   0.465 -0.0309  0.3600 -0.1334
 4807W        W20276   1.761   1.946  13.555 -0.3028  0.2397 -0.0910
 4808W        W20277  11.579   6.499  11.371  0.1804  0.4294 -0.4408
 4809W        W20278  16.405  13.653   3.537  0.0173  0.1050  0.2400
 4810W        W20279  17.026  16.281   2.773 -0.1131 -0.0495  0.0710
 4811W        W20280  16.281   5.012   1.130  0.1575 -0.0954  0.0382
 4812W        W20281  15.344   8.501  13.007 -0.0433 -0.2121  0.0876
 4813W        W20282  16.120  14.547   0.483 -0.2214  0.0675 -0.0610
 4814W        W20283  14.036  11.368  15.153 -0.1906  0.1992 -0.2393
 4815W        W20284  15.230   8.424  14.810  0.2435 -0.2373  0.3226
 4816W        W20285  15.957   9.033   4.083 -0.0027 -0.1151  0.2760
 4817W        W20286  15.105  18.351   1.647  0.2002  0.2854  0.1990
 4818W        W20287   9.281   5.355   5.868  0.2090  0.1935 -0.0769
 4819W        W20288  13.891  10.844   0.356 -0.0157 -0.0306  0.0206
 4820W        W20289   4.915  12.776  13.438  0.1847 -0.1853  0.2268
 4821W        W20290   2.422  12.251   0.587  0.0369  0.1276  0.0054
 4822W        W20291  12.575  13.032  12.398 -0.0926 -0.5004 -0.1860
 4823W        W20292  11.952  16.829  12.792  0.3804  0.2229  0.0134
 4824W        W20293  10.882   5.716  11.109  0.1437 -0.0687 -0.0593
 4825W        W20294   9.457  14.762  10.712 -0.0386 -0.0560 -0.0603
 4826W        W20295   3.276   9.552  15.327 -0.0869  0.3011 -0.0587
 4827W        W20296   8.440   5.925  15.439 -0.1883 -0.2520 -0.1617
 4828W        W20297   0.070   4.924   1.248 -0.0209 -0.0583 -0.0904
 4829W        W20298  15.078   6.990  10.477  0.0046 -0.0556 -0.0266
 4830W        W20299   4.554  15.880  13.064  0.3685  0.0499  0.0315
 4831W        W20300   6.037   0.964   3.376  0.0040  0.2082 -0.1530
 4832W        W20301  18.491   6.749   0.764  0.3169 -0.0418 -0.3458
 4833W        W20302  10.388  10.612   0.693  0.1143 -0.2203  0.1796
 4834W        W20303   4.281   5.261  11.781 -0.2941 -0.2308  0.3712
 4835W        W20304   7.803  12.277   0.438  0.0106 -0.2876  0.1621
 4836W        W20305   6.817   7.037  10.703  0.0155  0.0086 -0.1260
 4837W        W20306  11.115   2.827   4.532  0.0257  0.3443  0.0603
 4838W        W20307   9.562  10.530  11.811 -0.2702 -0.1932  0.1269
 4839W        W20308  18.425   2.821   1.786 -0.0360  0.0830 -0.0820
 4840W        W20309   6.097  18.195  15.103  0.1309 -0.0436 -0.3230
 4841W        W20310   8.860   3.843   5.061 -0.1189 -0.2162  0.2434
 4842W        W20311  13.080  12.635  13.117  0.0557 -0.1569  0.1374
 4843W        W20312   1.575  13.472  11.649 -0.1421  0.0390  0.1276
 4844W        W20313  14.585   0.175   2.773  0.2055  0.2700  0.0507
 4845W        W20314   0.528   1.840   2.056 -0.1916  0.1840 -0.2487
 4846W        W20315  16.613  16.205  10.975 -0.0061 -0.1880  0.0800
 4847W        W20316   7.062  17.251  15.149 -0.0267  0.2781  0.1019
 4848W        W20317   2.977   7.578  15.158  0.1347  0.0151  0.2464
 4849W        W20318   4.890   1.886  13.087  0.3085  0.0387 -0.0189
 4850W        W20319  16.301  10.366  11.542  0.2105  0.2455 -0.0724
 4851W        W20320   4.027  17.504  14.154  0.1693 -0.1222  0.0046
 4852W        W20321   0.329   0.590   4.760 -0.1738 -0.2426 -0.0816
 4853W        W20322   6.132   5.125   2.335  0.2271  0.4464  0.0159
 4854W        W20323  17.572   1.489   0.672 -0.2132 -0.0579 -0.0263
 4855W        W20324   4.464   5.634   0.416  0.0585  0.2233  0.0139
 4856W        W20325  16.481   1.235  11.067  0.1654  0.0710  0.1957
 4857W        W20326   9.293   4.524   3.462 -0.2035  0.4917 -0.1356
 4858W        W20327  13.662   5.885   0.161 -0.1637  0.2329  0.0763
 4859W        W20328  14.344  15.181  13.950 -0.0061  0.1074 -0.0158
 4860W        W20329  17.943   8.613   4.690  0.0694 -0.0372 -0.0914
 4861W        W20330   2.295  14.119   5.568  0.1240  0.0754  0.0137
 4862W        W20331   0.100   7.083  13.025  0.1979  0.1071 -0.1066
 4863W        W20332   6.108   2.271   1.082 -0.0770  0.0231 -0.0407
 4864W        W20333   7.435  14.096  15.299 -0.1732 -0.1792  0.1177
 4865W        W20334  10.468  13.843   0.637  0.1581 -0.0624  0.0342
 4866W        W20335   3.273   5.614  10.863 -0.0537  0.1531  0.1139
 4867W        W20336  12.765  16.277  15.133  0.0470 -0.0451 -0.0406
 4868W        W20337  12.590   2.549  14.073 -0.1236  0.2390  0.1102
 4869W        W20338   0.025   8.025  12.715  0.0697 -0.2837  0.0537
 4870W        W20339   5.613  17.088   0.732 -0.1921 -0.0632 -0.1531
 4871W        W20340   4.835  14.402  14.198 -0.5699 -0.1409 -0.4508
 4872W        W20341   3.989  17.179   1.102 -0.2793  0.2357 -0.0012
 4873W        W20342  15.490  12.328   1.931  0.0315 -0.1045 -0.0112
 4874W        W20343  13.246  13.760   6.203 -0.2683  0.1416 -0.0132
 4875W        W20344  14.299  10.239   0.228  0.0741 -0.0087 -0.1263
 4876W        W20345  16.933   2.307  13.403 -0.2799  0.3047 -0.1895
 4877W        W20346  17.062   3.882   1.311  0.2712  0.0426  0.1022
 4878W        W20347  15.304   8.908  14.993  0.0031  0.1255 -0.0083
 4879W        W20348  12.425   0.025   0.320 -0.0575 -0.2494 -0.1695
 4880W        W20349  18.506   3.796  15.563 -0.1821 -0.0114  0.4729
 4881W        W20350   2.646   7.170  14.980  0.0102 -0.2000 -0.1140
 4882W        W20351   8.724   3.081   0.917  0.1776  0.1220  0.0075
 4883W        W20352  12.289  12.921  10.831 -0.0458  0.2123 -0.1509
 4884W        W20353   9.491  12.949   3.900 -0.0018 -0.1145 -0.3378
 4885W        W20354  18.394   1.239   2.674 -0.3515 -0.1043  0.0089
 4886W        W20355   2.941   9.490   3.415  0.1053  0.1009 -0.1017
 4887W        W20356   0.718  11.094  10.749  0.3089  0.2395 -0.2507
 4888W        W20357  14.700   4.160  15.780  0.3180  0.1848 -0.2151
 4889W        W20358  11.072   2.104   3.055 -0.3929  0.1262  0.0476
 4890W        W20359  14.858   0.136   5.567  0.0158 -0.2261  0.0752
 4891W        W20360  17.528  16.332   4.992  0.0767  0.0434  0.1415
 4892W        W20361  16.324  17.444   5.839  0.2669  0.1873  0.4993
 4893W        W20362   7.800  11.878  13.907  0.2377  0.5851  0.0542
 4894W        W20363   6.656   1.290  15.371 -0.5062 -0.1554  0.0192
 4895W        W20364   1.191  12.675   3.804 -0.1290 -0.0963  0.1791
 4896W        W20365   8.472   3.333  15.027  0.0439  0.2245  0.0979
 4897W        W20366  12.447  17.156  14.372  0.0834 -0.2295 -0.0001
 4898W        W20367  17.055  12.738  12.060 -0.1397 -0.1733 -0.0635
 4899W        W20368  15.098   7.596  11.229  0.0717  0.0617  0.2505
 4900W        W20369  12.995   0.350  11.847  0.1005 -0.0642 -0.0241
 4901W        W20370  13.255   5.778  12.877  0.1018  0.1245 -0.1245
 4902W        W20371   1.462   5.348  10.936 -0.6815 -0.3167  0.1560
 4903W        W20372   0.168   3.128   3.606 -0.1602  0.0313 -0.0744
 4904W        W20373  13.130  16.781   1.996 -0.2393  0.1936 -0.2133
 4905W        W20374   5.140   8.448  12.044 -0.3369  0.1385 -0.3962
 4906W        W20375   2.910  14.701  10.646  0.1954  0.1264 -0.0641
 4907W        W20376  17.611  17.350   4.379  0.0815 -0.1860  0.0988
 4908W        W20377   8.542   4.355   1.496  0.0345 -0.1969 -0.0492
 4909W        W20378   8.945  15.572  12.677  0.0482 -0.0231  0.0003
 4910W        W20379  13.434   4.427  12.559 -0.0782 -0.0015 -0.1802
 4911W        W20380   7.555   3.532  13.043 -0.1841  0.0966  0.0429
 4912W        W20381   6.656   8.691   0.065 -0.1757  0.1045 -0.2156
 4913W        W20382  14.818  11.570   2.614 -0.2470  0.2031  0.0640
 4914W        W20383  10.093  15.053   4.151  0.3923 -0.2479 -0.1518
 4915W        W20384   2.106  11.957  10.774 -0.1931 -0.2992 -0.1603
 4916W        W20385   0.854  11.266  15.244  0.1158 -0.0778 -0.1249
 4917W        W20386   7.572   7.089  14.182 -0.1703  0.3302  0.0483
 4918W        W20387  17.135   9.545  10.810  0.0895  0.0836 -0.0046
 4919W        W20388   5.723   6.434   5.124 -0.1696  0.2639 -0.2407
 4920W        W20389   2.212  16.318  10.892  0.1246 -0.2561 -0.1071
 4921W        W20390  17.628   1.686  15.763 -0.0880 -0.1269  0.3472
 4922W        W20391   8.506  18.438   4.907 -0.2025 -0.0538  0.1128
 4923W        W20392  16.620  10.770   3.591  0.2230 -0.4334 -0.2298
 4924W        W20393  14.483  17.571   4.954 -0.1619 -0.2548  0.0814
 4925W        W20394  10.599  15.008   5.449  0.5439  0.3529 -0.0359
 4926W        W20395  17.593  11.718   5.941  0.1078 -0.1971  0.2024
 4927W        W20396   6.392  10.058  10.666  0.0223 -0.1767  0.2271
 4928W        W20397  13.026  15.204  14.875 -0.1804 -0.1188  0.0691
 4929W        W20398  13.469  17.195  12.845  0.0292  0.1104 -0.0899
 4930W        W20399  15.943   2.954   2.475 -0.1499 -0.0700  0.1023
 4931W        W20400   6.665   0.204  11.265  0.1696 -0.2806 -0.1115
 4932W        W20401   0.248   6.377  12.425 -0.0066  0.5450  0.0768
 4933W        W20402   9.521   1.629  10.372  0.1464 -0.0462 -0.1876
 4934W        W20403   1.849   6.990  10.352  0.2566 -0.2313 -0.0965
 4935W        W20404  11.322   8.038   5.423 -0.1144 -0.0943  0.0147
 4936W        W20405   2.231  15.109   0.312  0.3841  0.0865 -0.1693
 4937W        W20406   7.300  16.613  10.558  0.0783  0.0791  0.0138
 4938W        W20407   8.301   5.330   4.693 -0.1671 -0.0244  0.1058
 4939W        W20408   4.385   8.375  10.841 -0.0607 -0.2931  0.0616
 4940W        W20409  12.991   3.496   5.735  0.2943 -0.0145  0.1210
 4941W        W20410  13.901   9.806   5.077  0.0492  0.1491 -0.2269
 4942W        W20411   0.203  12.367   5.055 -0.0617 -0.0367 -0.0075
 4943W        W20412  16.790  16.849  12.767 -0.0222 -0.3695  0.1479
 4944W        W20413  17.892   5.905  15.163  0.1675 -0.2275  0.0778
 4945W        W20414  14.178   8.605   5.397 -0.2333 -0.2412  0.0507
 4946W        W20415   4.572   8.579   1.660 -0.0371  0.1390 -0.0485
 4947W        W20416   5.586   9.111   3.619 -0.1139  0.2545  0.3568
 4948W        W20417  14.376  13.031  13.676 -0.1073 -0.2366  0.1595
 4949W        W20418  11.231  14.856  13.500  0.1525  0.4817  0.3498
 4950W        W20419  11.100   1.540  12.708 -0.2551  0.2145  0.1006
 4951W        W20420  15.423   6.318   9.835 -0.1640  0.1648 -0.0156
 4952W        W20421  14.948  10.589  11.355 -0.0580 -0.5314 -0.1524
 4953W        W20422  13.800   1.933   0.294 -0.1039  0.0163 -0.3458
 4954W        W20423  16.074  15.446  13.864  0.0522 -0.3017 -0.0324
 4955W        W20424  12.904   2.239   0.481  0.1671 -0.0980  0.3418
 4956W        W20425   0.829  11.854   2.719  0.3262 -0.2373  0.1233
 4957W        W20426   4.762   3.456  11.702 -0.0075  0.1635  0.0920
 4958W        W20427   5.184  12.964  11.495  0.0332 -0.1098  0.0630
 4959W        W20428   2.215   7.247  11.000 -0.0047 -0.0362 -0.0586
 4960W        W20429  12.779  10.990  14.371  0.1931  0.1956 -0.2420
 4961W        W20430   4.970   5.456  10.586 -0.1381 -0.4668 -0.0787
 4962W        W20431  12.215   5.977  15.140 -0.1016  0.0020  0.0634
 4963W        W20432   6.102  14.606   0.128  0.0259  0.0704  0.0881
 4964W        W20433   0.367   5.914   1.572  0.1732  0.3210  0.0790
 4965W        W20434  17.609   1.546  15.325  0.1595 -0.2772 -0.2929
 4966W        W20435  13.847   2.588   5.460  0.2538 -0.0753 -0.1713
 4967W        W20436  14.542   3.293   3.736 -0.0414 -0.1000 -0.3441
 4968W        W20437   5.053  13.914  13.292 -0.3290  0.0625 -0.2812
 4969W        W20438   5.052  16.472  11.647  0.0546  0.2940 -0.0883
 4970W        W20439  17.296  10.766   5.639 -0.1350 -0.1140  0.2245
 4971W        W20440  11.317  16.088   0.412  0.1059 -0.1719 -0.1042
 4972W        W20441   5.626  10.149  11.496  0.0787  0.0196 -0.1019
 4973W        W20442   5.437   0.236   2.808 -0.1868  0.1587  0.0448
 4974W        W20443   6.954  17.567   2.483 -0.1326 -0.3039  0.2218
 4975W        W20444   7.641  14.866   5.320  0.1113  0.2023  0.1672
 4976W        W20445  18.421   9.180   4.091 -0.0695  0.1630 -0.2474
 4977W        W20446   4.995  16.639   4.447 -0.2185 -0.1167  0.0490
 4978W        W20447  11.591   8.754   3.977  0.0033  0.1125 -0.0226
 4979W        W20448   8.184  17.079   4.532 -0.2911  0.5817 -0.0355
 4980W        W20449   0.522  15.079   4.820 -0.2034 -0.3296  0.0780
 4981W        W20450   3.149  12.409   5.768 -0.0091  0.0610  0.2662
 4982W        W20451   4.541  12.496  15.119 -0.1682 -0.0269 -0.1147
 4983W        W20452  16.910   8.463  13.581  0.2733  0.4214  0.0290
 4984W        W20453  10.106  13.211  14.938 -0.2434 -0.3116  0.1919
 4985W        W20454  18.612  18.227  14.862  0.1116 -0.0731  0.1081
 4986W        W20455   9.233   1.105   0.538 -0.0244 -0.0813  0.1894
 4987W        W20456  14.681   8.957  11.246  0.1771  0.2867  0.0922
 4988W        W20457   6.964  18.456   0.869  0.1682 -0.2425 -0.3375
 4989W        W20458   3.065  18.123   4.736  0.1566 -0.0035  0.1416
 4990W        W20459   5.817   9.807   4.103 -0.0686  0.0309 -0.2479
 4991W        W20460  16.985   6.501  12.743 -0.2104 -0.0219  0.0949
 4992W        W20461   7.896   6.903   4.623  0.3499 -0.0679 -0.1596
 4993W        W20462  11.559  14.635  10.653 -0.2760  0.0538 -0.2854
 4994W        W20463  15.301  15.642   5.420 -0.0372  0.0032 -0.2309
 4995W        W20464  11.101  14.414  13.186  0.2518  0.1011 -0.3150
 4996W        W20465  12.600  15.151   2.537 -0.1630  0.1051 -0.0787
 4997W        W20466   8.705  11.307   2.565  0.1668  0.0158  0.0097
 4998W        W20467  18.427   4.994  13.906 -0.0374 -0.0658 -0.0531
 4999W        W20468  15.466  18.029   2.858  0.0959  0.1946 -0.0964
 5000W        W20469   4.876  10.851   2.383 -0.0006 -0.0564 -0.0929
 5001W        W20470   0.225   3.429  15.664  0.0004 -0.1304  0.2188
 5002W        W20471  15.138   8.879  13.948 -0.0149  0.0242  0.1089
 5003W        W20472  17.751   3.533  11.339  0.0730  0.1293  0.1483
 5004W        W20473  11.531  13.696   2.632  0.0363  0.2812  0.0833
 5005W        W20474   7.285   5.818   2.651  0.1436  0.0468  0.0565
 5006W        W20475  11.491  10.395  14.527  0.0609  0.1947  0.0184
 5007W        W20476  10.816  15.807   0.836  0.0648  0.1364  0.1948
 5008W        W20477   2.148  17.097  12.479 -0.2083  0.0435 -0.0826
 5009W        W20478   0.934   7.016   3.507 -0.2506  0.4051 -0.4409
 5010W        W20479  17.591  11.791   3.082  0.1934 -0.0692  0.0031
 5011W        W20480   1.169   7.831  14.561 -0.1903  0.2812 -0.0502
 5012W        W20481   2.911   6.477  11.887  0.4369 -0.2394  0.1419
 5013W        W20482   6.131  13.836   2.163 -0.0224 -0.0659 -0.1063
 5014W        W20483  11.041  12.079   1.251 -0.1960  0.0152  0.0011
 5015W        W20484  11.856  18.290   4.248  0.1569  0.0679  0.0077
 5016W        W20485   0.268  12.925  11.756 -0.2542  0.0773 -0.4963
 5017W        W20486   9.436  12.431   3.259  0.1375  0.0685 -0.1077
 5018W        W20487   0.184   0.560   3.357 -0.0672 -0.1095  0.2528
 5019W        W20488  15.273   4.947  14.579  0.1924 -0.0398  0.0726
 5020W        W20489  10.971  10.507  15.263 -0.1444  0.0361  0.2030
 5021W        W20490  17.685  15.105  10.469  0.1131  0.0805 -0.1915
 5022W        W20491   4.281   6.072   1.570  0.3114 -0.2000  0.6006
 5023W        W20492   6.786   4.894   3.917 -0.1384 -0.2853  0.0440
 5024W        W20493  16.236   1.184   1.081  0.0592  0.1608 -0.0041
 5025W        W20494  16.120   2.264   3.220 -0.0130  0.0056  0.0330
 5026W        W20495   3.682  10.625   0.703  0.0588 -0.0705 -0.2383
 5027W        W20496  14.423  12.807   4.185  0.1436 -0.0741  0.0987
 5028W        W20497  10.904   3.850  12.455  0.1136 -0.0586 -0.0119
 5029W        W20498  16.718   0.025  13.071 -0.2964 -0.0980  0.5388
 5030W        W20499   5.452   3.250  11.174  0.2961 -0.0627  0.0072
 5031W        W20500  13.782  16.710  11.202  0.0130  0.1540  0.0411
 5032W        W20501   6.308  13.313  14.490  0.0457 -0.0311 -0.1794
 5033W        W20502   2.536  12.854  14.453 -0.0577 -0.1993  0.2009
 5034W        W20503   2.411   5.547   9.892  0.0293  0.3291  0.1996
 5035W        W20504  13.882  15.252  12.563  0.0141  0.1020 -0.0635
 5036W        W20505  14.231   4.569  14.598  0.1115  0.1370 -0.0420
 5037W        W20506  15.965  11.493  13.772 -0.0396  0.5001 -0.1752
 5038W        W20507  11.377  17.559  12.321  0.2199  0.2869 -0.1784
 5039W        W20508   2.660  13.732   1.788 -0.0890 -0.3582  0.1202
 5040W        W20509  11.233  11.052  11.267 -0.1022  0.2807  0.1825
 5041W        W20510  17.592   4.193  12.518 -0.0103  0.2126  0.1315
 5042W        W20511   5.442  11.930  12.449 -0.1920  0.0921  0.1876
 5043W        W20512  15.449   2.092   3.833 -0.0867 -0.3188 -0.0976
 5044W        W20513  11.168   8.083   4.531 -0.1289  0.2534  0.2676
 5045W        W20514  12.059   1.123   3.371  0.0337 -0.0961  0.3427
 5046W        W20515   8.763   1.957   3.115  0.0357  0.0395  0.2093
 5047W        W20516   0.580  12.594  15.569 -0.1205 -0.0653  0.3706
 5048W        W20517  11.804   0.880  15.504 -0.0060 -0.1505  0.1815
 5049W        W20518  17.534   0.760  14.475  0.1544 -0.3729 -0.0577
 5050W        W20519  10.293   9.831   1.563  0.0270  0.0754 -0.0594
 5051W        W20520   3.526   7.695   0.220 -0.2130 -0.1118  0.1034
 5052W        W20521  16.485   0.621   2.949  0.0224 -0.0937  0.0397
 5053W        W20522   1.132   3.722   4.190 -0.1341 -0.0517 -0.2255
 5054W        W20523   6.861  11.255   1.293 -0.1171 -0.0120 -0.1155
 5055W        W20524  18.513   6.717  10.785  0.1887 -0.0901 -0.1753
 5056W        W20525   5.568  17.900  14.282 -0.3347 -0.0674 -0.1722
 5057W        W20526  13.302  17.051   3.626 -0.0883 -0.2626  0.1878
 5058W        W20527  10.913   4.392  14.761 -0.1471 -0.1382 -0.2175
 5059W        W20528   4.754  18.024  13.964  0.0049 -0.1728 -0.1053
 5060W        W20529   8.234  16.237  11.514  0.0462 -0.0099 -0.0551
 5061W        W20530   1.908   1.097   4.556  0.4038 -0.0702  0.1051
 5062W        W20531   0.429  17.232  12.095 -0.0634 -0.1886 -0.2513
 5063W        W20532   1.600   4.034  14.796  0.2969 -0.0070 -0.3449
 5064W        W20533  15.153   6.676   0.664  0.0890  0.0926 -0.1108
 5065W        W20534  12.394   7.742  12.545  0.2646  0.1350 -0.1257
 5066W        W20535   6.401   5.439  14.749  0.0277  0.2150 -0.0943
 5067W        W20536  15.373  12.654   4.926 -0.0166 -0.0701 -0.1093
 5068W        W20537   8.090  12.719  14.064 -0.1040  0.0751 -0.0197
 5069W        W20538   2.155  17.626  11.562 -0.2191  0.0563 -0.3561
 5070W        W20539  16.403  16.401  12.046  0.0650  0.0396  0.0608
 5071W        W20540   7.092  15.807   1.965 -0.2046  0.2073 -0.0128
 5072W        W20541   6.917   8.544   3.396  0.1852  0.0305 -0.2709
 5073W        W20542  10.850  12.139  13.322  0.1234 -0.1602  0.0233
 5074W        W20543  12.749   2.040  15.219 -0.0382  0.1344 -0.3203
 5075W        W20544   9.354  13.157  13.581  0.1596 -0.0778 -0.0588
 5076W        W20545   4.486   8.832   0.726 -0.1218  0.0237  0.1129
 5077W        W20546  10.623  12.822  12.530 -0.0762  0.0698 -0.1851
 5078W        W20547   7.091  13.710  15.289  0.2197  0.0853  0.2448
 5079W        W20548   2.477  17.853   2.961  0.0625 -0.1008  0.2666
 5080W        W20549  16.120   7.795  14.074 -0.1129  0.3031  0.1153
 5081W        W20550  16.889   1.317   2.312  0.2662 -0.0805 -0.3128
 5082W        W20551  10.722  10.751   2.465  0.0511 -0.0627  0.1704
 5083W        W20552   7.935   9.185  12.241 -0.2090  0.2305  0.2341
 5084W        W20553  10.998   9.306   3.141 -0.1402 -0.0268 -0.0041
 5085W        W20554   2.551  11.346   2.662 -0.1975  0.1260 -0.2046
 5086W        W20555  14.778  14.672   0.942  0.0534 -0.4137  0.3045
 5087W        W20556  15.696  16.713  13.097 -0.0640 -0.1261  0.2965
 5088W        W20557  13.825  13.671  13.157 -0.3598 -0.0999  0.0368
 5089W        W20558  16.896   0.841  15.374  0.2061 -0.2580 -0.0679
 5090W        W20559   5.090  10.360   3.937 -0.0224  0.0060  0.1736
 5091W        W20560   0.307   8.200   3.510 -0.0292  0.1483 -0.1061
 5092W        W20561   4.590   3.873   4.583 -0.0789  0.1216 -0.2601
 5093W        W20562   0.346   0.733  15.363  0.1707  0.1851  0.2729
 5094W        W20563   0.899  13.277  13.743 -0.1604 -0.0417 -0.2610
 5095W        W20564   6.643   0.619  13.876  0.0277 -0.3715  0.1906
 5096W        W20565   4.049  17.032   2.562 -0.3064 -0.2723  0.3192
 5097W        W20566  11.044  12.963  13.019 -0.3843  0.2827 -0.0851
 5098W        W20567  17.930   8.533   2.654 -0.1371  0.0662 -0.1970
 5099W        W20568  15.303  11.169  14.181 -0.0222 -0.0321 -0.1023
 5100W        W20569   1.039  15.053   2.606  0.2271  0.0793 -0.2215
 5101W        W20570  11.247   2.171   3.800  0.2637  0.0884  0.0149
 5102W        W20571  13.754  17.696  13.811 -0.0841 -0.3113 -0.1333
 5103W        W20572   9.163  17.478  11.746  0.0172  0.1917 -0.0108
 5104W        W20573   6.185  17.618   4.468 -0.0726  0.0835  0.1861
 5105W        W20574  11.693   3.719  14.812  0.0115  0.0779 -0.0263
 5106W        W20575   5.249   2.835  15.680  0.3330  0.0194  0.0278
 5107W        W20576  16.898   2.590  12.942 -0.3502 -0.0684  0.3408
 5108W        W20577  10.989  12.400   2.596  0.7035 -0.0303 -0.0703
 5109W        W20578   1.668  15.441   1.003 -0.1564  0.0554  0.0018
 5110W        W20579   7.073   7.356  12.496 -0.0785  0.1497  0.0481
 5111W        W20580  17.060  17.513  11.845 -0.1981 -0.2013 -0.2107
 5112W        W20581  11.989  13.449   4.547  0.0067 -0.1565 -0.2252
 5113W        W20582  15.217   8.396  11.896 -0.0372  0.2090 -0.1025
 5114W        W20583   3.489   7.023  14.489 -0.3542  0.1912 -0.0517
 5115W        W20584   2.056   2.170  10.995  0.1278  0.3759 -0.2480
 5116W        W20585  14.956   7.081   5.444 -0.0449  0.0253  0.0445
 5117W        W20586  18.403  12.333   1.946 -0.0511 -0.1884 -0.3511
 5118W        W20587  13.687   4.101  10.818  0.1342  0.1875 -0.1914
 5119W        W20588   9.808   3.094   5.876 -0.0535  0.0639  0.1818
 5120W        W20589   3.521  11.683  10.505  0.0846  0.1439 -0.0547
 5121W        W20590   2.682   1.739   4.139  0.0594  0.1625 -0.0057
 5122W        W20591  11.311  14.182   0.691 -0.2665  0.1274 -0.1273
 5123W        W20592   6.792  13.836   4.281 -0.3232  0.1273 -0.0512
 5124W        W20593  17.195   2.991  13.121  0.1437  0.1543  0.2536
 5125W        W20594   8.776  17.489   0.243  0.0765 -0.2354 -0.2104
 5126W        W20595   5.669  12.044   4.423 -0.4560 -0.1741 -0.0891
 5127W        W20596   2.205  13.208   0.550 -0.0959 -0.1706 -0.0136
 5128W        W20597   4.672   1.238   2.378  0.0488  0.3188 -0.0305
 5129W        W20598  15.834   3.547   1.451 -0.0440  0.4563  0.1354
 5130W        W20599  11.340   5.869   2.533 -0.0083 -0.1691  0.1767
 5131W        W20600  12.858   8.731   2.375 -0.2015  0.0289 -0.0280
 5132W        W20601  14.438   4.334   1.448 -0.1138  0.1551  0.3845
 5133W        W20602   0.345  15.013   2.128 -0.1154 -0.0531  0.0299
 5134W        W20603  17.109   5.830   1.299  0.0051 -0.1938 -0.1108
 5135W        W20604  16.973  16.478  14.217 -0.1500  0.3914 -0.2724
 5136W        W20605   8.800  14.665   1.192 -0.1342 -0.0189  0.0322
 5137W        W20606   3.943   7.758  11.471 -0.2015 -0.0573 -0.0379
 5138W        W20607   0.408   4.848  14.303 -0.0408 -0.1000  0.0648
 5139W        W20608   4.098   8.828   0.014  0.0577 -0.1024 -0.0913
 5140W        W20609  14.493   7.460   3.721  0.0903 -0.3402  0.0791
 5141W        W20610   2.655  12.394   2.829 -0.1241 -0.1570 -0.1134
 5142W        W20611   0.221  15.512   2.764  0.1675  0.0747  0.1743
 5143W        W20612  13.087  10.204   9.954 -0.4886  0.1511  0.0222
 5144W        W20613   1.556  16.176   0.379  0.0278 -0.1540 -0.1325
 5145W        W20614   9.069   8.063  12.066 -0.0833 -0.0102  0.1406
 5146W        W20615  12.451  17.998   3.703  0.2390  0.0601 -0.3196
 5147W        W20616  14.311   8.835   1.942 -0.1091  0.0717 -0.1891
 5148W        W20617  17.692  17.232  15.058 -0.3233  0.0631  0.0468
 5149W        W20618   4.489   7.354   4.452  0.0757 -0.1402  0.1210
 5150W        W20619  15.029  11.050  14.602 -0.1983  0.0043 -0.0855
 5151W        W20620  12.325  10.093   4.705 -0.0756 -0.3489  0.0505
 5152W        W20621   2.502   4.850   4.814  0.2830 -0.2932  0.3254
 5153W        W20622   8.866   0.973  15.420  0.1647  0.0426 -0.0983
 5154W        W20623  14.226   7.133   2.426 -0.2356 -0.1573  0.0826
 5155W        W20624  17.568  17.331   0.252  0.3068  0.1922 -0.2717
 5156W        W20625   6.977   2.521   2.728 -0.1806  0.1756  0.1571
 5157W        W20626  13.763   9.997   0.075  0.1659  0.1153 -0.0135
 5158W        W20627   3.300   4.734  10.919  0.3773  0.0363  0.2720
 5159W        W20628   0.246   9.289   2.313 -0.1011 -0.1123  0.0781
 5160W        W20629   8.341   8.624  13.013  0.5999 -0.3704 -0.0220
 5161W        W20630   1.978   6.664   2.490 -0.2072 -0.1608 -0.0886
 5162W        W20631   8.169   9.369  15.022  0.1347 -0.3145  0.0666
 5163W        W20632   6.019  14.711  12.036  0.0541  0.1528  0.0984
 5164W        W20633  13.397  12.772   2.212 -0.0986 -0.2482  0.3036
 5165W        W20634   1.952   2.530   0.729  0.1242 -0.1482  0.0916
 5166W        W20635  15.027  17.403   6.409 -0.1960 -0.0441  0.0846
 5167W        W20636   1.958  11.247   4.532 -0.2736  0.0076  0.1828
 5168W        W20637   9.584   2.769  14.578 -0.1094 -0.1469  0.1773
 5169W        W20638   0.232   7.978  12.214  0.0291  0.0794 -0.1703
 5170W        W20639  17.540  16.232   1.425 -0.0715  0.0871 -0.0652
 5171W        W20640   6.397   2.463  11.414 -0.1539 -0.1925 -0.0502
 5172W        W20641  11.758   3.336   2.388  0.0374  0.0087  0.0303
 5173W        W20642  12.775   1.180   5.111 -0.2456  0.2674  0.1352
 5174W        W20643   1.644   4.063  10.776  0.1048  0.0266 -0.1618
 5175W        W20644   7.608   0.350  13.859 -0.0661  0.2051 -0.1908
 5176W        W20645  17.576   4.744  13.523 -0.1459 -0.3076 -0.0124
 5177W        W20646  18.063  11.359   4.793  0.4724 -0.0171 -0.1015
 5178W        W20647  17.257   2.957   2.511 -0.0843 -0.0796 -0.1008
 5179W        W20648   7.142  15.616   5.238  0.0080  0.0775 -0.2112
 5180W        W20649  12.295  18.577   6.646 -0.1575 -0.0193 -0.1247
 5181W        W20650   6.500  10.308  11.271  0.2947 -0.0887  0.0882
 5182W        W20651   6.259   9.737   0.270 -0.0885  0.0902 -0.1029
 5183W        W20652  15.911  15.180   0.710  0.0448  0.5103  0.1957
 5184W        W20653  17.712   8.533   0.940  0.1093  0.0195 -0.0508
 5185W        W20654  17.034   3.630  13.498 -0.0260  0.0703  0.2742
 5186W        W20655  12.472  11.754  14.245  0.2474 -0.1211 -0.1603
 5187W        W20656   6.972   3.907   5.412 -0.1690 -0.0678 -0.0035
 5188W        W20657   4.018  14.015  14.320 -0.0095 -0.1831 -0.0057
 5189W        W20658  11.112   4.856   3.114  0.3592 -0.0363 -0.2230
 5190W        W20659  13.516   6.472   2.436 -0.1382 -0.2468 -0.0113
 5191W        W20660   3.641  12.562   3.830 -0.2324  0.0349  0.0806
 5192W        W20661   4.640   7.828   4.313 -0.1239 -0.1050  0.0685
 5193W        W20662   6.119   5.390  12.965 -0.1595  0.0230  0.0473
 5194W        W20663  12.778  11.625  13.176  0.0188  0.1426 -0.0604
 5195W        W20664   2.195   3.700  14.888  0.0200 -0.2664  0.0669
 5196W        W20665   4.679  16.503   0.673 -0.0361 -0.0087  0.3604
 5197W        W20666  12.577   1.162   3.880 -0.1600  0.1725 -0.1560
 5198W        W20667  18.038  16.036   3.635  0.0957  0.1835 -0.1651
 5199W        W20668   1.580  16.522  15.420  0.0688  0.1197 -0.0946
 5200W        W20669   9.439   0.313   1.217 -0.1885 -0.0537 -0.1193
 5201W        W20670   4.605  18.068  13.470  0.3163  0.1874 -0.2661
 5202W        W20671   0.752   0.761  14.480 -0.1337  0.0080 -0.0553
 5203W        W20672   5.772  11.485  14.784  0.1561 -0.1003  0.0107
 5204W        W20673  10.798  10.251   4.516  0.1613  0.3569 -0.1013
 5205W        W20674   7.752   7.443  13.808  0.4171  0.0821  0.0556
 5206W        W20675  10.747   3.431   2.547 -0.0608 -0.1516 -0.4536
 5207W        W20676   9.601   3.984   2.408 -0.1782  0.1994 -0.1524
 5208W        W20677  13.579  15.812   5.782 -0.5542  0.1647  0.0285
 5209W        W20678   0.299  10.086   3.288  0.2821  0.0735  0.2688
 5210W        W20679   0.118  16.741   6.358  0.1206 -0.0056  0.0847
 5211W        W20680   7.994  13.476  13.450  0.0329  0.1887 -0.1726
 5212W        W20681  14.982   9.299  12.637 -0.2015 -0.0528 -0.4666
 5213W        W20682   7.428  10.066   1.225 -0.1248 -0.2944 -0.2427
 5214W        W20683   7.798   7.492  12.377  0.1558  0.0614 -0.0359
 5215W        W20684  15.137  16.264  12.469 -0.1939  0.2095  0.0973
 5216W        W20685  11.190   6.324   0.406  0.0177  0.0588  0.1582
 5217W        W20686   3.807   7.386   3.865 -0.1442  0.0636 -0.0780
 5218W        W20687  18.170   2.674  10.516  0.2081 -0.0622 -0.1218
 5219W        W20688  14.750   2.737  13.113  0.0432  0.2867  0.2930
 5220W        W20689  14.110   1.319  10.375 -0.2044 -0.1169 -0.1769
 5221W        W20690  15.193   3.301  12.018 -0.1138 -0.1118 -0.0865
 5222W        W20691   5.090  16.458   5.006  0.3186 -0.0851 -0.0501
 5223W        W20692  10.663   0.701   3.072  0.0496 -0.3183 -0.1264
 5224W        W20693  11.561   0.002   3.540  0.1733 -0.0380 -0.2966
 5225W        W20694  14.284   0.794  11.976  0.0091 -0.2193 -0.0725
 5226W        W20695   2.278  13.882   1.379  0.1111 -0.1914 -0.1756
 5227W        W20696   6.238   9.676  11.991 -0.0292  0.0614  0.0948
 5228W        W20697   6.707   2.882   1.873 -0.0749 -0.0507  0.0942
 5229W        W20698  15.116   3.170   1.124 -0.1943  0.0016  0.1724
 5230W        W20699  11.386   6.120  13.102  0.0524  0.3152  0.2298
 5231W        W20700  14.721  14.211   1.149 -0.1680 -0.1986 -0.0429
 5232W        W20701  13.656  11.441   2.016  0.4389 -0.1538 -0.1947
 5233W        W20702  14.084  12.716   1.504 -0.0110  0.1630 -0.0553
 5234W        W20703  18.187   8.025   0.044 -0.1609  0.2491 -0.0084
 5235W        W20704   2.580   2.873   4.956 -0.1294 -0.0073  0.1110
 5236W        W20705  10.517  18.311   3.545 -0.0364 -0.0779  0.2012
 5237W        W20706  11.979   8.077  12.531 -0.1214 -0.2061 -0.1945
 5238W        W20707  14.279  15.449   4.763  0.0069  0.0654 -0.1169
 5239W        W20708  16.127   6.669   3.419 -0.0859  0.1383 -0.0923
 5240W        W20709  18.407   8.775   3.325  0.1599  0.3213  0.1170
 5241W        W20710  13.780  12.428  14.536  0.3001  0.1465 -0.0418
 5242W        W20711   1.847   5.129  12.355  0.3426  0.2691 -0.1925
 5243W        W20712  12.277  13.676   0.477  0.0318 -0.0458 -0.2327
 5244W        W20713   7.241  12.419  12.664 -0.4492 -0.1069  0.6280
 5245W        W20714   7.386  17.797  14.428  0.2370 -0.2528 -0.0375
 5246W        W20715  11.540   6.116   2.876 -0.0536 -0.1649  0.1726
 5247W        W20716  17.532  11.408  13.565  0.0384 -0.3254  0.0930
 5248W        W20717  16.397   3.299   2.377 -0.0536 -0.0481  0.0242
 5249W        W20718  11.837  15.758  14.966  0.1571 -0.2027  0.3641
 5250W        W20719  11.302   7.006  13.267  0.1096  0.0479  0.0013
 5251W        W20720  12.714   1.264   3.363  0.1299  0.2293  0.0781
 5252W        W20721   7.159  15.906  11.040  0.0795 -0.2613  0.2000
 5253W        W20722   3.268   6.756  11.659 -0.0502  0.0036  0.1531
 5254W        W20723  17.137  18.227  11.361  0.0493 -0.3189 -0.3026
 5255W        W20724   3.797   8.068  12.382 -0.2373  0.2318 -0.2692
 5256W        W20725   6.770  12.176   2.472 -0.1607  0.3312 -0.1837
 5257W        W20726  11.898  12.394  12.639  0.0796  0.1148  0.3369
 5258W        W20727   0.359   6.908   3.847  0.0360  0.1349  0.2329
 5259W        W20728  10.350   8.403  12.564 -0.0150 -0.2088 -0.3263
 5260W        W20729  17.593   9.960   3.007 -0.0178  0.2861  0.0719
 5261W        W20730  11.035  13.738   5.345 -0.0735 -0.3804  0.3006
 5262W        W20731   2.952   7.915  10.768  0.1674  0.1300 -0.0909
 5263W        W20732  11.360   4.087  10.248  0.3088  0.1116  0.1906
 5264W        W20733  17.886  10.040  11.072 -0.3815  0.0365 -0.0429
 5265W        W20734   3.270  14.215  12.395 -0.2030  0.2490  0.2279
 5266W        W20735   4.532   6.312   2.355 -0.0923  0.1451  0.3208
 5267W        W20736  10.693   8.629  11.043  0.1076 -0.3680  0.1033
 5268W        W20737  15.847  12.925   2.667  0.1485  0.2590  0.3132
 5269W        W20738   3.632   6.629  10.127 -0.0826 -0.0023 -0.1365
 5270W        W20739   1.245   4.596  14.195  0.2034  0.0229 -0.1874
 5271W        W20740   4.535   2.830   5.040  0.0292 -0.0292  0.0125
 5272W        W20741  12.047   0.749   6.131  0.1024  0.0491 -0.1144
 5273W        W20742  12.859   0.978   5.550  0.2261 -0.1204 -0.1733
 5274W        W20743   1.425   3.498  11.836 -0.1626  0.0557  0.2904
 5275W        W20744  17.783   5.643  12.771  0.1223  0.0153 -0.1165
 5276W        W20745  16.889   2.589   0.332 -0.1514 -0.0301  0.1608
 5277W        W20746   8.048  14.829   5.662 -0.2484  0.0757  0.1608
 5278W        W20747   1.937   7.367  10.041 -0.1590  0.0333  0.1818
 5279W        W20748  17.331   4.166  14.198  0.1788 -0.0912  0.0745
 5280W        W20749  14.708  11.637  14.645 -0.1115 -0.2279 -0.1532
 5281W        W20750  12.306   8.046  11.621 -0.1300  0.1869 -0.2853
 5282W        W20751   7.726   4.377   3.883 -0.0079 -0.1221 -0.0429
 5283W        W20752  13.080  18.401   0.983 -0.2410  0.0132 -0.2804
 5284W        W20753  16.138  15.123  14.263 -0.1445 -0.1523 -0.0002
 5285W        W20754  18.175   5.631   2.666 -0.1059 -0.0811  0.0148
 5286W        W20755   5.971  13.108  13.130 -0.1352  0.1973  0.1540
 5287W        W20756   8.276   5.514   2.370 -0.2258 -0.0524  0.0261
 5288W        W20757   6.480   9.808  14.424  0.1273 -0.1288  0.1676
 5289W        W20758   2.907  10.722   1.239  0.0039 -0.1524  0.0084
 5290W        W20759   1.361  12.302   1.529 -0.0182  0.2218 -0.0906
 5291W        W20760  10.469  14.798  14.034  0.1581 -0.2889  0.0437
 5292W        W20761   1.531  16.251   2.569  0.0011  0.0360  0.0087
 5293W        W20762  15.922   2.378  12.616  0.0804  0.2864  0.0634
 5294W        W20763  17.157  18.463   2.362  0.0171 -0.2295  0.1057
 5295W        W20764   0.496  13.348  10.595  0.0811  0.3159 -0.0756
 5296W        W20765   9.405   9.237   1.517  0.1499 -0.2817  0.0059
 5297W        W20766   0.369   9.069  13.964 -0.2721  0.0229 -0.1127
 5298W        W20767  18.225   4.467  11.488  0.1283 -0.0174  0.1603
 5299W        W20768   3.714  18.158  13.164 -0.2378 -0.2682  0.1757
 5300W        W20769  12.760  12.760   3.534 -0.0169  0.2919  0.0059
 5301W        W20770  15.138   5.483   2.227  0.1514  0.0577  0.1280
 5302W        W20771   2.783  11.851   3.788  0.1275 -0.0536 -0.2298
 5303W        W20772   7.823   2.333  12.241 -0.0419 -0.1433  0.1640
 5304W        W20773  12.201   3.159  12.777  0.2228 -0.1059 -0.1966
 5305W        W20774   2.478  16.468  14.076  0.1114  0.0723 -0.0705
 5306W        W20775   6.670   0.208   3.320  0.0044 -0.1374  0.3138
 5307W        W20776   2.829  17.924   2.597 -0.3937  0.0450  0.0524
 5308W        W20777  13.273   1.577   0.500 -0.2083 -0.0509  0.1070
 5309W        W20778  14.734   6.643   1.616 -0.1019  0.0332  0.4366
 5310W        W20779   4.919   1.266   4.892 -0.1233  0.0636  0.0927
 5311W        W20780   9.489   1.187   2.545  0.1744 -0.2395 -0.0251
 5312W        W20781  18.624  13.538  14.994  0.1411  0.0428  0.2813
 5313W        W20782   8.098   8.109   1.856  0.0484  0.2162 -0.2405
 5314W        W20783   1.417   2.523   1.792 -0.2351  0.1673  0.1624
 5315W        W20784  18.308   6.848  14.967 -0.0124  0.3461 -0.1184
 5316W        W20785  13.543   9.196   1.169  0.2836 -0.0076 -0.3108
 5317W        W20786   4.911  10.298   1.605 -0.0271 -0.1980 -0.1562
 5318W        W20787  14.773   4.544   3.642  0.0274  0.2620  0.0394
 5319W        W20788   9.562   3.977  14.175  0.5169  0.1562  0.1000
 5320W        W20789  10.889   0.474   4.992 -0.0656 -0.0993  0.0433
 5321W        W20790   9.082   7.002   3.882 -0.0689 -0.0025  0.2780
 5322W        W20791  17.663   0.119   9.795 -0.1851 -0.1168  0.0885
 5323W        W20792  16.629  13.465  15.358  0.0697 -0.3057 -0.0602
 5324W        W20793   9.132   6.030   1.381 -0.0115 -0.1120 -0.0476
 5325W        W20794   3.320   0.309  14.760  0.1653 -0.0960  0.0319
 5326W        W20795  14.937  16.251  11.464 -0.1730  0.2780  0.3208
 5327W        W20796   4.063   8.647  15.350  0.2819 -0.2649 -0.2000
 5328W        W20797   8.512  15.983  13.455  0.1286 -0.1800 -0.1125
 5329W        W20798  12.524   9.480   0.058 -0.0157 -0.2818 -0.0332
 5330W        W20799   7.676  15.050  14.413 -0.0909 -0.1648 -0.1629
 5331W        W20800   9.204  10.152   2.166  0.0305  0.3638  0.0130
 5332W        W20801  15.336   2.949  10.666  0.0263 -0.0890  0.1453
 5333W        W20802   6.446  14.114   4.110 -0.2583 -0.0049 -0.1498
 5334W        W20803   2.899   2.318   2.198  0.0047 -0.1464 -0.1689
 5335W        W20804   4.500  13.187  14.325 -0.1229 -0.0057 -0.1011
 5336W        W20805   1.735  12.764  13.637  0.3438 -0.0923 -0.1365
 5337W        W20806  12.990   7.868   2.536 -0.1405 -0.1697  0.2558
 5338W        W20807   6.901   5.405  13.353  0.5151 -0.1096  0.0871
 5339W        W20808   1.166   4.708   2.788  0.2122  0.1139  0.2703
 5340W        W20809   0.118  12.222  13.506  0.2754 -0.1282  0.3028
 5341W        W20810   7.550  14.019  12.557 -0.3615  0.2196 -0.4681
 5342W        W20811   1.040  15.844   5.426  0.1658 -0.0633 -0.1127
 5343W        W20812   5.442   1.903   0.799 -0.0609 -0.0370  0.2056
 5344W        W20813   7.519   7.847   3.725  0.0645 -0.1654 -0.1653
 5345W        W20814  10.691  16.941  12.364  0.0018  0.3244  0.1349
 5346W        W20815  14.278  11.706   2.805  0.3831 -0.2538  0.2637
 5347W        W20816  11.214  12.873   4.748 -0.3041  0.0437  0.2789
 5348W        W20817   8.145   8.093  14.563  0.1757 -0.1115 -0.3155
 5349W        W20818  15.542  16.108   2.185  0.1656 -0.0376  0.0722
 5350W        W20819  12.036  13.112   0.640 -0.1949 -0.0110  0.2751
 5351W        W20820   1.615   1.293  11.543  0.0372  0.0088 -0.0930
 5352W        W20821  17.265  15.441  14.330 -0.1573 -0.0536  0.1134
 5353W        W20822  11.340  16.667   3.030  0.2390 -0.1613 -0.3034
 5354W        W20823   2.472   8.474  12.793  0.1750  0.2064 -0.2308
 5355W        W20824   4.539  14.868  11.088 -0.3237  0.1418  0.0037
 5356W        W20825   7.338   9.026   0.025 -0.2294 -0.0461 -0.3226
 5357W        W20826  12.846   6.942  12.199 -0.1723 -0.0616 -0.0566
 5358W        W20827   6.927  17.846  12.765  0.1475  0.2317 -0.0316
 5359W        W20828   7.338  14.980   2.407 -0.0498 -0.3256  0.1357
 5360W        W20829   1.223  17.368  11.945  0.0811  0.1743 -0.0883
 5361W        W20830   3.424   2.099   3.522  0.0222  0.3279  0.2139
 5362W        W20831   1.010  10.386  13.800  0.1437  0.0889 -0.0640
 5363W        W20832   8.935   8.600   2.178 -0.1985 -0.0735  0.1718
 5364W        W20833   3.992  16.036  11.097  0.2140  0.2359  0.2134
 5365W        W20834   7.857  16.766  12.720  0.0097  0.1366 -0.0621
 5366W        W20835   3.673   5.744   2.668  0.1222  0.2617  0.2040
 5367W        W20836  11.326  12.409   2.948  0.0068 -0.0558  0.2508
 5368W        W20837  11.060  16.589  12.332 -0.0093 -0.2122  0.0539
 5369W        W20838  11.557  13.157   2.245 -0.0174 -0.0992  0.0998
 5370W        W20839   5.947   5.957   3.653  0.0047 -0.3672 -0.2189
 5371W        W20840  13.069   6.523  12.248  0.0074  0.0039  0.2104
 5372W        W20841  17.812   8.471   4.210 -0.4076  0.0386 -0.2166
 5373W        W20842   7.758  11.972  15.320 -0.0153  0.3112  0.0831
 5374W        W20843  12.801  17.918   5.960 -0.1742 -0.3229 -0.2321
 5375W        W20844   0.624  15.674  12.084  0.0162 -0.0127  0.0033
 5376W        W20845   8.958   1.475  12.299  0.1457 -0.1754 -0.0262
 5377W        W20846  15.892   9.826  13.600  0.2224 -0.1025 -0.1504
 5378W        W20847  11.024  16.557   1.179 -0.2634  0.0399 -0.1345
 5379W        W20848  14.190   1.327   2.123 -0.0430  0.0505  0.0913
 5380W        W20849   0.311   9.092   1.389  0.2743 -0.0356 -0.0958
 5381W        W20850   4.624  11.237   1.496 -0.1384  0.3841  0.0675
 5382W        W20851   7.941   0.143  14.439  0.1647  0.0813  0.1384
 5383W        W20852   2.940  14.062  15.513 -0.1063 -0.2309  0.0259
 5384W        W20853   3.872   1.809   2.663 -0.3892 -0.1139 -0.0728
 5385W        W20854   9.182  13.589   1.035  0.2191  0.0365 -0.1148
 5386W        W20855  13.444  16.462  15.224 -0.1764 -0.3023 -0.2218
 5387W        W20856  15.589  11.767  13.963 -0.2139 -0.2225 -0.1120
 5388W        W20857   1.477  15.951   3.872  0.1586  0.1676 -0.2754
 5389W        W20858  17.260   0.855   4.776 -0.2024  0.2490 -0.2201
 5390W        W20859   2.309  18.112   2.458  0.1791  0.1958  0.0321
 5391W        W20860  16.546   0.038  11.915  0.1155 -0.2312 -0.2008
 5392W        W20861   7.989  18.205  15.269  0.1668  0.0213 -0.1213
 5393W        W20862   7.073  17.156   0.947  0.1822  0.1353  0.2279
 5394W        W20863  10.628  12.452  15.311  0.1227  0.0355 -0.2005
 5395W        W20864   6.544   3.141  13.553 -0.2297 -0.0489  0.2027
 5396W        W20865  18.238   5.921   0.860  0.0173 -0.1612  0.0937
 5397W        W20866   1.281  12.572   0.481  0.2382 -0.1222 -0.2041
 5398W        W20867   8.167  13.130   0.171 -0.0500  0.0716 -0.0279
 5399W        W20868   8.978  18.568  13.471 -0.2379 -0.1360 -0.3625
 5400W        W20869   5.970  17.691  14.443 -0.2038 -0.2628 -0.0859
 5401W        W20870   9.853   8.572   1.207 -0.0733 -0.0932  0.0980
 5402W        W20871   4.489  14.893   5.831  0.0176 -0.0135 -0.0329
 5403W        W20872  14.165  11.544   4.633 -0.1849 -0.4581  0.2669
 5404W        W20873   5.285   6.711   2.929 -0.0764 -0.0222 -0.1798
 5405W        W20874   1.078   9.382  13.202 -0.1235 -0.1021 -0.1233
 5406W        W20875  14.171   7.874  11.915  0.0851 -0.3015 -0.3257
 5407W        W20876   3.503   1.337  15.344 -0.0575 -0.1453 -0.0586
 5408W        W20877   4.122   9.763   5.542 -0.1115  0.3655 -0.4800
 5409W        W20878   2.043  13.929   4.334  0.0909  0.1292  0.0314
 5410W        W20879  17.912  15.491   3.641 -0.0003 -0.4281  0.0247
 5411W        W20880  15.723   0.759  11.608  0.0218  0.1890  0.0117
 5412W        W20881  13.544  11.215  15.252 -0.0086  0.0049  0.1055
 5413W        W20882   4.412   0.787  15.362 -0.2942 -0.0306  0.0954
 5414W        W20883  10.610   0.721  12.560 -0.0152 -0.1701 -0.0746
 5415W        W20884  13.848  14.646   5.295 -0.0541 -0.0661 -0.0022
 5416W        W20885   3.764   1.745   1.276  0.0431 -0.1418  0.2335
 5417W        W20886  17.746  15.589   4.581 -0.2216  0.3084  0.2490
 5418W        W20887   0.472   9.851  14.359  0.1494 -0.0377 -0.0862
 5419W        W20888   5.328   4.187   2.927 -0.1447 -0.1524 -0.0007
 5420W        W20889  12.138  15.579   4.016  0.0403 -0.3984  0.1929
 5421W        W20890  10.053   4.637  15.745  0.1907 -0.0570 -0.2721
 5422W        W20891  11.319   9.314  14.643  0.1728  0.1159 -0.1936
 5423W        W20892   0.690  12.258   2.386  0.1722  0.0449 -0.0447
 5424W        W20893   8.372   9.968  12.632 -0.2074 -0.0997  0.2734
 5425W        W20894  16.873   5.639  12.005  0.0324  0.0323 -0.0844
 5426W        W20895   2.154   8.116   3.945  0.1171 -0.0451  0.0970
 5427W        W20896   7.863   6.565   2.527  0.1347  0.1542  0.1218
 5428W        W20897   8.268   9.196  13.088 -0.1300 -0.0410  0.2891
 5429W        W20898   9.833  15.777   0.656  0.2450  0.0792  0.1451
 5430W        W20899  15.406   9.792  13.338  0.1878 -0.0591 -0.0977
 5431W        W20900  17.798   1.746  11.470  0.0947  0.1741  0.1187
 5432W        W20901  10.132   8.560  13.392 -0.0550 -0.0776 -0.2655
 5433W        W20902   2.710  13.710  13.282 -0.1736 -0.2254  0.0181
 5434W        W20903   5.674  15.624   2.101 -0.1947  0.0201  0.2001
 5435W        W20904  10.543   0.772   3.869  0.0367 -0.1380  0.0673
 5436W        W20905   0.732  18.513  11.184 -0.1226 -0.1739 -0.0744
 5437W        W20906   9.526  12.409   0.051  0.0088 -0.3414 -0.1735
 5438W        W20907   1.320  17.945   2.107  0.0968 -0.0847 -0.1850
 5439W        W20908   2.828  18.338  15.273  0.1202  0.0306  0.3070
 5440W        W20909  10.688  13.472   5.829 -0.0094  0.0396 -0.1109
 5441W        W20910  13.166   1.603  10.439  0.2511 -0.1887 -0.0451
 5442W        W20911   3.870  11.477  12.811 -0.0404 -0.1168  0.0873
 5443W        W20912   9.681  12.506  14.853 -0.4898  0.2905  0.1716
 5444W        W20913  17.232   2.059   1.562  0.0491  0.0263 -0.2342
 5445W        W20914   8.137  18.341  11.076  0.3077  0.1152  0.0967
 5446W        W20915   4.812   6.890  12.806  0.1128 -0.3078  0.1571
 5447W        W20916   0.019  14.962   4.853  0.1097 -0.0755  0.1657
 5448W        W20917  12.500  13.741  10.425 -0.0109 -0.0943 -0.1848
 5449W        W20918  11.322   3.670   3.108 -0.1593 -0.1493  0.1925
 5450W        W20919  12.496   5.542   5.265  0.1589 -0.2015  0.0899
 5451W        W20920   0.201  14.383  12.708  0.0527 -0.2462  0.2870
 5452W        W20921   7.553  15.537  13.064  0.0322 -0.0278  0.3058
 5453W        W20922  10.896  18.449   0.825  0.3088 -0.2535  0.1130
 5454W        W20923  14.466   9.905   3.627 -0.2998  0.0220 -0.0916
 5455W        W20924   3.092   3.631  12.089 -0.1928  0.2328  0.1919
 5456W        W20925  18.292   8.792   5.031 -0.0702  0.3952  0.1259
 5457W        W20926   0.056   6.515  13.000 -0.0163  0.3058  0.2374
 5458W        W20927  14.767   1.328  14.098  0.2954  0.1207 -0.0390
 5459W        W20928   3.356   9.707   3.110  0.1480  0.0906  0.0949
 5460W        W20929  12.360   6.187  12.611 -0.1230 -0.0770 -0.2412
 5461W        W20930  16.832   9.271   3.027 -0.3038  0.0526  0.0484
 5462W        W20931   5.889   9.307   4.272  0.2336  0.0387 -0.3203
 5463W        W20932   4.980   4.518   3.921  0.0163  0.1019  0.1807
 5464W        W20933  14.704  15.307  13.330 -0.0748  0.0449 -0.0020
 5465W        W20934   4.399  14.054   3.595  0.0196  0.0411 -0.2624
 5466W        W20935  17.144   2.876  15.381  0.1262  0.0198 -0.0384
 5467W        W20936   7.399   5.661  12.981 -0.1163 -0.1177 -0.0969
 5468W        W20937  15.512   2.035   5.764 -0.0668 -0.0803  0.1249
 5469W        W20938  18.281   9.478   4.558 -0.1457 -0.2426  0.0777
 5470W        W20939  18.603   9.793  15.071  0.1066  0.3129 -0.2118
 5471W        W20940   3.412  13.010  14.598 -0.1883 -0.0781  0.0964
 5472W        W20941   4.561  15.097   1.408  0.3983 -0.0395  0.2783
 5473W        W20942  17.105   4.986  12.590 -0.1435 -0.0651  0.2126
 5474W        W20943   9.127  12.772  14.017 -0.1795  0.1962  0.2133
 5475W        W20944   2.554  10.072  13.790 -0.0805  0.1440  0.0541
 5476W        W20945   3.260   5.829  15.557  0.0915 -0.1646  0.2506
 5477W        W20946  12.746  11.268   2.649 -0.0491 -0.1863 -0.1727
 5478W        W20947  14.153  16.742   4.493  0.2663 -0.1696  0.1985
 5479W        W20948   8.080  15.714  12.784  0.2438  0.1136  0.1903
 5480W        W20949   4.822   4.439   0.904 -0.2811  0.2399 -0.4370
 5481W        W20950  17.924  17.744  15.107 -0.2072 -0.1429  0.0520
 5482W        W20951   3.510   7.406  10.498  0.1110  0.5396 -0.0211
 5483W        W20952   4.237  11.865   1.958  0.1125 -0.1695  0.2229
 5484W        W20953  15.259   7.816   1.842  0.0214  0.1036 -0.2121
 5485W        W20954   8.770   4.147  11.806 -0.1075 -0.1772 -0.3830
 5486W        W20955  13.200   5.497   1.775  0.1619  0.1394  0.2825
 5487W        W20956  17.344  10.829   9.570 -0.1370 -0.1143  0.4776
 5488W        W20957   5.533   6.967  14.546 -0.0052 -0.4141 -0.0676
 5489W        W20958   6.028  16.718  14.296  0.1456 -0.1009 -0.1994
 5490W        W20959   6.449  14.499  12.048 -0.0506  0.1472 -0.2812
 5491W        W20960   1.474   8.482   3.814  0.0439  0.0397 -0.3336
 5492W        W20961   5.412   1.820  13.268  0.2581  0.1767  0.3151
 5493W        W20962   4.443  10.598  12.330  0.1347  0.2292  0.1523
 5494W        W20963   9.240  15.079  12.911  0.0124  0.0345 -0.0310
 5495W        W20964   3.081   6.198   3.327 -0.2255 -0.0796  0.2314
 5496W        W20965   3.392   7.342  13.956 -0.1670  0.1113  0.3931
 5497W        W20966   0.594   6.903  14.698  0.3711  0.1457 -0.0566
 5498W        W20967  14.826  15.574   1.533 -0.2281  0.1217  0.0095
 5499W        W20968   5.843  10.553   0.015 -0.3067 -0.1428 -0.1586
 5500W        W20969   5.995  11.686   1.686  0.1381  0.1207  0.1619
 5501W        W20970   9.833   2.469   0.086  0.0301  0.5924  0.2090
 5502W        W20971  16.895   9.162  12.981 -0.2097  0.2735  0.0596
 5503W        W20972  18.084   1.319  15.110  0.3204 -0.3151 -0.3269
 5504W        W20973   3.235   4.733  10.437 -0.1122 -0.0873 -0.1076
 5505W        W20974  15.232   7.666   2.743  0.0621 -0.4394 -0.0939
 5506W        W20975   0.794   6.075  11.866 -0.3027  0.1391  0.0518
 5507W        W20976   0.948  13.836   3.321 -0.1321 -0.0237  0.1255
 5508W        W20977   0.579  14.167   3.566  0.0367  0.1842  0.1366
 5509W        W20978  18.545  14.126  13.771  0.1720  0.1054 -0.1998
 5510W        W20979  12.392  11.404  11.748 -0.1818  0.0012  0.1252
 5511W        W20980  10.620   9.951   4.140  0.1537 -0.0586 -0.0961
 5512W        W20981   5.206  14.925   6.231  0.2832  0.0669  0.1442
 5513W        W20982  16.404  12.015   4.615 -0.0015 -0.2194 -0.0782
 5514W        W20983   1.328  12.212  15.597  0.1302 -0.0266  0.2734
 5515W        W20984   6.596   9.528  15.713 -0.2295  0.4339 -0.1420
 5516W        W20985  13.109  15.519  14.141  0.3317 -0.0012  0.0467
 5517W        W20986  11.710   9.327   5.563 -0.0164 -0.0653  0.0688
 5518W        W20987  11.455  14.951   1.387 -0.0378 -0.0848 -0.0666
 5519W        W20988  18.044   7.863  14.279 -0.0298  0.1796 -0.1025
 5520W        W20989  16.882  16.600  15.090 -0.1092  0.0270  0.1223
 5521W        W20990   0.037  15.289  15.278  0.2687 -0.0216  0.1593
 5522W        W20991  14.710   2.646   3.868  0.2221  0.0391  0.1297
 5523W        W20992  11.396   5.991   0.030  0.3056 -0.1634 -0.1832
 5524W        W20993   8.999   7.783  14.686  0.1241  0.1435 -0.2929
 5525W        W20994  18.054  17.311   5.993 -0.2163  0.0986  0.3517
 5526W        W20995   8.166   6.522  13.678  0.0701  0.3372 -0.1979
 5527W        W20996   3.706   6.820   5.496  0.0768  0.0212  0.0104
 5528W        W20997   8.172  13.357   0.626  0.0840  0.1376 -0.0624
 5529W        W20998  16.187   9.714  14.037  0.0017 -0.0642  0.1897
 5530W        W20999   3.130  15.199  14.121 -0.0057  0.1785 -0.2581
 5531W        W21000  14.784  13.919   4.356  0.2125  0.1624  0.1472
 5532W        W21001   3.181   6.911  13.122 -0.0284 -0.0398  0.3858
 5533W        W21002   1.533   5.736  11.219 -0.1515  0.4038 -0.0654
 5534W        W21003  14.649   8.794  14.144 -0.0226 -0.0894 -0.0104
 5535W        W21004   0.635  11.509  14.304 -0.1778  0.2692 -0.0399
 5536W        W21005   3.210   7.049  10.685 -0.2487 -0.1438  0.0966
 5537W        W21006  10.616  18.525   1.252  0.0249 -0.1305 -0.0339
 5538W        W21007   2.720   8.183  11.321  0.0608 -0.1237  0.1142
 5539W        W21008  13.155  11.626   3.578 -0.0738 -0.0946  0.1038
 5540W        W21009   7.498  17.284  10.263  0.0899  0.1907  0.0475
 5541W        W21010   0.300   2.959  11.658  0.2398 -0.2195 -0.1118
 5542W        W21011  15.842   4.594  11.410 -0.0286 -0.2025  0.2749
 5543W        W21012  16.001   0.301   3.751 -0.0770  0.2345  0.4736
 5544W        W21013  17.293   6.639   4.459  0.0711 -0.3880 -0.2213
 5545W        W21014  14.908   4.498  12.409  0.0599  0.2628 -0.1671
 5546W        W21015   2.351   3.011  11.171 -0.4066  0.1899 -0.1686
 5547W        W21016   8.354   4.194  14.901  0.1750  0.0830  0.0092
 5548W        W21017   8.818   1.108   1.521  0.1434 -0.3560  0.1509
 5549W        W21018   8.149  11.033  11.411 -0.2178  0.3454 -0.3351
 5550W        W21019  17.515  12.667   3.801 -0.2109  0.0634 -0.1620
 5551W        W21020   3.279  12.434   3.494  0.2084 -0.2157  0.1071
 5552W        W21021  17.965  18.529  15.686  0.0200 -0.2072 -0.0029
 5553W        W21022   8.171   3.881  11.974  0.0274  0.0507  0.0274
 5554W        W21023  13.392  15.693  15.745  0.0933 -0.0536  0.0357
 5555W        W21024  12.314   9.055   4.600 -0.1845  0.0805 -0.1745
 5556W        W21025  12.676   0.788  11.116 -0.2250  0.1483  0.1004
 5557W        W21026   9.706  16.478  12.218  0.0632 -0.1550 -0.1130
 5558W        W21027   8.540   0.939   0.884 -0.0017 -0.4031  0.0582
 5559W        W21028   9.994   7.074  15.645  0.0198 -0.0622 -0.0469
 5560W        W21029  14.826   0.378   3.182 -0.1428 -0.0086 -0.0337
 5561W        W21030  10.164   8.836   0.956 -0.1274  0.0765 -0.2181
 5562W        W21031   9.499  18.069  11.612 -0.1330 -0.0402  0.0036
 5563W        W21032  14.966  17.177  12.630  0.3264 -0.3595 -0.0437
 5564W        W21033  17.079   0.335   3.999  0.0757 -0.0039  0.2584
 5565W        W21034  13.205  16.864   6.014  0.2705  0.2343  0.3476
 5566W        W21035  12.592   1.804   1.427 -0.0913 -0.2096  0.0065
 5567W        W21036   7.684   6.097   2.605 -0.2063  0.2453  0.0924
 5568W        W21037   2.611  10.584   2.052  0.2411 -0.2143  0.1124
 5569W        W21038   3.964  10.355   4.326 -0.0683 -0.1464 -0.1498
 5570W        W21039   8.650   3.564   3.285 -0.4455 -0.0296  0.1453
 5571W        W21040   0.444   0.095   2.079  0.0747  0.0168  0.1031
 5572W        W21041   6.418   6.908   3.629 -0.1219 -0.0062  0.1231
 5573W        W21042   3.040  17.856   3.135 -0.1594 -0.1104 -0.3485
 5574W        W21043  12.731  13.005   0.010 -0.0292 -0.2144  0.3880
 5575W        W21044  11.425  10.958  12.229 -0.0385  0.3529 -0.0288
 5576W        W21045   0.347  12.909   0.190 -0.2915  0.1375  0.1335
 5577W        W21046   3.597   3.913  10.832  0.2296  0.0318 -0.0872
 5578W        W21047  18.013   1.654   1.229 -0.1701  0.1590 -0.0247
 5579W        W21048  17.840  14.433   2.988 -0.0945 -0.0636 -0.0033
 5580W        W21049   9.337   2.916  15.432  0.2038  0.0939 -0.1634
 5581W        W21050  10.779  12.673   5.020  0.0421  0.4760 -0.2416
 5582W        W21051  11.906  14.484  11.696  0.1031  0.2262  0.1219
 5583W        W21052  16.694   6.624  12.216  0.0625 -0.0094  0.2509
 5584W        W21053  16.196   5.591  10.877  0.2173  0.1040 -0.0150
 5585W        W21054   9.029   6.231  14.854  0.0382  0.2478 -0.1444
 5586W        W21055  12.401   2.237  13.713 -0.2771  0.2724  0.1159
 5587W        W21056  11.243   4.330   5.497 -0.1097  0.0358 -0.0827
 5588W        W21057   1.523   0.652  12.833 -0.4498  0.0071  0.1163
 5589W        W21058   9.967  17.988   0.451 -0.1359  0.2156 -0.1777
 5590W        W21059   9.557   5.244   0.297  0.1088 -0.3639 -0.0758
 5591W        W21060   9.494   4.119  12.674 -0.0830  0.1559  0.4546
 5592W        W21061   5.532  13.683  10.855 -0.2462 -0.1611 -0.1567
 5593W        W21062   0.017  16.532  14.853  0.2220  0.4425  0.1645
 5594W        W21063   8.666  13.382   4.061 -0.1504 -0.0028  0.2026
 5595W        W21064  15.898  15.628   5.027  0.2163  0.1032  0.1281
 5596W        W21065  10.645   1.320   6.159 -0.1566  0.0959  0.2602
 5597W        W21066  15.622   5.100  15.168 -0.0320 -0.3794 -0.2444
 5598W        W21067   3.073   2.803  11.600  0.0114  0.2499  0.2795
 5599W        W21068  13.755  17.360   2.266  0.2430 -0.1074 -0.2083
 5600W        W21069   1.335  11.895   3.909 -0.2372  0.0761  0.0298
 5601W        W21070   9.852   7.490  13.450 -0.2186  0.0703 -0.0815
 5602W        W21071  18.471  13.583   3.824  0.1698 -0.2806  0.1009
 5603W        W21072   3.158  10.610   3.232  0.3037 -0.0039 -0.1076
 5604W        W21073   8.128   2.748  10.816 -0.3149 -0.1025  0.1209
 5605W        W21074   6.588  16.437  12.725 -0.0104 -0.2940  0.1208
 5606W        W21075   1.436   1.060  14.298  0.2451  0.2071  0.2925
 5607W        W21076  10.319  10.438  12.893 -0.5105  0.0018  0.0138
 5608W        W21077   9.743   3.166   3.868 -0.3193  0.2607  0.1203
 5609W        W21078   6.086   1.498   3.815 -0.4384  0.0374 -0.4770
 5610W        W21079  17.911   1.387   0.252  0.2115 -0.2245 -0.3770
 5611W        W21080  13.139  10.087  13.521 -0.1984 -0.2971  0.6304
 5612W        W21081   2.166  15.530   1.018  0.0230 -0.0117 -0.1158
 5613W        W21082  10.834   6.830  13.299 -0.0798 -0.0607  0.0752
 5614W        W21083   6.857  16.341  12.224 -0.2236  0.1185  0.2154
 5615W        W21084   4.818  11.690   4.479 -0.1335  0.0277 -0.1254
 5616W        W21085  11.889  11.569  11.818 -0.0694  0.3153  0.1624
 5617W        W21086  12.894   1.485   2.635  0.0671  0.0105  0.1449
 5618W        W21087   5.678  12.754  12.731 -0.4226  0.1791 -0.3234
 5619W        W21088   4.561  11.898   2.787  0.3608  0.2568 -0.4197
 5620W        W21089  17.790  11.683  11.869 -0.1233 -0.2594  0.2436
 5621W        W21090  14.430   9.455   3.276  0.2342 -0.0309 -0.1229
 5622W        W21091   4.858  11.872  11.776 -0.0454 -0.2941  0.2826
 5623W        W21092  12.012   8.145  10.398 -0.1867  0.1842 -0.2333
 5624W        W21093  15.011   2.237   3.966 -0.3229 -0.0755  0.0336
 5625W        W21094  10.141  12.451  15.405  0.2282 -0.1300 -0.0580
 5626W        W21095  15.451  11.395   1.539  0.0921  0.2844  0.0472
 5627W        W21096  14.937   2.853   2.925  0.3495  0.0407  0.0946
 5628W        W21097  17.835  14.297  11.553 -0.2041 -0.2666  0.2741
 5629W        W21098   4.339  13.127  12.482  0.0911 -0.0048  0.2076
 5630W        W21099   4.848   5.845   5.369 -0.0022 -0.1673  0.2976
 5631W        W21100   8.604   6.193   1.278  0.0040 -0.1442  0.0368
 5632W        W21101   5.677  17.753   4.525  0.0220  0.0676  0.1770
 5633W        W21102   5.323  16.215  10.981 -0.1135  0.0226 -0.0802
 5634W        W21103  12.085   3.326   4.137 -0.2044  0.7294 -0.0466
 5635W        W21104  16.083  11.729  12.132 -0.0592  0.1996 -0.0232
 5636W        W21105  14.621   9.899   1.638 -0.2669 -0.0986  0.3159
 5637W        W21106  12.058   1.434  11.672  0.3236  0.1843  0.0448
 5638W        W21107   7.724  14.823  11.156 -0.0040  0.2839 -0.2357
 5639W        W21108   9.587  13.506  10.760 -0.1212  0.4298  0.2469
 5640W        W21109  15.289   4.047  14.334 -0.1543 -0.2755 -0.0914
 5641W        W21110  12.568   4.317   2.194  0.0583 -0.2275 -0.1294
 5642W        W21111   0.920   0.110  12.143  0.2824 -0.0912  0.3301
 5643W        W21112   6.410   6.237  14.081 -0.1101 -0.2838  0.3379
 5644W        W21113   5.581  14.998   4.364  0.0035 -0.1921  0.3785
 5645W        W21114  15.801  10.925   3.366  0.3777  0.1939 -0.0442
 5646W        W21115   7.414  16.139  11.416  0.0376  0.0154 -0.0141
 5647W        W21116  17.928  17.268  14.638 -0.1493  0.1642 -0.2498
 5648W        W21117   2.316   9.056   3.963  0.0663 -0.0045 -0.0237
 5649W        W21118  13.538  10.473  13.423 -0.0456 -0.1640  0.3919
 5650W        W21119   9.644  11.289  14.200  0.0688 -0.3640 -0.1642
 5651W        W21120   5.846   1.341  10.842 -0.0593  0.1527  0.1508
 5652W        W21121   8.358   0.865   5.439  0.0956  0.2528  0.1948
 5653W        W21122  15.979   8.964  11.620 -0.1764  0.0336  0.0200
 5654W        W21123   5.143  11.208   0.584  0.1479 -0.0920 -0.0577
 5655W        W21124  11.889   7.837  14.671 -0.0219 -0.1079 -0.0219
 5656W        W21125  16.469   6.330  13.094 -0.1324  0.2415  0.1233
 5657W        W21126   4.726  11.945  15.364  0.0827  0.3098  0.1685
 5658W        W21127  13.920   4.501  15.314  0.3258 -0.1003 -0.0823
 5659W        W21128  11.224   7.709   4.197 -0.1791 -0.0539 -0.2074
 5660W        W21129  15.850   5.230   2.866  0.0093 -0.1097  0.0455
 5661W        W21130   4.217   0.017  12.556  0.0974  0.0933  0.0393
 5662W        W21131   4.813  10.540   3.593 -0.3144  0.0421  0.1578
 5663W        W21132   3.165  15.480   1.063  0.1186  0.0375 -0.1268
 5664W        W21133  13.171  13.097   3.271 -0.0788 -0.5799 -0.0689
 5665W        W21134  18.375   6.834   1.277 -0.3594  0.0983  0.0604
 5666W        W21135  15.466   2.193   2.619 -0.0327  0.2767 -0.1494
 5667W        W21136  10.126   3.677  13.021 -0.3570 -0.0331 -0.4574
 5668W        W21137  10.074   9.523   4.716 -0.2547  0.1867 -0.1468
 5669W        W21138  17.747  14.348  12.886  0.0997 -0.3149 -0.1635
 5670W        W21139  17.846  13.499  11.442 -0.1057 -0.1049  0.0227
 5671W        W21140  16.865  13.030   0.952 -0.1509 -0.1475 -0.2589
 5672W        W21141  15.284   3.657  13.313 -0.4162 -0.1616 -0.0027
 5673W        W21142   6.343  16.633   3.320  0.1413 -0.1097  0.2123
 5674W        W21143   9.410   6.413   0.689 -0.0955  0.1776  0.1270
 5675W        W21144  13.513   8.439  12.733 -0.0349  0.0619 -0.0156
 5676W        W21145   9.329   1.779  12.715 -0.3520  0.0677 -0.0364
 5677W        W21146  12.024  15.327  10.677  0.0087 -0.2974  0.0077
 5678W        W21147   2.042  12.912  12.779  0.2700  0.1798 -0.0718
 5679W        W21148  14.749  13.732  15.555 -0.1754  0.0256 -0.1642
 5680W        W21149   8.758  16.994  13.139  0.2567 -0.2030 -0.0473
 5681W        W21150  15.765   5.135  12.317  0.1125  0.2396 -0.1845
 5682W        W21151   1.952   1.477   5.034  0.2412 -0.1876  0.3025
 5683W        W21152   5.013  14.653  12.788 -0.0191 -0.1788 -0.0056
 5684W        W21153  13.628  16.307  14.486 -0.0610  0.1680  0.0464
 5685W        W21154  11.644   0.086   1.252 -0.1015 -0.2306  0.0143
 5686W        W21155  13.182   6.061  15.007 -0.0228 -0.1694 -0.2561
 5687W        W21156   8.116   7.075  12.455  0.1158  0.0142 -0.0738
 5688W        W21157  15.971  12.534  11.156  0.1378 -0.1782  0.1271
 5689W        W21158   8.361  10.978  13.834 -0.0266  0.3080  0.0862
 5690W        W21159  14.737  10.917   5.314 -0.3880  0.3556  0.1459
 5691W        W21160   0.655  16.624  15.691  0.0134  0.1405  0.2738
 5692W        W21161   7.606   1.994   5.913  0.1206  0.0098  0.1000
 5693W        W21162   0.937  16.496  12.133  0.0553 -0.1607  0.1115
 5694W        W21163   3.950  16.630  14.300 -0.2736 -0.1582  0.1307
 5695W        W21164  12.749   5.020  14.227  0.0730  0.1210  0.0493
 5696W        W21165  16.950  12.648   5.171 -0.0309  0.0301 -0.0606
 5697W        W21166   3.690   9.033  12.074  0.1551 -0.1459  0.1062
 5698W        W21167  16.467  18.004  15.156 -0.0417  0.2895  0.0226
 5699W        W21168  17.558  10.650  15.424 -0.0019  0.0236  0.5258
 5700W        W21169   4.211   5.023  14.418  0.2103  0.0869  0.0025
 5701W        W21170  15.983  13.523  10.190  0.0351  0.0466 -0.3552
 5702W        W21171   6.457   2.517  12.608  0.0955 -0.0937 -0.1289
 5703W        W21172  18.168   1.931  11.855 -0.0781  0.2118  0.1927
 5704W        W21173  14.545  13.989   0.709 -0.1130 -0.1223  0.0323
 5705W        W21174  10.677   8.092   0.192 -0.6530  0.1045 -0.2611
 5706W        W21175   4.834  14.453   1.448 -0.0071  0.0681  0.3224
 5707W        W21176   8.396   3.074   4.933  0.2248 -0.0526  0.2052
 5708W        W21177   3.388  17.383  11.853 -0.1406 -0.0518 -0.0927
 5709W        W21178  10.251  12.627  14.937 -0.5836 -0.3460 -0.0548
 5710W        W21179   8.004   3.225  15.230  0.0088  0.0849 -0.0636
 5711W        W21180   8.765   8.135  12.467 -0.1182  0.0400  0.0103
 5712W        W21181  17.264   6.682  11.394 -0.1051  0.1262  0.1656
 5713W        W21182   8.803  16.858   1.499 -0.0476 -0.0472 -0.2802
 5714W        W21183   0.189   1.576   2.827  0.1195 -0.0058 -0.1238
 5715W        W21184   1.863  18.405  15.422 -0.1053  0.4573  0.0332
 5716W        W21185   9.657  13.365   4.109 -0.0779 -0.2824  0.0857
 5717W        W21186   8.810  12.359  13.328 -0.1655 -0.3487 -0.0600
 5718W        W21187  11.395  18.066   4.871 -0.0626 -0.2256 -0.0035
 5719W        W21188  12.621   7.000   1.720  0.3801  0.2102 -0.0912
 5720W        W21189   9.538  15.908   3.041  0.4511 -0.2994  0.1584
 5721W        W21190   2.449  13.802  14.312  0.0020 -0.2374  0.4605
 5722W        W21191   9.081   2.960   2.248  0.0158  0.2095 -0.0422
 5723W        W21192  13.093  16.381  14.328  0.2644  0.0420  0.3790
 5724W        W21193   3.857   1.636   0.352 -0.1747 -0.0866 -0.0931
 5725W        W21194   6.341   4.119   2.185 -0.0314 -0.3405  0.3344
 5726W        W21195  13.630  15.156   5.318 -0.3186  0.1163  0.1506
 5727W        W21196   7.302  18.278  14.469 -0.0672 -0.1856  0.3422
 5728W        W21197  17.505   1.278   2.194  0.0002 -0.1794 -0.0070
 5729W        W21198  16.264  15.417   3.575 -0.0923  0.1694 -0.2340
 5730W        W21199  13.843  11.862  11.033 -0.0762  0.0243  0.0393
 5731W        W21200   0.299  11.541   2.606 -0.1372  0.1742  0.0698
 5732W        W21201   3.289   4.622   5.373 -0.2059  0.1168  0.3221
 5733W        W21202  18.160   2.030   2.119  0.0336 -0.0214 -0.2839
 5734W        W21203  18.054   3.592   2.971  0.0348 -0.1304  0.1204
 5735W        W21204   1.884   7.086   1.730  0.1712 -0.4900 -0.0926
 5736W        W21205   2.459  12.608   3.627 -0.0138 -0.2790  0.0730
 5737W        W21206   6.821   0.046   4.071 -0.0507  0.0772 -0.1604
 5738W        W21207  10.533  16.233  12.768  0.1198 -0.0223  0.1360
 5739W        W21208  12.257  11.860  12.020  0.1567 -0.0145  0.1306
 5740W        W21209   4.550   3.294  12.945 -0.2506 -0.3063 -0.1786
 5741W        W21210  14.767  17.007  13.983 -0.1429  0.1581  0.1167
 5742W        W21211  12.216  12.991   5.867 -0.0650  0.0398 -0.0806
 5743W        W21212   4.060  10.940   5.460  0.0568 -0.4917  0.4125
 5744W        W21213  14.742   6.801   5.836  0.1951  0.1099  0.0671
 5745W        W21214  13.133  16.886  13.057 -0.1000  0.0301 -0.0115
 5746W        W21215   5.582  10.095  13.249  0.0476 -0.1476 -0.0708
 5747W        W21216   7.308   6.206  14.647  0.0435 -0.0384  0.0966
 5748W        W21217  10.658   5.455  14.630  0.1509 -0.1330  0.1268
 5749W        W21218   1.171   4.370  14.651 -0.2995 -0.1998  0.0890
 5750W        W21219   7.696   8.262  15.349 -0.2787  0.1487 -0.1690
 5751W        W21220   9.787   4.988  12.656  0.1045 -0.2599 -0.0669
 5752W        W21221  11.506  12.739   4.249 -0.2461 -0.1738  0.0696
 5753W        W21222   2.815  15.057   4.148 -0.2633 -0.1866  0.0611
 5754W        W21223   3.018  14.876   3.232 -0.0202  0.0406 -0.1569
 5755W        W21224  11.982  13.824   2.843  0.0080 -0.0802 -0.0627
 5756W        W21225  11.528   8.532  11.166  0.2962 -0.0238  0.0097
 5757W        W21226   0.933   2.314   1.428 -0.2112  0.0461 -0.0181
 5758W        W21227  12.064  12.288  11.866 -0.3423  0.1410 -0.1523
 5759W        W21228   7.426   0.709   2.086  0.1269  0.3245  0.0380
 5760W        W21229  17.501   3.063   0.314  0.0043  0.1703  0.1867
 5761W        W21230   4.578   6.862   1.806  0.2019 -0.0598  0.0477
 5762W        W21231  10.114  12.446   4.444 -0.1858  0.2733 -0.1174
 5763W        W21232   9.650   9.239   4.088  0.7478 -0.0439 -0.1436
 5764W        W21233  15.459   6.647  13.618  0.1364 -0.2084  0.3315
 5765W        W21234  15.161   2.519   3.604 -0.2061  0.0206 -0.3044
 5766W        W21235   3.887   0.119   4.672 -0.0370 -0.2200  0.2129
 5767W        W21236  12.725  15.117  12.833  0.0436  0.1054  0.0461
 5768W        W21237   8.782   7.092   4.602 -0.1679  0.2202 -0.0767
 5769W        W21238   8.111   1.679  14.705 -0.2270 -0.1823  0.0853
 5770W        W21239   7.112   1.789  13.768 -0.2114  0.0854 -0.1211
 5771W        W21240   7.544  13.295   1.363  0.3838 -0.1077 -0.0297
 5772W        W21241  17.094  10.766  12.907  0.2086  0.0257 -0.3094
 5773W        W21242   3.777   0.908   5.459  0.2673 -0.3028 -0.1047
 5774W        W21243  17.840   7.225  10.196 -0.0934  0.2111  0.0407
 5775W        W21244   1.661   1.596   3.165 -0.0764  0.0993 -0.3298
 5776W        W21245  18.128  12.276  11.539 -0.4327  0.0940  0.2588
 5777W        W21246  16.545  13.937   0.971 -0.1679 -0.0152 -0.1184
 5778W        W21247   0.364  15.949   3.013 -0.0647 -0.0538  0.0324
 5779W        W21248   3.723  12.303  11.138 -0.0951 -0.3342 -0.3231
 5780W        W21249   3.796  11.524   0.232  0.0673  0.2912  0.1089
 5781W        W21250   0.090   9.121   0.013  0.1725 -0.1363  0.2021
 5782W        W21251   0.270   8.287   4.615  0.1134  0.4325 -0.0678
 5783W        W21252   6.717   1.497  14.543  0.0826 -0.0153 -0.3177
 5784W        W21253   6.925   4.216   3.502  0.0751 -0.3995 -0.0158
 5785W        W21254  10.762  15.995  11.513 -0.3105  0.1579 -0.0970
 5786W        W21255  17.784  14.220  10.135  0.0443  0.3657 -0.1381
 5787W        W21256   4.522  14.375  11.511  0.0236  0.1526 -0.2289
 5788W        W21257  15.616   0.401  12.006  0.2883  0.1547 -0.3642
 5789W        W21258  13.455  10.205  10.872 -0.0425 -0.1170  0.1299
 5790W        W21259   1.036   3.247  11.862  0.0924 -0.4069 -0.1180
 5791W        W21260   7.323   2.149  12.353 -0.2744 -0.0177 -0.5487
 5792W        W21261   1.116   7.156   2.529 -0.2738 -0.0310  0.0865
 5793W        W21262   4.856  13.880   1.654  0.2910  0.3851 -0.4951
 5794W        W21263   6.063   1.752   0.798 -0.2284  0.0930 -0.1203
 5795W        W21264  12.039  12.960  12.385  0.0082 -0.2785  0.2868
 5796W        W21265   3.092  15.887   4.224  0.0704 -0.1140 -0.0444
 5797W        W21266   8.373  15.148  15.419 -0.1006 -0.2724 -0.0815
 5798W        W21267   8.276   8.261   1.008  0.1295 -0.3103  0.1811
 5799W        W21268   0.056   9.944  14.081  0.1372  0.0831  0.1613
 5800W        W21269   6.892  10.126  13.710  0.0736  0.0469  0.1661
 5801W        W21270  12.429  11.175   3.154 -0.1626 -0.1061  0.0960
 5802W        W21271  15.645   7.735   9.687  0.1585 -0.0281 -0.1532
 5803W        W21272   6.680   1.072   4.507  0.0024 -0.2127 -0.1355
 5804W        W21273   9.007  12.612   3.113  0.2490  0.2410 -0.1047
 5805W        W21274   6.121  15.143   2.987  0.0242 -0.2474 -0.1723
 5806W        W21275  16.277   2.289   0.675  0.0135 -0.0190  0.0201
 5807W        W21276   3.099   3.747   2.212  0.1283 -0.1359  0.0998
 5808W        W21277  15.472   2.794   3.295  0.0963  0.0668 -0.1764
 5809W        W21278   5.504   4.278  12.651  0.1980  0.0466  0.4484
 5810W        W21279  14.574  14.260   5.241 -0.0689 -0.1857 -0.4344
 5811W        W21280  13.715   4.873  13.878 -0.1279  0.2061  0.0359
 5812W        W21281   9.302   1.310   1.327  0.2071 -0.5974  0.1912
 5813W        W21282   1.496  15.594  15.592 -0.1580 -0.1469  0.0045
 5814W        W21283   5.554  18.189  13.840 -0.0076 -0.1078  0.3382
 5815W        W21284  13.246  18.591   3.292  0.1095 -0.0129  0.4385
 5816W        W21285  12.910  13.494   4.522 -0.0112  0.0039 -0.1384
 5817W        W21286   9.388  12.975   4.495 -0.0879 -0.2206 -0.2037
 5818W        W21287  18.055   6.533  10.941 -0.1483  0.0936  0.0858
 5819W        W21288   4.796  10.128  12.049  0.0310  0.2107 -0.0102
 5820W        W21289   9.464  15.567   5.326  0.2244  0.1822 -0.1387
 5821W        W21290   1.175  10.946   4.121 -0.2055 -0.1590  0.0832
 5822W        W21291   8.835  17.817   2.059 -0.0439 -0.2227  0.2507
 5823W        W21292  17.856  16.518   4.550  0.1298  0.0919  0.0128
 5824W        W21293   3.602  11.883  11.415  0.1251  0.0630  0.0203
 5825W        W21294  17.642   2.754   3.384  0.2115  0.3833  0.0308
 5826W        W21295   3.973  12.226   4.049  0.1468 -0.2586 -0.3059
 5827W        W21296   7.043  16.409  10.986  0.0828  0.1499  0.4001
 5828W        W21297   4.776   3.108  13.851 -0.0859 -0.4795  0.1383
 5829W        W21298   6.139   8.210  11.999 -0.0594  0.0727 -0.0509
 5830W        W21299   0.355  17.612  12.374  0.0460 -0.0109 -0.1371
 5831W        W21300  10.300  11.276  13.141 -0.0125  0.2803 -0.1583
 5832W        W21301  11.170  16.209   5.287  0.1676 -0.1628  0.1169
 5833W        W21302  14.555   9.540   9.741 -0.1494 -0.0340 -0.1676
 5834W        W21303  16.654  12.174  11.590 -0.2850  0.2649 -0.2879
 5835W        W21304   8.198   8.927  14.542 -0.0063  0.1821  0.0263
 5836W        W21305  16.973   0.842   4.016 -0.2273  0.2326 -0.1695
 5837W        W21306   9.214  17.375   5.031  0.1912 -0.0413 -0.0167
 5838W        W21307  12.627   6.038   0.032 -0.0060  0.0929  0.1504
 5839W        W21308   7.377   3.820  13.506  0.0154 -0.2640  0.0519
 5840W        W21309   7.999   4.270   0.912 -0.4753 -0.3040  0.1917
 5841W        W21310  18.558   4.518  12.924  0.1053  0.1307  0.1120
 5842W        W21311   0.555  11.290   0.227 -0.1122  0.1414 -0.0643
 5843W        W21312   3.496   4.266  11.604 -0.0168 -0.1948  0.0175
 5844W        W21313   9.565  14.232  13.840 -0.0399 -0.1457 -0.0131
 5845W        W21314  17.095  16.296   2.228  0.0059 -0.2695 -0.0718
 5846W        W21315   3.674   7.987  14.374  0.1287  0.1306  0.1445
 5847W        W21316   8.894  18.518   0.122  0.0144  0.1635  0.2129
 5848W        W21317  11.687   3.875   0.624 -0.0168  0.1479 -0.0453
 5849W        W21318   2.115  16.606   3.442 -0.2173 -0.0100  0.0787
 5850W        W21319  15.093  11.813   3.584 -0.2446 -0.3781  0.1224
 5851W        W21320  18.263  13.848  15.154  0.2659 -0.1113  0.2765
 5852W        W21321  16.261  12.599   4.555  0.0193 -0.1642 -0.3210
 5853W        W21322   0.203  15.762   4.576  0.2704  0.1290  0.0967
 5854W        W21323   3.150  16.615  12.331 -0.1205 -0.0643 -0.1998
 5855W        W21324  10.359   6.579   1.435  0.1895 -0.2386 -0.2680
 5856W        W21325   1.956  12.540   2.213 -0.1097 -0.0432 -0.0293
 5857W        W21326  18.573   1.746  14.503  0.0889 -0.0846 -0.0733
 5858W        W21327  13.689   5.341  15.413 -0.1372 -0.1953 -0.1436
 5859W        W21328   2.640   2.943  13.597  0.1427 -0.0145 -0.1666
 5860W        W21329   8.642   0.709  14.959  0.0824 -0.1652  0.0030
 5861W        W21330  12.347   5.073  12.546 -0.0813 -0.1329 -0.3666
 5862W        W21331   7.645  18.388  15.624  0.0280 -0.4605  0.3679
 5863W        W21332   2.102   7.709   3.514  0.0145  0.2218 -0.1379
 5864W        W21333   1.275   9.359   0.170  0.3172 -0.2024 -0.1089
 5865W        W21334  16.185  15.016   2.679 -0.1974  0.0036  0.0700
 5866W        W21335   3.887   2.313  12.488  0.0788 -0.2430 -0.3027
 5867W        W21336   3.791   1.922   3.235 -0.3345 -0.1609  0.0168
 5868W        W21337  13.405  11.237  13.645 -0.0383 -0.0270 -0.0712
 5869W        W21338   0.071  14.843  15.530 -0.3093 -0.0897  0.2159
 5870W        W21339   2.578  15.180   0.932 -0.3650 -0.0651 -0.1906
 5871W        W21340   1.516   0.635  15.374  0.0207  0.3090 -0.2285
 5872W        W21341  13.572  13.915   0.824 -0.1641 -0.0011 -0.3898
 5873W        W21342  12.280  10.938   4.347  0.0025  0.1069  0.2083
 5874W        W21343  17.584  12.293   2.927  0.0007  0.1646  0.0982
 5875W        W21344   7.784  14.595  14.226  0.1253 -0.0103 -0.1455
 5876W        W21345   4.942   6.416  11.934  0.1970  0.1217 -0.2015
 5877W        W21346   1.478  15.435  11.733 -0.1133 -0.3006  0.4974
 5878W        W21347   7.348   8.476   4.285  0.2869 -0.1249 -0.3014
 5879W        W21348   8.684   0.689  13.938  0.1018  0.0840  0.1306
 5880W        W21349  12.521  13.231  13.091  0.0686 -0.0843  0.0643
 5881W        W21350  10.731   6.431  12.521  0.1980  0.0949  0.2134
 5882W        W21351  18.270  17.798   5.351 -0.0671 -0.0327  0.0064
 5883W        W21352  11.852   5.533   1.912  0.0110  0.0976 -0.1927
 5884W        W21353  15.836   6.730   2.450 -0.2032 -0.0363 -0.1363
 5885W        W21354   0.662   2.685  12.632 -0.0302 -0.1177 -0.2015
 5886W        W21355  15.662  17.951   5.403  0.0355  0.2951 -0.1777
 5887W        W21356  17.092  10.799   2.732 -0.0056  0.1302  0.0627
 5888W        W21357   8.976   7.272  14.775 -0.1638 -0.0343 -0.1598
 5889W        W21358  10.108  10.968   6.339  0.1648  0.2629 -0.1331
 5890W        W21359  11.756   7.059  12.710  0.0324 -0.4244  0.3901
 5891W        W21360  17.823  13.109  12.517 -0.2216  0.4661  0.1532
 5892W        W21361   2.313   9.211  14.900  0.1204 -0.1981  0.2421
 5893W        W21362   0.357   7.769   3.296 -0.3766  0.0188 -0.1823
 5894W        W21363  12.332  11.889  15.238  0.1383  0.0231  0.2050
 5895W        W21364   5.568  16.696  12.887  0.2011  0.1865  0.2684
 5896W        W21365  17.056  10.161   0.098 -0.1829 -0.3033 -0.1202
 5897W        W21366   2.943   4.418   3.631 -0.0404 -0.1461 -0.0512
 5898W        W21367   4.662   5.448   4.531 -0.2001  0.2679 -0.1817
 5899W        W21368   1.688   3.393   3.930 -0.0373  0.0264 -0.3303
 5900W        W21369   5.589  18.204  12.983  0.2974 -0.4110  0.1218
 5901W        W21370   2.913  15.134  13.662 -0.0298 -0.0316 -0.1097
 5902W        W21371  10.150   7.143   5.253 -0.2611 -0.1251 -0.0962
 5903W        W21372   7.427   0.664   3.771 -0.1389 -0.1835  0.1404
 5904W        W21373   2.489  15.971   5.156  0.0591  0.0629 -0.4450
 5905W        W21374   7.317  15.430  13.913 -0.1710  0.0985 -0.1012
 5906W        W21375   8.297  14.673   4.932  0.1433 -0.0113 -0.2097
 5907W        W21376  11.939  18.298   1.533  0.0262 -0.4140  0.0553
 5908W        W21377   5.784   1.164   1.164  0.2683  0.1244  0.4475
 5909W        W21378   0.996  11.045   3.241  0.2742 -0.1515  0.4632
 5910W        W21379   0.211  12.086   0.990  0.0421  0.1509 -0.3804
 5911W        W21380  18.228   9.292   1.775  0.0680  0.2341 -0.1362
 5912W        W21381  16.825   1.170  13.969  0.1798  0.3346 -0.1011
 5913W        W21382  11.862   0.306  15.020 -0.0618  0.3887  0.0894
 5914W        W21383   8.032  16.580  14.290  0.1510 -0.1700 -0.2053
 5915W        W21384   9.368   7.521   2.616 -0.1434 -0.1015 -0.2571
 5916W        W21385  17.645  11.684  10.499  0.0881  0.0913  0.1072
 5917W        W21386  10.801  18.275   2.189 -0.0479 -0.1929  0.3793
 5918W        W21387   2.889  11.130  14.346 -0.1997 -0.2116  0.0215
 5919W        W21388   1.019  16.025  14.050  0.0691  0.1266  0.1735
 5920W        W21389   8.278  11.123   5.340 -0.0408  0.0724  0.1750
 5921W        W21390  10.265  13.532   4.880 -0.2087  0.0661  0.2426
 5922W        W21391   2.429   9.942  12.880  0.0367  0.1920  0.0503
 5923W        W21392  13.862   1.034  13.541  0.1979  0.0998  0.2719
 5924W        W21393   0.967  12.908   0.851 -0.0230 -0.0583  0.0463
 5925W        W21394  11.834   4.043  13.181 -0.0029 -0.1717 -0.0672
 5926W        W21395   6.932   2.684  14.459  0.4848  0.1265  0.0556
 5927W        W21396   3.169   0.088   5.575 -0.0895  0.1870  0.2580
 5928W        W21397   2.282   2.976  12.691 -0.4280  0.3032 -0.3681
 5929W        W21398  17.145   3.467  13.953 -0.1439 -0.0930 -0.0286
 5930W        W21399   9.401   4.316   0.642  0.4594  0.3412  0.0022
 5931W        W21400   0.937   1.845   1.574 -0.0452  0.0337 -0.0032
 5932W        W21401  13.446   7.493   3.969  0.0295 -0.0096 -0.1021
 5933W        W21402   1.073  15.844   9.819  0.0052  0.0512  0.0049
 5934W        W21403  17.938   0.225   3.655  0.2014 -0.1369  0.0244
 5935W        W21404   1.819  13.572  10.839  0.1567 -0.3430  0.0962
 5936W        W21405  12.303  14.292   4.662  0.0289 -0.0709  0.0467
 5937W        W21406   8.865  10.980  13.905 -0.1283 -0.0590 -0.0768
 5938W        W21407  16.088   5.979  12.162 -0.0171  0.2936  0.0894
 5939W        W21408  12.330  18.572   3.493  0.1261 -0.1201 -0.1106
 5940W        W21409  11.877   1.708   2.031  0.3742 -0.0631 -0.1519
 5941W        W21410  11.381   8.060   1.512  0.2316  0.1554  0.1609
 5942W        W21411  17.637  17.534  11.771 -0.0595 -0.0777  0.0889
 5943W        W21412  15.999   2.629  11.222  0.3338 -0.4465  0.1544
 5944W        W21413   4.144  15.068   4.138  0.1367 -0.1545  0.0325
 5945W        W21414  12.914  14.704  10.724  0.0464 -0.1651  0.0917
 5946W        W21415   3.520   0.783  15.685  0.2548 -0.0244 -0.1674
 5947W        W21416  11.776   9.204   4.518  0.0745 -0.1788  0.2097
 5948W        W21417   9.954   7.639  15.358 -0.3038  0.2660 -0.0187
 5949W        W21418  13.358  16.490   2.384  0.0400  0.0012 -0.0625
 5950W        W21419  16.177   9.781  13.115  0.4408  0.3119  0.3249
 5951W        W21420   9.696   1.261   0.657 -0.0560  0.2319 -0.1502
 5952W        W21421  16.414  11.762  13.083  0.0450 -0.1152  0.2546
 5953W        W21422  16.014  10.269   0.175  0.1605  0.0378 -0.0506
 5954W        W21423   8.934   8.012   3.402 -0.2707 -0.1309  0.3193
 5955W        W21424  13.129  16.658   0.199 -0.0813 -0.1969 -0.1626
 5956W        W21425   7.484  16.750  15.556  0.1216  0.0671 -0.0872
 5957W        W21426  10.201   6.207   3.902  0.0865 -0.0659 -0.0781
 5958W        W21427  10.565   2.419  15.177  0.1987  0.1050 -0.1160
 5959W        W21428   1.510   8.942   3.559  0.0409  0.1228 -0.0530
 5960W        W21429   7.558  15.781   5.526  0.0998 -0.1936 -0.1048
 5961W        W21430  12.627   4.864   2.223 -0.3098  0.3737  0.0776
 5962W        W21431  15.737   7.424  13.766  0.0588 -0.0283 -0.1212
 5963W        W21432  11.317   4.798   2.278  0.3031 -0.0316 -0.1240
 5964W        W21433  18.271  10.160  12.301 -0.0063 -0.1749 -0.5280
 5965W        W21434   0.125  14.069   3.324  0.0992 -0.0700  0.0390
 5966W        W21435   7.554  11.960   1.315  0.3808  0.1643 -0.2875
 5967W        W21436   4.641  11.462  11.632 -0.1610 -0.2362 -0.0247
 5968W        W21437   4.918   8.925  15.623 -0.3658  0.0275  0.0327
 5969W        W21438  16.615  14.588  11.444  0.1517  0.4247 -0.0958
 5970W        W21439   5.205   0.649  13.058 -0.0110 -0.2317 -0.1534
 5971W        W21440  13.199  14.495   1.701 -0.0027  0.2580  0.1257
 5972W        W21441  10.754   3.526   1.373  0.2631  0.1073 -0.2886
 5973W        W21442  15.064   0.273   1.277 -0.2222  0.0846 -0.2402
 5974W        W21443  12.143   1.269  13.457 -0.1510 -0.0269  0.0198
 5975W        W21444   5.050   7.030  14.515 -0.0569  0.2278 -0.1722
 5976W        W21445  13.322  15.698  10.999  0.3099  0.0633  0.2213
 5977W        W21446  15.974  13.460  10.994  0.0117  0.0734 -0.3432
 5978W        W21447   1.441   1.467  13.059  0.2495  0.3667  0.4538
 5979W        W21448   0.212   8.165  15.334 -0.4019 -0.1682  0.1830
 5980W        W21449   1.747  17.130  11.905 -0.1379  0.1667  0.0002
 5981W        W21450  17.761   7.054  13.084 -0.1681  0.4441  0.1670
 5982W        W21451   3.134   2.837   2.080 -0.1029 -0.1839 -0.1308
 5983W        W21452  12.267   4.734   1.475  0.0240 -0.0094  0.2298
 5984W        W21453   3.478  14.295  12.928 -0.0172 -0.1572 -0.0323
 5985W        W21454   7.500  10.961  11.748 -0.3831  0.1088  0.1648
 5986W        W21455   3.727   2.929  13.235 -0.4336  0.2173 -0.1599
 5987W        W21456   3.688  10.562   3.032 -0.2906 -0.0788 -0.1034
 5988W        W21457   5.048  10.820   4.937  0.2527 -0.1268 -0.0043
 5989W        W21458  15.314   7.620  12.077 -0.0450 -0.0574 -0.0074
 5990W        W21459   0.818   9.798  14.685  0.1593 -0.0503  0.0935
 5991W        W21460   3.820   9.653   2.853  0.0715 -0.0524  0.0207
 5992W        W21461  18.334   3.833   2.545 -0.0334  0.1756 -0.2691
 5993W        W21462  17.738   7.625  13.932 -0.2353  0.2221  0.2038
 5994W        W21463   1.920  18.395  11.992  0.1110  0.3556  0.2707
 5995W        W21464  13.617  15.056   2.328  0.0215  0.1417  0.4580
 5996W        W21465   7.376   1.994   3.856  0.1244 -0.3785 -0.2235
 5997W        W21466  18.142   0.235  15.327  0.0444  0.0871  0.1679
 5998W        W21467   1.333  10.162  13.404 -0.2819  0.0357 -0.0855
 5999W        W21468   7.963   7.677   3.531  0.3193  0.0696  0.0427
 6000W        W21469  16.775   6.712  11.165  0.0779  0.2813  0.2018
 6001W        W21470  13.882  15.374   5.740  0.1587  0.0164 -0.1696
 6002W        W21471  18.419  13.611  12.179 -0.1923  0.0807 -0.1129
 6003W        W21472   1.861   7.329   0.477  0.1166  0.0529 -0.1175
 6004W        W21473   6.709  10.662  13.292  0.1506 -0.2417 -0.2401
 6005W        W21474   5.790  18.492  10.917  0.0449 -0.0551  0.1467
 6006W        W21475   9.423  18.602   1.574  0.0746 -0.2104  0.0301
 6007W        W21476   3.931   3.605  12.784 -0.1637 -0.2403 -0.2322
 6008W        W21477  10.865   7.070   0.582  0.1945  0.2340  0.1825
 6009W        W21478   1.261  10.621   3.221 -0.1170 -0.1960 -0.0351
 6010W        W21479   2.466  15.466   3.139 -0.1159 -0.0592  0.0253
 6011W        W21480   9.414  16.452  12.695  0.0901 -0.0815 -0.0818
 6012W        W21481   4.443  11.026  15.648 -0.1845  0.2357 -0.0380
 6013W        W21482  14.514   5.832  11.793  0.1965 -0.1653  0.0421
 6014W        W21483   3.213   7.921  12.822  0.0377 -0.0305 -0.2801
 6015W        W21484   6.820   1.744   9.748 -0.0674 -0.0491  0.0141
 6016W        W21485  10.580  10.045   2.591 -0.0824  0.0327  0.0636
 6017W        W21486   3.296  11.425   1.117  0.1254  0.0433 -0.2059
 6018W        W21487   7.979  11.523   3.091  0.1105  0.2657  0.2879
 6019W        W21488  13.105   6.471  13.561 -0.1301 -0.0608 -0.1345
 6020W        W21489  16.436   1.144   2.515 -0.1600  0.0201  0.0508
 6021W        W21490   2.381  11.807  15.380  0.1759  0.1925  0.0345
 6022W        W21491   7.838  15.094   2.322 -0.1084 -0.2065  0.0663
 6023W        W21492   2.221   0.121  12.005  0.0938  0.1032 -0.1567
 6024W        W21493  15.092   1.355  12.429  0.1849  0.2028 -0.0807
 6025W        W21494   1.886  14.781  12.282  0.0632  0.0315  0.0997
 6026W        W21495  12.251   9.419   3.675  0.1984  0.1122  0.1356
 6027W        W21496   6.706   5.931   0.710 -0.0361  0.2482 -0.0132
 6028W        W21497  17.421  15.722  11.252 -0.2457  0.0028  0.1820
 6029W        W21498   1.720   0.885  11.298  0.0860 -0.0122 -0.1112
 6030W        W21499   3.409  13.150   1.245 -0.0087 -0.5180 -0.2653
 6031W        W21500   4.578   0.955   4.713 -0.3219  0.0037  0.0252
 6032W        W21501  14.566   2.079   1.564 -0.0732 -0.2150  0.3303
 6033W        W21502  16.576  10.941  11.243  0.0410  0.3746  0.0252
 6034W        W21503  11.668  14.518  14.699 -0.0164  0.0487 -0.2480
 6035W        W21504   0.030  14.863  15.033 -0.1322 -0.0384 -0.0647
 6036W        W21505   4.156  12.315   0.782 -0.2267  0.2346  0.2006
 6037W        W21506   0.122  16.470   1.988  0.0010  0.3015  0.1345
 6038W        W21507  12.393   2.706  15.699  0.0673 -0.0560  0.1602
 6039W        W21508  18.266   2.307  13.730  0.0228 -0.0941 -0.1212
 6040W        W21509  11.066   4.706  11.662 -0.3649 -0.2693 -0.1936
 6041W        W21510   1.156   0.404  13.050 -0.1699 -0.1074  0.1574
 6042W        W21511  12.719   9.367   4.491 -0.4981  0.0223  0.1840
 6043W        W21512   1.873   0.684  13.585  0.1643  0.0299 -0.2259
 6044W        W21513   7.956   7.357   2.433 -0.0352 -0.0417 -0.1772
 6045W        W21514   2.657  15.645   1.149  0.2430  0.1190 -0.1903
 6046W        W21515   9.034  16.716  15.775 -0.0974  0.0922 -0.1026
 6047W        W21516  15.425   2.863  11.952  0.1433 -0.0384  0.4326
 6048W        W21517   0.623   2.325   2.871 -0.3002 -0.0848  0.0451
 6049W        W21518   7.293  11.035  12.999  0.0526  0.0343 -0.1426
 6050W        W21519  11.801  18.049   2.845 -0.1146  0.0772  0.0301
 6051W        W21520  10.632   4.809   4.327  0.1971  0.2875  0.0854
 6052W        W21521  18.615   7.733   1.735 -0.0158  0.2712  0.3061
 6053W        W21522  15.559  10.651   5.538  0.1657  0.4805 -0.0915
 6054W        W21523   8.886  12.026  14.669  0.0635 -0.1470  0.0840
 6055W        W21524  12.109   7.344  13.863 -0.0636  0.0637  0.0637
 6056W        W21525   3.244  15.834   6.017  0.2346  0.1923  0.2074
 6057W        W21526   0.661   3.699   0.026  0.0769  0.1123 -0.2237
 6058W        W21527  13.861   8.023   1.521  0.0243  0.2880  0.0565
 6059W        W21528   8.250   7.607  10.869 -0.1173 -0.1417  0.2519
 6060W        W21529  12.788  18.613  15.249  0.2621  0.0984 -0.3583
 6061W        W21530  14.478   3.307  13.256  0.1735  0.0273  0.2044
 6062W        W21531  14.675   5.247  15.598  0.1627 -0.0315  0.1309
 6063W        W21532   6.064   4.684   1.287 -0.3459 -0.1289  0.2384
 6064W        W21533   7.124  12.916  12.527  0.0129 -0.0338  0.1849
 6065W        W21534   5.118  12.231   5.154 -0.2383  0.3885  0.2675
 6066W        W21535  14.406  10.729  15.662 -0.0946 -0.0377 -0.0785
 6067W        W21536   6.373  10.679   4.708 -0.5851 -0.3289 -0.0773
 6068W        W21537   3.485   0.557   1.817 -0.0896 -0.0127 -0.1906
 6069W        W21538   3.486   1.942  14.809  0.0122 -0.0465  0.0466
 6070W        W21539   2.847   0.139  15.018 -0.1282 -0.2233  0.2756
 6071W        W21540   8.707  17.566  15.035 -0.0281  0.0297  0.0715
 6072W        W21541   6.495   6.446   0.730 -0.1899 -0.0860 -0.0952
 6073W        W21542  15.487   0.739   0.060 -0.0705  0.0504  0.0591
 6074W        W21543   9.370   3.003   5.990  0.0442  0.0123 -0.0007
 6075W        W21544   2.273   4.695  10.894 -0.0208  0.2728  0.1514
 6076W        W21545   9.417  14.165   3.449 -0.0238 -0.3381  0.1619
 6077W        W21546  14.903  14.132  12.125 -0.2798  0.0608  0.0547
 6078W        W21547  15.594   1.068  13.635 -0.2571 -0.1261  0.2484
 6079W        W21548  11.699   9.699   2.829  0.1357 -0.0230 -0.2858
 6080W        W21549  15.895  12.755   4.862 -0.0444  0.4633 -0.1183
 6081W        W21550  11.175   7.581   1.625 -0.3407  0.0014  0.0707
 6082W        W21551  16.593   2.545   4.981  0.3650 -0.0090 -0.2137
 6083W        W21552   9.493   1.792   4.309 -0.4378 -0.0931  0.0889
 6084W        W21553  15.405  10.512  11.223 -0.2431 -0.1498  0.1773
 6085W        W21554  17.692  16.264   4.008  0.0086  0.2590  0.1892
 6086W        W21555   5.148  16.509   3.426 -0.0379  0.1801  0.0850
 6087W        W21556  17.559   2.642  11.476  0.0032  0.1145 -0.4848
 6088W        W21557  11.217   6.577   5.375 -0.0839 -0.0077 -0.0196
 6089W        W21558   0.370  11.033  14.157 -0.1096  0.0135  0.1447
 6090W        W21559   7.489  16.329  12.798 -0.2126 -0.0003 -0.2900
 6091W        W21560  14.016  14.528  13.783  0.1110 -0.0132 -0.0336
 6092W        W21561   1.386  14.273   1.033 -0.0459 -0.1420  0.0704
 6093W        W21562  14.896  11.326   5.555  0.0990  0.0869 -0.4910
 6094W        W21563   0.659   3.176  15.591 -0.1246 -0.0896  0.4270
 6095W        W21564   3.431   6.830   4.646 -0.0655 -0.3248 -0.0118
 6096W        W21565   8.374   2.553   0.733 -0.0592  0.4940 -0.0113
 6097W        W21566  16.692  10.297  11.261  0.0349 -0.0093  0.0764
 6098W        W21567   1.622   7.484   0.935 -0.0553 -0.1083 -0.1559
 6099W        W21568  11.297   7.297  15.030 -0.0702  0.3527  0.0087
 6100W        W21569   8.954  12.772  11.655  0.0268 -0.4090  0.0308
 6101W        W21570   2.334   4.973   4.058 -0.4711 -0.0988 -0.0287
 6102W        W21571   4.892  11.435   3.733 -0.1534  0.0576 -0.2154
 6103W        W21572  13.365  16.783   5.581  0.1117 -0.0336  0.4820
 6104W        W21573  12.446   2.272  10.562  0.2135 -0.2393 -0.1335
 6105W        W21574   2.562  16.511   3.631 -0.0680  0.0704 -0.1162
 6106W        W21575  17.656  16.809  11.118  0.1018  0.1552 -0.0066
 6107W        W21576  17.034  16.742  13.806 -0.1928 -0.0391  0.1681
 6108W        W21577   5.780   4.999   5.044  0.0791 -0.1207 -0.1386
 6109W        W21578   2.391   3.500   4.385 -0.1605  0.2702 -0.0177
 6110W        W21579   1.971   3.777   1.656 -0.2843  0.1610  0.3099
 6111W        W21580  11.187   9.692  10.979 -0.1714  0.0539 -0.3327
 6112W        W21581   7.104   1.213  11.434  0.0125  0.3039  0.0991
 6113W        W21582  11.348  14.053   1.882  0.1514 -0.1153 -0.0681
 6114W        W21583   3.855  10.705   1.927 -0.0690  0.1885  0.0185
 6115W        W21584   7.108  11.089  11.981 -0.0973  0.3470  0.3273
 6116W        W21585   8.087  12.727  13.571  0.2371 -0.0904 -0.0088
 6117W        W21586  14.567   6.962   2.827  0.1690  0.0201  0.1008
 6118W        W21587   4.825  13.202   0.010 -0.1151  0.2929  0.0255
 6119W        W21588   3.857   5.859  13.638 -0.0511  0.1398 -0.1120
 6120W        W21589   8.819  17.669   1.070 -0.0478  0.0262  0.1344
 6121W        W21590   5.159  16.615   2.391 -0.0562  0.0503  0.1071
 6122W        W21591   6.496   5.018  11.737  0.0529  0.0861  0.0365
 6123W        W21592  12.107  18.460   5.599 -0.1273  0.1955 -0.1401
 6124W        W21593  15.093  18.064  15.630 -0.3312 -0.1566 -0.2907
 6125W        W21594   4.606  13.960   4.594 -0.0389 -0.1198 -0.4826
 6126W        W21595  14.574   2.823  14.736  0.2172  0.0281 -0.1464
 6127W        W21596   1.939   9.149   3.693  0.0824 -0.1976  0.5475
 6128W        W21597   7.031   5.984   9.724  0.1884  0.1990 -0.0201
 6129W        W21598   8.158  18.008  11.860  0.2844  0.1168 -0.1327
 6130W        W21599  10.774  17.562   1.055 -0.0329 -0.2102  0.0267
 6131W        W21600   3.068  17.344  13.892 -0.2409  0.2675 -0.1418
 6132W        W21601  11.973  11.973  12.900  0.0688  0.0500 -0.0051
 6133W        W21602   4.895  16.039  11.379  0.0219 -0.1738  0.1690
 6134W        W21603  17.428  10.247   4.278 -0.1796  0.0130 -0.0823
 6135W        W21604  12.524   8.034   3.783 -0.0218  0.1127 -0.0321
 6136W        W21605   4.849  12.637  10.586  0.1046 -0.4542  0.0242
 6137W        W21606  16.531  13.195  10.948 -0.0768  0.0524 -0.0930
 6138W        W21607  16.102  11.694  11.195 -0.1716 -0.0468  0.1091
 6139W        W21608   1.895   4.485   1.095 -0.3582 -0.0740  0.0497
 6140W        W21609   5.071  17.299  10.325 -0.1074  0.2105  0.0876
 6141W        W21610  13.339  11.806   0.105 -0.3675  0.3216 -0.0387
 6142W        W21611   1.664   7.381  15.166  0.1342 -0.0945 -0.0541
 6143W        W21612   1.994   5.093   2.822  0.2455  0.0826  0.0977
 6144W        W21613  14.662  17.549   4.456 -0.1474 -0.1470 -0.1472
 6145W        W21614  18.422   0.051   1.454 -0.1775  0.2566  0.1834
 6146W        W21615   5.517  18.453  14.836 -0.0451 -0.0369 -0.0888
 6147W        W21616   3.295  12.240  13.989  0.2380  0.1354 -0.0305
 6148W        W21617   3.839  18.123   5.158  0.0809 -0.3182 -0.2532
 6149W        W21618   9.392  17.365  11.238 -0.1629  0.0707  0.0831
 6150W        W21619  15.955  10.691   2.831 -0.2291 -0.1097 -0.2403
 6151W        W21620  11.144  13.407   0.176 -0.2238 -0.0218 -0.0668
 6152W        W21621  11.311   9.141  13.669 -0.0975 -0.0320  0.1758
 6153W        W21622   7.302  10.054  14.277 -0.0705  0.4788 -0.2086
 6154W        W21623   9.990  11.335  12.069  0.0784  0.0255 -0.0841
 6155W        W21624   9.080   8.127   2.109  0.0867  0.0415  0.0233
 6156W        W21625   0.762   6.864  15.668  0.0474 -0.0879 -0.0204
 6157W        W21626  18.444   7.609   0.356 -0.0718  0.0428  0.1664
 6158W        W21627   8.414   1.013   4.851  0.1504 -0.3846 -0.1491
 6159W        W21628   0.022  12.308   4.007  0.3719 -0.3083  0.0260
 6160W        W21629   0.503  14.630  15.216  0.5108 -0.0397 -0.1623
 6161W        W21630   5.928   7.468  13.426  0.0981 -0.2361 -0.0071
 6162W        W21631   0.406   5.311  13.586  0.2091  0.0056  0.0526
 6163W        W21632   8.733  11.849   3.784 -0.1898 -0.1260 -0.0546
 6164W        W21633   3.252   4.709  13.443 -0.2344 -0.1432  0.3115
 6165W        W21634   9.555   8.476   0.832 -0.1921  0.0082  0.2476
 6166W        W21635  14.657  18.172  12.553 -0.2095  0.2450 -0.0443
 6167W        W21636   9.400   3.700   5.096 -0.0862 -0.0463  0.0606
 6168W        W21637  13.289   4.179   2.382 -0.1174  0.0347  0.1803
 6169W        W21638   1.385  11.214  12.580  0.0310  0.1051  0.1098
 6170W        W21639  13.369  12.743   4.509  0.0123  0.0528 -0.1084
 6171W        W21640   8.908  17.728  13.305 -0.2249 -0.0310 -0.3831
 6172W        W21641  11.032  10.517   5.275  0.0961 -0.1686 -0.2431
 6173W        W21642  10.454  10.270  15.129  0.2271 -0.0080 -0.2311
 6174W        W21643   2.042   9.210  11.721  0.2730  0.1559 -0.0182
 6175W        W21644  13.982   8.372   2.813  0.0389  0.0270  0.1443
 6176W        W21645  10.015   8.556  11.829 -0.0106  0.0024 -0.3629
 6177W        W21646   7.675   9.739   2.455  0.3578  0.0094 -0.0509
 6178W        W21647   2.967   5.842   2.501 -0.2834 -0.1827 -0.1049
 6179W        W21648  10.647   5.370   3.600  0.0607  0.0369 -0.1160
 6180W        W21649  12.389  16.206   4.145 -0.0962 -0.3610  0.1284
 6181W        W21650   6.779   9.240  12.586 -0.0474  0.1910 -0.0498
 6182W        W21651  17.080  15.115  13.900 -0.2954 -0.3850 -0.4402
 6183W        W21652  10.990   5.494  14.217  0.3658  0.3717 -0.2228
 6184W        W21653  10.253   6.291   0.385  0.0592 -0.3283  0.2271
 6185W        W21654   9.624   7.711  11.646 -0.1798  0.3925 -0.0503
 6186W        W21655   0.888   8.291  15.561 -0.2839 -0.1243 -0.1963
 6187W        W21656  15.660  15.308  11.814  0.2058 -0.1547 -0.3872
 6188W        W21657   7.959   6.118   3.076 -0.2087  0.0359  0.2931
 6189W        W21658   9.056   4.311   4.416  0.1306 -0.1697 -0.0702
 6190W        W21659   3.853   8.243  14.000 -0.2477 -0.0312 -0.1031
 6191W        W21660   8.170  15.595   0.269  0.1249  0.2503  0.1261
 6192W        W21661   5.537  14.247   0.194  0.2347  0.0269  0.2117
 6193W        W21662   9.599  11.937   3.346  0.0907  0.0943 -0.2983
 6194W        W21663   3.622   8.262  14.865 -0.1623  0.3661 -0.0216
 6195W        W21664  11.182   7.372   0.366 -0.2330  0.1705  0.0420
 6196W        W21665   2.213   7.388   4.390  0.1566 -0.2761  0.0160
 6197W        W21666  15.058   6.929  13.711  0.1467 -0.3423 -0.3374
 6198W        W21667   6.368  12.512   3.345  0.0565  0.1216  0.0453
 6199W        W21668   6.491   3.136  10.684  0.4306 -0.0771  0.2193
 6200W        W21669  14.992   3.194  13.092  0.1956  0.1191  0.2930
 6201W        W21670  15.068  16.081   5.604  0.0441 -0.3841 -0.1873
 6202W        W21671  10.581   5.803  15.656  0.0186 -0.3318  0.0653
 6203W        W21672  11.075   8.607   3.814 -0.0162 -0.1214 -0.0026
 6204W        W21673  16.918  14.482  14.412  0.0374  0.0396 -0.0071
 6205W        W21674  13.099   7.776   2.034 -0.1038 -0.0362  0.3547
 6206W        W21675   9.115  17.436   0.640  0.0010  0.0494 -0.1258
 6207W        W21676  17.280  18.244   9.590 -0.1958 -0.0484 -0.2254
 6208W        W21677  17.313  14.574   2.224  0.0553 -0.0869 -0.3466
 6209W        W21678   0.462  13.509  12.998  0.1764  0.0822  0.3080
 6210W        W21679   9.596   4.363   5.138  0.0471  0.3049  0.1836
 6211W        W21680   2.834   8.268   1.838  0.0414 -0.0886 -0.3077
 6212W        W21681  10.429   0.856   1.860  0.1987  0.1400  0.2265
 6213W        W21682   4.593  10.611   0.756 -0.0894  0.0207  0.2984
 6214W        W21683  12.651  12.786   0.567  0.0796  0.2440 -0.1375
 6215W        W21684  10.773   1.760   2.622 -0.2079 -0.1083  0.0372
 6216W        W21685  13.904   3.391   1.416 -0.3201 -0.1647 -0.0576
 6217W        W21686   0.717  14.877  10.536  0.1401  0.0555 -0.1273
 6218W        W21687  12.934   6.516  14.415  0.2271 -0.1220 -0.1824
 6219W        W21688  10.793   8.188  13.542  0.2742  0.1803 -0.1181
 6220W        W21689   4.565   5.196   3.482  0.1131  0.1011  0.0585
 6221W        W21690   7.751   2.171   0.515  0.0764  0.1960 -0.0211
 6222W        W21691  18.086  16.635  12.581  0.0648  0.1112  0.1469
 6223W        W21692   3.932  17.321   4.786  0.1660 -0.1789 -0.1015
 6224W        W21693   7.734   5.199  12.969  0.6119 -0.1258 -0.1071
 6225W        W21694   3.647  12.764  12.913 -0.1215 -0.0886 -0.3748
 6226W        W21695   8.978  17.974  10.197 -0.2155  0.0320  0.4005
 6227W        W21696  10.195  10.848   4.963  0.0175 -0.3501 -0.0891
 6228W        W21697   9.860   2.634  13.719 -0.2195  0.1045  0.2288
 6229W        W21698  13.937  15.124   4.022  0.3008 -0.2048  0.0700
 6230W        W21699  16.585  13.203  13.113  0.1719  0.3729  0.0537
 6231W        W21700   4.469  12.397   3.946  0.0293 -0.4135  0.1156
 6232W        W21701  10.789   1.441   5.399 -0.2077  0.0012  0.2478
 6233W        W21702  10.300   3.560  11.992  0.0356 -0.6925 -0.3710
 6234W        W21703   7.092  16.899   2.539 -0.1440 -0.2310 -0.0509
 6235W        W21704  11.188  11.676  14.055 -0.1913  0.2448 -0.1099
 6236W        W21705   1.882   6.851  15.013 -0.2725  0.1297  0.0617
 6237W        W21706  18.010  11.199  14.871  0.2198  0.2419 -0.0580
 6238W        W21707  12.558   4.619   3.009  0.0927 -0.3569 -0.1544
 6239W        W21708   8.133   9.463  11.204  0.1382  0.4194 -0.2826
 6240W        W21709  13.926   0.883  14.282 -0.1589 -0.0304 -0.1569
 6241W        W21710   6.165   6.567  11.481  0.3145  0.0349 -0.0019
 6242W        W21711   8.294  11.408   0.495 -0.1674 -0.1613  0.3045
 6243W        W21712  10.956  15.193   2.739 -0.1422 -0.1156  0.1983
 6244W        W21713   8.795   7.465  11.061 -0.1885  0.0034 -0.2794
 6245W        W21714  15.519  10.085  15.306  0.2605 -0.3197  0.2218
 6246W        W21715  14.048   0.653  13.809 -0.1766  0.1674 -0.0240
 6247W        W21716   3.111   3.732   3.219  0.1139 -0.2800  0.0304
 6248W        W21717  13.949  15.692  12.014  0.0326  0.2023  0.1965
 6249W        W21718  17.198  11.944   2.786 -0.1521  0.1282  0.4791
 6250W        W21719   3.454   1.455  14.436  0.2123  0.1636  0.0309
 6251W        W21720  18.403   4.844   2.258 -0.0455  0.1285 -0.0106
 6252W        W21721   9.705  13.590   2.251  0.1750  0.2511  0.1076
 6253W        W21722   6.904  12.374  15.615  0.0249  0.1154 -0.1770
 6254W        W21723   0.221  16.785   3.671 -0.0868 -0.2026 -0.2945
 6255W        W21724  11.060   4.868   6.616 -0.1600  0.3282  0.0897
 6256W        W21725   5.593   2.361   3.642  0.0043  0.1862 -0.2083
 6257W        W21726   2.881   0.270  12.778 -0.1101 -0.2319  0.2371
 6258W        W21727  10.914   6.107  13.245 -0.0348  0.0840  0.2177
 6259W        W21728   7.503  14.359  14.787 -0.2301 -0.2542  0.1457
 6260W        W21729   4.825  11.810   1.295  0.0285 -0.2280  0.1249
 6261W        W21730   4.546  18.418  15.328  0.2177 -0.1135 -0.1580
 6262W        W21731   2.555  14.907   2.088  0.4999 -0.3936  0.2944
 6263W        W21732  17.887   0.430   5.748  0.1077 -0.3176 -0.2388
 6264W        W21733   9.418   5.354   3.480 -0.0749  0.0792  0.1241
 6265W        W21734   5.349   8.862  12.861  0.0153 -0.0392 -0.0893
 6266W        W21735  11.396  17.877   3.237 -0.0594  0.3021  0.0065
 6267W        W21736   7.062  10.104   3.184  0.2145 -0.0052 -0.0431
 6268W        W21737   9.171  16.133  10.993  0.1671  0.1537  0.0349
 6269W        W21738  16.052  12.054   5.422  0.0058  0.3296 -0.2599
 6270W        W21739   4.607   2.185   0.261  0.0173 -0.2615 -0.0268
 6271W        W21740  10.659   8.640  13.329  0.1736 -0.1627 -0.0111
 6272W        W21741   6.953   6.124  14.243 -0.3451 -0.1123 -0.0637
 6273W        W21742   5.754   7.087   1.025 -0.0524  0.0885  0.3628
 6274W        W21743  10.191   5.922  11.888 -0.1066 -0.1067 -0.2818
 6275W        W21744   3.426   2.566   1.487  0.1190 -0.1528  0.1457
 6276W        W21745  10.152  11.683  14.036 -0.0789 -0.0352 -0.0501
 6277W        W21746   0.267   9.583  14.758 -0.2018  0.2045  0.2386
 6278W        W21747  14.827   3.065   4.543 -0.0232 -0.0408  0.0885
 6279W        W21748  12.507  10.259  14.959 -0.1013 -0.1014  0.2611
 6280W        W21749  10.792   6.782  13.835 -0.1805 -0.4011 -0.0404
 6281W        W21750   9.190  11.789   5.138 -0.1362  0.3594  0.2289
 6282W        W21751   6.844  15.532  13.184  0.0732 -0.2046 -0.1700
 6283W        W21752   6.447  16.509  15.291  0.2030  0.0873 -0.0261
 6284W        W21753   7.718  12.953  10.386  0.1206  0.3834  0.0201
 6285W        W21754   9.070   6.037  12.014  0.1124 -0.2941 -0.2448
 6286W        W21755   2.186  13.515   4.147  0.0633 -0.0740 -0.0045
 6287W        W21756   3.493   0.753  13.067  0.0522 -0.1955  0.0488
 6288W        W21757  15.101  10.790   5.683  0.1331 -0.0622 -0.1678
 6289W        W21758  12.038   7.722   0.780  0.0216 -0.0315  0.0630
 6290W        W21759  11.909   7.196  11.983 -0.1242 -0.1697 -0.2889
 6291W        W21760   4.288  14.943   2.205 -0.0104 -0.2451  0.0904
 6292W        W21761  18.413   9.244  10.942  0.1325  0.1833 -0.1263
 6293W        W21762  16.673  10.123   1.270  0.1426  0.0034  0.3460
 6294W        W21763   4.531  15.540  14.293  0.1896  0.3999  0.1056
 6295W        W21764  12.121   1.142   5.800  0.0994 -0.0236 -0.0109
 6296W        W21765   4.075   8.325  13.260 -0.0430 -0.1434  0.2126
 6297W        W21766  14.975   6.462   2.033  0.1696 -0.1276 -0.1182
 6298W        W21767   8.032   3.613   1.866 -0.2057  0.1551 -0.2277
 6299W        W21768  10.279   7.164  13.985  0.0543 -0.0819  0.3449
 6300W        W21769   2.394   0.345   1.642 -0.1001 -0.1681 -0.2086
 6301W        W21770   6.123   2.248   2.332  0.2688  0.0194  0.0904
 6302W        W21771   9.444  12.778   2.173 -0.1148  0.2115  0.0705
 6303W        W21772   7.519  17.283  11.112 -0.3684 -0.0934  0.3670
 6304W        W21773  16.282   0.183  14.505 -0.0857 -0.2504 -0.0863
 6305W        W21774  14.188  16.948   5.481 -0.2935  0.0396 -0.2601
 6306W        W21775   2.785   8.643  11.589  0.0180 -0.3608  0.0431
 6307W        W21776  15.114   8.653   4.806  0.2402  0.0955  0.1172
 6308W        W21777  17.576   8.423  14.785 -0.1197 -0.0577 -0.0169
 6309W        W21778   1.359   1.762   5.457  0.1862  0.3556  0.0510
 6310W        W21779   3.726  14.908  11.990  0.0144  0.0302 -0.0355
 6311W        W21780   3.681   6.951   4.223 -0.1808 -0.0585  0.0115
 6312W        W21781   5.105   3.741   2.836 -0.1454  0.0370  0.0478
 6313W        W21782  12.107   0.044  14.293  0.1529  0.3243 -0.0254
 6314W        W21783   8.691  13.636  11.056 -0.0641  0.1850 -0.1374
 6315W        W21784  14.773   2.512   4.865 -0.0741  0.1929 -0.0454
 6316W        W21785  12.344   8.081   4.267  0.0978  0.2594  0.4254
 6317W        W21786  10.634   4.555   2.951 -0.0304  0.0427  0.1256
 6318W        W21787   5.364  12.930  12.346 -0.0739  0.0452  0.0613
 6319W        W21788   9.546   0.197  12.991 -0.2946  0.3645 -0.0693
 6320W        W21789  14.592  10.721   3.676 -0.1634 -0.2295  0.2932
 6321W        W21790   8.320  14.665   1.117  0.2046  0.1783  0.0397
 6322W        W21791  12.873   6.512   4.944 -0.1990  0.3858  0.1536
 6323W        W21792  12.499   9.436  11.357 -0.0337  0.1013  0.3858
 6324W        W21793  11.423  15.707  15.256 -0.2700  0.0628 -0.1972
 6325W        W21794   9.684   8.917   3.727 -0.3195 -0.4816  0.1893
 6326W        W21795  11.016   3.700  14.333 -0.0266  0.0066 -0.0502
 6327W        W21796  15.855  11.049  11.962 -0.1827 -0.2133  0.0356
 6328W        W21797   5.578   8.785  14.916  0.0053 -0.1504  0.1842
 6329W        W21798   3.778   0.067  12.296 -0.0813 -0.5384 -0.0855
 6330W        W21799  12.577  12.312   3.822  0.0264 -0.1156  0.0552
 6331W        W21800   2.383   1.766   2.257 -0.3025 -0.2048  0.2147
 6332W        W21801   7.963   1.365   0.400  0.3380  0.1327  0.1187
 6333W        W21802  16.728   9.068  12.520  0.0597  0.2482 -0.0152
 6334W        W21803   5.896   0.343   9.832 -0.3936 -0.0434  0.2614
 6335W        W21804  15.121  11.654   3.033  0.0740  0.3271 -0.0776
 6336W        W21805   2.110   6.368   4.585 -0.0838  0.0808 -0.0484
 6337W        W21806   2.771   9.710  13.252  0.1419 -0.2448 -0.1035
 6338W        W21807  10.679  12.349   2.174 -0.1169  0.2642 -0.1511
 6339W        W21808   0.923   4.898   0.694  0.1097  0.0937  0.1303
 6340W        W21809   0.296   1.206   5.542 -0.1078 -0.3358  0.1999
 6341W        W21810  11.060   9.529   5.050 -0.1443  0.2963  0.1723
 6342W        W21811  13.255  17.139   0.117 -0.0263  0.0617  0.0738
 6343W        W21812  13.134   7.798  13.830 -0.2908 -0.0194 -0.0092
 6344W        W21813   1.846   3.726   1.132 -0.0394  0.0639  0.2869
 6345W        W21814   8.924   1.935   2.515 -0.0288 -0.2821  0.0161
 6346W        W21815  16.378   8.671  11.670 -0.1294  0.2309  0.1036
 6347W        W21816  10.057   0.299  10.853 -0.2017  0.1251 -0.2099
 6348W        W21817   3.601   5.847   0.911  0.0497  0.2040  0.2106
 6349W        W21818   7.016   9.746  14.574 -0.0139 -0.2323  0.0418
 6350W        W21819   5.797   9.107   5.092  0.1899 -0.1129 -0.1857
 6351W        W21820  18.271  16.810   2.712 -0.2965  0.1635  0.1035
 6352W        W21821  17.805   0.485   2.712 -0.0893  0.0892 -0.3941
 6353W        W21822  15.483  12.289  10.840 -0.0922 -0.3067  0.2330
 6354W        W21823   4.131   8.483   3.778 -0.1955  0.0159 -0.3221
 6355W        W21824   3.139   6.034   4.637  0.1584 -0.0529 -0.0326
 6356W        W21825   6.853  16.498   3.221  0.1854 -0.0119 -0.2379
 6357W        W21826   1.748  10.651   1.144 -0.1905 -0.0885  0.1399
 6358W        W21827  12.142  12.330  11.349 -0.0881  0.1371  0.2429
 6359W        W21828   6.188  12.619  14.049 -0.1685  0.0442 -0.1275
 6360W        W21829  15.100  13.315  15.775 -0.1831 -0.2053 -0.0887
 6361W        W21830   4.384   1.842   1.013  0.1427 -0.0107 -0.0466
 6362W        W21831  18.598   6.416   3.957  0.1312  0.1087 -0.5107
 6363W        W21832   5.571  13.875   5.301  0.2230 -0.0776  0.1522
 6364W        W21833  12.588   6.544   2.999 -0.0443 -0.0016 -0.0092
 6365W        W21834  18.497  17.943   0.143 -0.0612 -0.0044 -0.0696
 6366W        W21835   6.466  12.619  15.729  0.1825  0.1265 -0.0795
 6367W        W21836   2.427  14.348   1.490 -0.1710 -0.1093 -0.1885
 6368W        W21837   6.331  11.038   3.406 -0.0184  0.1276 -0.3633
 6369W        W21838   6.776  10.395  10.782  0.1902 -0.1290  0.0210
 6370W        W21839  16.624   5.714   1.470 -0.2340 -0.1174 -0.2931
 6371W        W21840   5.137  15.614  11.052  0.1340 -0.1723 -0.2606
 6372W        W21841   2.336  10.510  11.449  0.3748 -0.1746  0.3095
 6373W        W21842   2.954   7.848   3.065  0.3282 -0.0936  0.1618
 6374W        W21843   4.623  14.648   3.595  0.4185 -0.1504 -0.0006
 6375W        W21844   1.768  16.504  12.697  0.1540  0.1086  0.1335
 6376W        W21845   2.976  11.207  15.773  0.5130 -0.1689 -0.2224
 6377W        W21846  14.713  11.888   2.942  0.0652 -0.0088 -0.0498
 6378W        W21847  14.137   7.427   0.810 -0.0096  0.0433  0.0033
 6379W        W21848  18.412  16.324   0.312 -0.2417 -0.1348  0.2496
 6380W        W21849   8.205  14.523   0.123 -0.0281 -0.1534 -0.2025
 6381W        W21850   8.339  15.460   1.196 -0.1449  0.3019 -0.1687
 6382W        W21851   5.862   2.901   5.258 -0.0253  0.1858  0.1592
 6383W        W21852   7.749   7.307   4.993  0.3361  0.0054  0.2589
 6384W        W21853   2.268   5.988  10.156  0.0550 -0.0777 -0.2557
 6385W        W21854   6.432   1.412   9.765  0.0887 -0.1805  0.0283
 6386W        W21855   5.077   5.541   3.707  0.1778 -0.2062  0.0824
 6387W        W21856   5.717   1.750  12.764 -0.1122 -0.0986  0.1476
 6388W        W21857  15.833  12.563  13.186 -0.1550  0.0405 -0.2630
 6389W        W21858  15.646  15.732   4.508 -0.4039  0.4566 -0.0164
 6390W        W21859  15.916  14.246   3.086 -0.2178  0.0361  0.0468
 6391W        W21860   5.429  14.609   2.525  0.1236  0.0842 -0.0541
 6392W        W21861   7.011  18.104   1.605 -0.0736 -0.1787  0.1530
 6393W        W21862  16.822   1.956  13.001  0.0909 -0.1230 -0.2512
 6394W        W21863   2.353  14.852  11.954 -0.1246  0.1688 -0.0145
 6395W        W21864   1.724  15.774  12.027 -0.1135  0.0684 -0.2070
 6396W        W21865   7.022   5.485   4.478 -0.0081 -0.1328 -0.1842
 6397W        W21866   2.547  10.396   4.437 -0.0556  0.5135 -0.1872
 6398W        W21867  13.997  17.792   2.387  0.1413 -0.1550  0.1851
 6399W        W21868   5.504   7.193   2.911  0.0318  0.0265  0.0043
 6400W        W21869   9.333   7.413  13.676  0.0119 -0.0444  0.2509
 6401W        W21870   4.906   7.960  15.735  0.0579  0.2198  0.1199
 6402W        W21871  17.715  13.582   0.056 -0.0547  0.3812  0.1503
 6403W        W21872  13.297  16.714  13.567 -0.0531  0.2238  0.3234
 6404W        W21873  17.769   1.757   9.618 -0.2099 -0.0305 -0.1289
 6405W        W21874  11.942   0.756  14.173 -0.1709  0.1708  0.3556
 6406W        W21875   3.895   7.212  14.044 -0.2371 -0.1705  0.0079
 6407W        W21876  16.246   9.153   3.566  0.0641  0.0414  0.0248
 6408W        W21877  16.743  14.602   2.295  0.1384 -0.0881 -0.1978
 6409W        W21878  14.848   7.020  14.185 -0.1257  0.0871  0.0763
 6410W        W21879   6.558   6.259  12.366  0.0978  0.1310 -0.1194
 6411W        W21880   9.921   6.573   0.651 -0.0680  0.0311 -0.1151
 6412W        W21881   7.664   4.899  13.601 -0.0023 -0.0825  0.2980
 6413W        W21882   3.525  15.203   0.708  0.0139  0.3595 -0.0186
 6414W        W21883   9.883   6.638  12.153  0.1015  0.0426 -0.1644
 6415W        W21884  15.864  13.695   1.907  0.2139  0.0197  0.0453
 6416W        W21885   4.318   1.991   3.412 -0.2630  0.1937  0.0981
 6417W        W21886  10.138   1.328  12.081  0.0711  0.0432  0.1049
 6418W        W21887  14.974   7.504   4.948 -0.1132  0.0064  0.0905
 6419W        W21888   7.685   3.837   2.156 -0.3618 -0.4447  0.0273
 6420W        W21889   7.783  17.978   1.975  0.1821  0.2101 -0.2566
 6421W        W21890  18.426  13.426  13.134 -0.0275  0.1925 -0.4553
 6422W        W21891   3.009  17.112  13.428 -0.3016  0.1247 -0.1136
 6423W        W21892  13.467  12.302  15.365  0.1935 -0.3880  0.0663
 6424W        W21893  17.135  14.532  13.911 -0.2583  0.0180  0.1378
 6425W        W21894  18.516  14.684   0.259  0.0897  0.1956 -0.1282
 6426W        W21895   7.740   4.717  12.004 -0.0179  0.1445  0.1987
 6427W        W21896   7.367   6.104   0.856 -0.3727 -0.0586  0.1483
 6428W        W21897  18.342   9.613  14.675  0.3103  0.1675 -0.3419
 6429W        W21898  16.505   3.821  14.727  0.5135 -0.0032 -0.3130
 6430W        W21899   1.022   2.627   4.750 -0.0817  0.1065  0.1857
 6431W        W21900  12.803   7.247   5.412  0.2783 -0.3620 -0.0955
 6432W        W21901   9.802   0.576  15.229  0.1131  0.1938  0.2512
 6433W        W21902   1.594   2.177  11.173 -0.1377  0.3326 -0.1827
 6434W        W21903  10.752   1.501  13.634 -0.1392 -0.1055 -0.3308
 6435W        W21904  11.375  12.102  15.593 -0.0002 -0.0180 -0.0921
 6436W        W21905  13.093  14.306   2.576 -0.0103  0.2645  0.3942
 6437W        W21906   6.976  15.319   0.532  0.1804 -0.1964  0.0385
 6438W        W21907   5.116  12.261  12.058  0.1472  0.1930 -0.2288
 6439W        W21908   5.875  12.597   0.545 -0.1685  0.0347 -0.0578
 6440W        W21909   6.898   0.909  13.557  0.3799  0.0369  0.1441
 6441W        W21910  17.899  17.373   2.513 -0.2639 -0.1782  0.5714
 6442W        W21911  12.112  18.140   2.413  0.4915  0.3072  0.0356
 6443W        W21912  15.003   7.779   3.828  0.0607 -0.0350  0.0966
 6444W        W21913   6.688   5.059   4.349 -0.2218  0.0581 -0.0480
 6445W        W21914   3.184   9.063  15.091 -0.0909  0.1617  0.2507
 6446W        W21915   7.656   6.452   2.049  0.0267  0.2089  0.0113
 6447W        W21916  11.771  15.308  15.201 -0.0432 -0.0021  0.0259
 6448W        W21917   8.244  12.235  13.925 -0.0134  0.3980  0.1590
 6449W        W21918   3.015   4.520  12.577  0.0239  0.2779 -0.4127
 6450W        W21919   5.048  16.126   4.626  0.0234 -0.0002  0.2208
 6451W        W21920  11.945   0.192   3.190  0.0176  0.2331  0.1966
 6452W        W21921   4.674  12.862   2.667 -0.0301 -0.2908 -0.0155
 6453W        W21922   8.235   7.948  10.017 -0.0430 -0.2846 -0.0181
 6454W        W21923  16.646  11.260   2.933  0.1936  0.0743 -0.2263
 6455W        W21924  15.903  11.756   2.664  0.1609  0.1532 -0.4800
 6456W        W21925   2.646   6.155   9.146  0.1620  0.2868 -0.2117
 6457W        W21926   2.247   0.087  14.365  0.0926  0.1792 -0.2649
 6458W        W21927   4.974   4.757  11.458 -0.3122 -0.3304 -0.0248
 6459W        W21928   2.410  18.385  11.185 -0.0750  0.0678  0.2134
 6460W        W21929   5.263  15.262   2.608  0.1182  0.1958  0.2117
 6461W        W21930  12.836   4.428   9.651  0.0423  0.2928  0.4324
 6462W        W21931   0.651   9.386  14.305  0.0791 -0.0833 -0.2942
 6463W        W21932  15.092   8.467  15.333 -0.0454 -0.1315 -0.0418
 6464W        W21933  13.969   3.125   0.625 -0.2776 -0.0959 -0.2386
 6465W        W21934   4.258  11.693  13.103 -0.4620  0.1552 -0.0140
 6466W        W21935   6.322  17.145  14.486  0.2060 -0.0581  0.0039
 6467W        W21936  13.340  13.841   5.714 -0.2968  0.1331 -0.0932
 6468W        W21937   3.686   7.183  11.398  0.1702 -0.1416 -0.1405
 6469W        W21938  17.739  17.732   4.003  0.0317  0.1699  0.1693
 6470W        W21939  10.808   1.590  14.171 -0.1496 -0.1831  0.1402
 6471W        W21940   4.589   2.597  11.654  0.0727 -0.0581 -0.0063
 6472W        W21941  16.853  14.602  14.909  0.2265  0.0842  0.2525
 6473W        W21942   3.888   0.150   0.684 -0.1735 -0.1320  0.1457
 6474W        W21943  17.907   8.519  15.635  0.0536  0.1496  0.1329
 6475W        W21944   0.707   9.018  13.451 -0.3184 -0.0785  0.0856
 6476W        W21945  11.366  13.978  10.967 -0.0450 -0.0345 -0.1257
 6477W        W21946   2.143   7.717  15.739  0.3642 -0.1810  0.0892
 6478W        W21947  12.685  11.092   0.915 -0.0970  0.0904 -0.1412
 6479W        W21948   2.704   2.315   4.176  0.3398 -0.0329 -0.0495
 6480W        W21949  11.885   0.447   3.646 -0.1475  0.1430 -0.0389
 6481W        W21950   3.185  16.084   1.708  0.2252  0.2828 -0.1893
 6482W        W21951   6.114   4.994  14.588 -0.0895  0.2139 -0.0723
 6483W        W21952  18.063   6.483   0.667 -0.2634  0.0050 -0.0235
 6484W        W21953  16.137   9.337   5.436  0.1244  0.3485 -0.0401
 6485W        W21954   4.307   8.878  12.604  0.1765 -0.1460 -0.1632
 6486W        W21955  13.007   4.522  12.908  0.2757 -0.0090 -0.0016
 6487W        W21956   6.910   5.705   3.531  0.0540  0.1338 -0.1116
 6488W        W21957   7.817   3.758  11.624 -0.0163  0.3282 -0.0167
 6489W        W21958   7.134  14.968  11.897  0.1919  0.0259 -0.1899
 6490W        W21959  18.170   3.029  10.057  0.0531  0.0506  0.1830
 6491W        W21960  18.123  13.546  15.524  0.1250  0.0777  0.1938
 6492W        W21961  16.558   4.596   0.811 -0.2261  0.0415  0.2662
 6493W        W21962   0.834   7.482  11.194 -0.1240 -0.0436 -0.0212
 6494W        W21963  13.957   2.157   5.250 -0.0306  0.1030  0.0326
 6495W        W21964  12.818   3.055  15.736 -0.1932  0.1374 -0.1037
 6496W        W21965   0.854   2.731  10.396  0.0141 -0.0126 -0.0222
 6497W        W21966   8.476   9.278   3.315  0.1797 -0.3274 -0.0351
 6498W        W21967   5.663  17.382  13.491  0.2498  0.2082 -0.0044
 6499W        W21968   5.179   4.529  13.350  0.0391 -0.1952  0.1613
 6500W        W21969   5.032  10.931  14.623  0.1525  0.2002  0.1465
 6501W        W21970   4.157  10.034   2.538  0.0161 -0.0751 -0.1022
 6502W        W21971   9.011   7.433  14.239 -0.2471  0.0710  0.2078
 6503W        W21972  11.146   6.532   4.421 -0.0838 -0.1951 -0.2374
 6504W        W21973   2.075  15.029   0.828  0.2717 -0.1542 -0.1423
 6505W        W21974   3.602  17.103   3.957  0.0018 -0.4668  0.1096
 6506W        W21975  11.088  14.928   4.680  0.1413  0.2235  0.2300
 6507W        W21976  17.271  16.522  14.582  0.1387  0.1822  0.1571
 6508W        W21977  18.348  18.459   4.925  0.0524  0.2070 -0.0593
 6509W        W21978   2.122   1.926  12.441 -0.2988  0.2482 -0.0687
 6510W        W21979   9.935   7.103   1.639  0.2940 -0.0305  0.1374
 6511W        W21980   1.696  16.401  12.054 -0.1762 -0.1750  0.1565
 6512W        W21981   5.739   6.009  12.237 -0.1363  0.0477 -0.0040
 6513W        W21982   5.099  17.958   3.487  0.0657 -0.0510  0.2630
 6514W        W21983  12.412   7.796  14.652 -0.0312 -0.1201  0.1911
 6515W        W21984  13.343  10.614   0.467 -0.0933 -0.3588  0.3638
 6516W        W21985  12.814   7.216   3.767  0.3225  0.3460  0.0656
 6517W        W21986   8.366  13.261   2.050  0.1753  0.2676  0.3434
 6518W        W21987  10.538   6.882   1.058  0.2473  0.1157  0.2595
 6519W        W21988  13.008   5.377   4.300 -0.2969 -0.2768 -0.0729
 6520W        W21989   9.111   6.290  14.353 -0.0549  0.0394 -0.0378
 6521W        W21990   5.397  18.369   0.128  0.0202 -0.1894  0.1341
 6522W        W21991   5.504   6.174  11.471 -0.2559 -0.2575 -0.0144
 6523W        W21992   5.774  11.687  12.112 -0.0886 -0.0840  0.1124
 6524W        W21993   2.003   9.876   4.314  0.4106 -0.0558  0.2722
 6525W        W21994   7.251  14.148   2.055 -0.0364  0.3865  0.2160
 6526W        W21995   5.642  11.515   5.006 -0.0575  0.2642 -0.1760
 6527W        W21996   7.009   5.511  15.693 -0.0059 -0.0608  0.1667
 6528W        W21997   4.102  10.080  15.105 -0.3029 -0.0271 -0.3150
 6529W        W21998   0.541  18.407  12.475 -0.1738  0.0509 -0.1022
 6530W        W21999  10.508   3.834  15.234 -0.0093 -0.1621  0.3200
 6531W        W22000   0.857   1.420  13.168  0.2523  0.0078 -0.1403
 6532W        W22001   0.731   9.183  14.902 -0.1864 -0.2018  0.3023
 6533W        W22002  13.996   5.287  11.874  0.2420  0.0904  0.1862
 6534W        W22003  12.983   9.629   0.327  0.2795  0.1603 -0.0018
 6535W        W22004   0.273  10.030   1.533 -0.0570  0.3056 -0.2262
 6536W        W22005   7.400   0.063  10.784  0.3220 -0.0379  0.0385
 6537W        W22006  12.170  13.392  11.621  0.1665 -0.0989  0.1101
 6538W        W22007   4.678  13.824   4.139  0.0666  0.0751  0.1968
 6539W        W22008   0.206   0.952  12.398  0.4125  0.2147 -0.1198
 6540W        W22009   5.449   2.926  11.736 -0.0141 -0.0444 -0.3012
 6541W        W22010   2.359  10.077   3.995  0.0359  0.3988 -0.1298
 6542W        W22011  14.583  14.408   4.760  0.2850 -0.2139  0.1052
 6543W        W22012  13.473   3.254   0.774  0.0985  0.1960  0.2254
 6544W        W22013  14.498  11.203  14.742  0.2006 -0.0199  0.0695
 6545W        W22014   0.150   1.421   4.135 -0.0364  0.0933 -0.0292
 6546W        W22015   4.773   9.656   1.423 -0.0893 -0.1876 -0.1394
 6547W        W22016   3.934   1.780  12.639 -0.0673 -0.1078  0.1377
 6548W        W22017   7.084  13.290  13.746 -0.2788 -0.0602  0.0933
 6549W        W22018   1.061  17.218   0.740 -0.2498 -0.0523 -0.1654
 6550W        W22019  10.035  16.914  12.874  0.0103 -0.0246 -0.0903
 6551W        W22020  10.408  17.729   4.718  0.1540 -0.2218  0.0586
 6552W        W22021  17.401  18.225  12.880 -0.3081 -0.0728  0.4594
 6553W        W22022  18.505   1.988   3.939  0.2310 -0.3459  0.0079
 6554W        W22023   9.121   4.556   5.237  0.1741 -0.2243  0.0590
 6555W        W22024  11.741  16.794  11.027 -0.0092  0.2579  0.1669
 6556W        W22025   1.379   3.432   3.035  0.0752 -0.0395  0.3300
 6557W        W22026  11.082   3.405   6.436 -0.0631 -0.2513  0.0213
 6558W        W22027   2.741  15.172  10.922  0.1348  0.1482  0.1791
 6559W        W22028   8.236  10.793   3.790 -0.1447 -0.0788  0.2031
 6560W        W22029   9.314  13.020   4.997 -0.1138  0.3701 -0.2438
 6561W        W22030  14.787   8.362  12.221 -0.0622 -0.3536  0.1433
 6562W        W22031   6.211  11.731  13.070  0.0334  0.0492 -0.0318
 6563W        W22032   4.922  13.232   0.982  0.2214 -0.0417  0.1617
 6564W        W22033   8.473   2.361  14.334  0.0312  0.4431 -0.2267
 6565W        W22034   7.498  16.707  11.016  0.1986 -0.1211 -0.0709
 6566W        W22035  15.809  16.589  14.834  0.0789  0.1827 -0.0845
 6567W        W22036   2.592   7.114  11.376 -0.1779  0.1076  0.2269
 6568W        W22037   8.626   7.142   1.399 -0.2961 -0.0041  0.2180
 6569W        W22038  13.027   7.345  11.775  0.0714 -0.2093  0.0636
 6570W        W22039   1.625   1.430   3.682 -0.0062 -0.1357 -0.0459
 6571W        W22040   0.376   0.484   0.658  0.0526  0.1665 -0.2330
 6572W        W22041   9.233   4.672   2.969  0.1066 -0.1376  0.0355
 6573W        W22042   6.947   2.632   3.197  0.1039  0.2414  0.1128
 6574W        W22043  13.663   1.571   3.916  0.1988 -0.0677 -0.1055
 6575W        W22044   7.807   6.490   0.127 -0.3804  0.1658  0.1886
 6576W        W22045   4.533  12.837  14.708  0.0718  0.0153  0.0050
 6577W        W22046   4.717  10.151  13.938  0.1590 -0.0740  0.0174
 6578W        W22047   2.072   8.152   2.567  0.0618 -0.0198 -0.1653
 6579W        W22048   7.576  15.101   0.254 -0.0676  0.0508 -0.0689
 6580W        W22049  18.234  16.577   2.087 -0.1591  0.1131  0.0841
 6581W        W22050   1.500   9.660  13.013  0.0242 -0.0558  0.2638
 6582W        W22051  17.188   8.146  12.409 -0.1090  0.3613  0.1880
 6583W        W22052  13.233   6.667  14.046  0.0752  0.1557  0.0350
 6584W        W22053  13.417   4.542  15.760 -0.0485 -0.1359  0.1865
 6585W        W22054  16.359   9.919   1.726  0.1308 -0.0564 -0.1398
 6586W        W22055   8.028   3.955  14.401 -0.2054 -0.4916  0.0405
 6587W        W22056   6.743  15.481   4.876  0.0939 -0.1092  0.1513
 6588W        W22057   4.260  17.361   5.254  0.1313 -0.1855  0.0922
 6589W        W22058  12.753   9.496  13.178 -0.1434  0.0845  0.1316
 6590W        W22059   9.397   2.033  13.168 -0.1599 -0.1555 -0.2276
 6591W        W22060  16.876   1.936   2.308  0.1228  0.1358  0.0193
 6592W        W22061   9.458  13.751  11.971 -0.0813  0.2752 -0.1462
 6593W        W22062  15.381   8.605   3.330  0.0589 -0.0722  0.2293
 6594W        W22063   1.355  16.835   1.647 -0.1417  0.1911 -0.2940
 6595W        W22064  11.619  13.385   1.379 -0.2173 -0.0502  0.0470
 6596W        W22065   6.422  11.872   2.156 -0.1364  0.0417 -0.0989
 6597W        W22066   4.180   7.452   1.263 -0.0855  0.0455 -0.1329
 6598W        W22067   1.014   6.282  12.873  0.0272 -0.1377  0.0523
 6599W        W22068   6.936  10.993  14.498  0.2062 -0.0431  0.0895
 6600W        W22069  15.892  14.986  12.080 -0.2713 -0.2947  0.0245
 6601W        W22070   6.153   8.756  13.283 -0.1836 -0.1017 -0.0796
 6602W        W22071  15.900  16.759  11.518  0.0103  0.3449  0.0266
 6603W        W22072  18.488   0.526  11.429  0.0401 -0.0005 -0.0362
 6604W        W22073  16.939   7.629  15.261  0.1967  0.1958 -0.1051
 6605W        W22074  13.694  17.336   3.808  0.1960 -0.2513 -0.0443
 6606W        W22075   2.459   4.361   4.678  0.0747  0.1387 -0.2912
 6607W        W22076   3.678  11.059   3.240 -0.0911 -0.1807  0.4344
 6608W        W22077  18.389  15.734   4.330  0.0997 -0.0952  0.0331
 6609W        W22078   9.065  16.001  12.832 -0.2741  0.4439 -0.0634
 6610W        W22079   9.600   2.837   5.173 -0.0661 -0.0148 -0.0170
 6611W        W22080  17.894   0.601  12.173 -0.2571 -0.0101 -0.1191
 6612W        W22081   7.991  14.063  12.792 -0.0640  0.0810  0.1217
 6613W        W22082   7.419  13.740   2.767 -0.1957  0.0219 -0.0136
 6614W        W22083  12.013  14.056   1.063 -0.2075 -0.1319  0.0606
 6615W        W22084  14.007   9.738   3.491  0.1060  0.0319  0.1603
 6616W        W22085  12.177   2.070  14.482 -0.2387  0.1035  0.1402
 6617W        W22086   2.903  12.011  13.785 -0.1861 -0.0027  0.0021
 6618W        W22087   7.077   1.769  12.157 -0.0637  0.0241  0.1031
 6619W        W22088  12.428   7.370   0.880  0.1538 -0.1323 -0.4031
 6620W        W22089  18.432   0.553   4.943  0.1641 -0.0703 -0.3463
 6621W        W22090   4.680   2.737   4.488 -0.1250 -0.1349  0.0600
 6622W        W22091   2.456   0.441  13.138  0.1920  0.1796  0.0557
 6623W        W22092  13.471  10.245  11.827 -0.3441  0.0625  0.0886
 6624W        W22093  12.253  16.270   4.616  0.0043 -0.2546 -0.1216
 6625W        W22094  13.177   8.896  15.593 -0.2040 -0.0414 -0.1217
 6626W        W22095  16.169   2.642  11.720  0.0614 -0.0220  0.0407
 6627W        W22096  14.924   6.245  12.179  0.0369 -0.1416 -0.4973
 6628W        W22097   6.351  10.537   3.430  0.0674  0.0795 -0.0609
 6629W        W22098  12.327   4.139   5.321 -0.3842 -0.0805 -0.0006
 6630W        W22099  17.608   9.648  14.138 -0.2056  0.2684  0.0210
 6631W        W22100   3.144   6.658   1.419 -0.1398 -0.2309  0.1337
 6632W        W22101  13.801   7.575  13.293 -0.2491 -0.0404  0.1222
 6633W        W22102  16.677   9.028  14.520 -0.0792 -0.0035  0.1303
 6634W        W22103   1.969  14.851  13.860  0.2207 -0.0574  0.0843
 6635W        W22104   7.735   0.576  12.686 -0.0229  0.5139  0.2990
 6636W        W22105   6.021  10.604   0.510 -0.0172  0.1358  0.2336
 6637W        W22106  11.796  13.996   0.590 -0.0057  0.1786 -0.2461
 6638W        W22107  13.649  17.921   5.481  0.2936 -0.0336  0.0063
 6639W        W22108   0.062  15.365  10.158 -0.1298 -0.2321 -0.0349
 6640W        W22109  17.544  17.067   1.130  0.5344 -0.0804  0.2649
 6641W        W22110  10.005  15.639   4.483  0.2950  0.1456  0.4666
 6642W        W22111  16.020  12.479   3.667 -0.2316 -0.2037  0.2165
 6643W        W22112   1.746  12.831   3.908  0.1167 -0.0672  0.0763
 6644W        W22113  18.394  12.065   2.410 -0.0567  0.0571 -0.0073
 6645W        W22114  16.346   9.919   4.197 -0.0096 -0.1555  0.1943
 6646W        W22115   9.368  17.004  11.588 -0.1290  0.0144 -0.1212
 6647W        W22116  14.751   4.622  13.725 -0.2725  0.3311 -0.1956
 6648W        W22117   9.234   0.875   4.761 -0.2579  0.0025  0.1441
 6649W        W22118  10.565  14.901   4.446 -0.3686 -0.2489 -0.1292
 6650W        W22119  13.145   8.309   5.958 -0.0907 -0.0739  0.1027
 6651W        W22120  16.112   8.087   2.871 -0.0007 -0.1548  0.2245
 6652W        W22121   1.979   9.514   3.039  0.0683 -0.1856  0.0837
 6653W        W22122  11.390   0.579   1.973  0.0074 -0.0988  0.1676
 6654W        W22123   3.193   5.463  15.036 -0.1559  0.0506 -0.1296
 6655W        W22124  15.634  18.422   4.217 -0.3429  0.1736 -0.0770
 6656W        W22125  18.122   4.210   4.693 -0.2299  0.0073  0.1150
 6657W        W22126  12.614   1.367   5.574 -0.0955  0.3082  0.0420
 6658W        W22127  16.899   3.937  13.923  0.1084 -0.2153 -0.2846
 6659W        W22128  14.089   4.561   2.253 -0.1901 -0.1658 -0.5024
 6660W        W22129   4.310   9.897  13.812 -0.1730 -0.1642  0.0804
 6661W        W22130  12.730   5.502   3.458  0.0742  0.2126  0.1374
 6662W        W22131  18.487   3.376   3.210 -0.0981 -0.0890  0.4798
 6663W        W22132   6.756  11.448   2.248 -0.0138 -0.5043 -0.1331
 6664W        W22133  17.205   3.362  12.118 -0.1004 -0.0271  0.0084
 6665W        W22134  14.261  14.418   3.510  0.2680 -0.0481  0.1627
 6666W        W22135  11.993  16.416  14.417  0.1476  0.0639  0.0875
 6667W        W22136   1.239  14.340   4.749  0.3192  0.0399  0.0652
 6668W        W22137   7.066   9.391  11.740  0.3561 -0.0496  0.3201
 6669W        W22138   6.481   4.737  10.761  0.1444 -0.0533 -0.0612
 6670W        W22139   4.623   9.836   2.160 -0.5444  0.0682 -0.0096
 6671W        W22140   1.715   9.571   0.035  0.2597  0.1420  0.1488
 6672W        W22141   6.107  16.266   1.133  0.1727  0.0735  0.2244
 6673W        W22142   4.629   6.094  14.575 -0.2042  0.4555 -0.0569
 6674W        W22143   7.475   8.667  15.134 -0.0971 -0.1768  0.1151
 6675W        W22144   8.138  15.156  14.607 -0.0613 -0.1103  0.1666
 6676W        W22145  13.442  13.057  14.698  0.2007  0.0642  0.0998
 6677W        W22146   1.398   8.199   4.575  0.0955 -0.3555  0.2444
 6678W        W22147   2.789  16.324   4.386  0.2826  0.1038  0.0554
 6679W        W22148   7.998  15.177   3.512 -0.1453 -0.2645  0.1084
 6680W        W22149  17.345  16.653  15.263 -0.0210  0.0074  0.1786
 6681W        W22150   5.375   9.056   2.537  0.2231 -0.2179 -0.0629
 6682W        W22151  10.169   8.205   1.299  0.1020 -0.2525  0.3235
 6683W        W22152  14.931  10.137  15.207  0.1994 -0.0007 -0.0147
 6684W        W22153  12.106   3.302   5.650 -0.1065  0.0818 -0.0052
 6685W        W22154   6.546   7.250  12.506 -0.0247  0.0048  0.2133
 6686W        W22155  15.672  16.783   5.317 -0.1240 -0.0206 -0.3231
 6687W        W22156  18.444   4.350   3.919  0.0235  0.0276  0.1047
 6688W        W22157  17.122  10.884   4.797  0.0496  0.2060 -0.1628
 6689W        W22158   5.248  13.545   0.745 -0.0881  0.1600  0.2868
 6690W        W22159   5.617   6.147   1.669 -0.0491  0.1675  0.0665
 6691W        W22160   2.437  15.496  10.564 -0.0496  0.1110  0.2657
 6692W        W22161   0.559   5.558   1.151  0.0026  0.2212 -0.2749
 6693W        W22162   8.535  12.117   0.070 -0.0223  0.1029  0.0696
 6694W        W22163   9.771  18.557   2.985 -0.1095  0.2245 -0.1087
 6695W        W22164   8.403   5.959   3.560 -0.0569  0.0633  0.0607
 6696W        W22165   4.361   7.959  15.527  0.0936 -0.0018 -0.1228
 6697W        W22166  15.988   6.405  13.483 -0.0253 -0.0903 -0.0510
 6698W        W22167   0.504  13.160   0.646 -0.0148 -0.3666  0.0751
 6699W        W22168   6.504   7.214  13.351 -0.0572  0.1159  0.1493
 6700W        W22169  12.487   9.363  10.816  0.2039 -0.0473 -0.2216
 6701W        W22170   0.798   1.111  11.813 -0.1763 -0.0192  0.1145
 6702W        W22171   8.794   4.578   3.417 -0.2433  0.1705 -0.0266
 6703W        W22172  12.125   8.731   5.924 -0.0250  0.2288  0.2687
 6704W        W22173  11.384   7.473  10.511  0.1215 -0.1226 -0.2167
 6705W        W22174   6.317   8.263  14.967 -0.1753 -0.0767  0.1969
 6706W        W22175   6.911   0.882   2.185 -0.4520  0.3531  0.0286
 6707W        W22176   7.060  14.053  11.002  0.2253  0.0409 -0.2747
 6708W        W22177   9.916  13.464   2.675 -0.0258  0.0117 -0.0715
 6709W        W22178   1.256   9.861   0.218 -0.0693  0.0321 -0.1491
 6710W        W22179  13.454  17.860   3.814  0.1715 -0.0626 -0.1868
 6711W        W22180   2.518  13.204   4.357 -0.1210  0.1284  0.2551
 6712W        W22181   2.365  17.031   4.168 -0.4707  0.3047 -0.2846
 6713W        W22182   2.816   8.719  12.467  0.1790 -0.1068 -0.0838
 6714W        W22183   0.860   3.583   3.200  0.2658 -0.0729  0.4075
 6715W        W22184   1.668  11.561   4.211  0.0575  0.3226  0.1098
 6716W        W22185   0.084  13.403   3.212 -0.0484 -0.5587  0.1307
 6717W        W22186   1.710  14.576   4.800 -0.2024  0.4226  0.0672
 6718W        W22187   1.463  10.342   5.160 -0.0859  0.3749  0.1207
 6719W        W22188   8.479  17.355  14.514 -0.0413 -0.1634  0.1862
 6720W        W22189  16.534   2.169  10.662  0.0952  0.0815  0.1297
 6721W        W22190  10.973  14.944   3.533  0.1175  0.0667 -0.2581
 6722W        W22191  15.685  10.908   0.389  0.2174  0.1438 -0.1327
 6723W        W22192   4.901   3.071   5.316 -0.0656  0.3433 -0.2010
 6724W        W22193  12.550  11.564   1.192  0.1802  0.1785  0.1166
 6725W        W22194   8.086   4.895  13.142 -0.1309  0.0333 -0.0268
 6726W        W22195  14.726   2.428   3.337 -0.0047 -0.0946 -0.2999
 6727W        W22196  11.241  11.481  14.662 -0.0792 -0.0659  0.5440
 6728W        W22197   8.925   2.113   1.637 -0.1472 -0.0155 -0.1874
 6729W        W22198   3.309   8.585  10.645 -0.0737  0.2971  0.0820
 6730W        W22199  10.473  11.913  11.735 -0.1872  0.0086  0.1356
 6731W        W22200  10.795   5.171   1.273 -0.0632  0.1794  0.2431
 6732W        W22201  14.997  11.352   0.861  0.0887  0.1199  0.0745
 6733W        W22202  10.669  12.559   0.884  0.1732  0.3150 -0.0970
 6734W        W22203  15.218  18.044  14.299  0.1188 -0.1020  0.0026
 6735W        W22204   5.492   1.671  10.594 -0.0863  0.2760 -0.0589
 6736W        W22205  15.062   6.553  15.453 -0.2666  0.2117 -0.2826
 6737W        W22206  12.232   7.620   2.227 -0.1201 -0.0610 -0.1745
 6738W        W22207   8.731  14.500  11.989  0.1288 -0.1182  0.0601
 6739W        W22208   6.363  14.267  13.122  0.0616 -0.3091 -0.2770
 6740W        W22209  18.263   8.750  11.033  0.1728 -0.2181  0.4630
 6741W        W22210   8.903  16.288  12.050  0.0002 -0.1138  0.0438
 6742W        W22211  18.076  17.613   4.860  0.2473 -0.3009  0.0373
 6743W        W22212   6.240   0.664  11.149 -0.0389 -0.1456 -0.3302
 6744W        W22213   4.187   8.629  14.852  0.0054 -0.0258  0.2960
 6745W        W22214  14.397  18.111   4.355 -0.2298 -0.0039 -0.1235
 6746W        W22215   8.113  16.990   3.021 -0.0725 -0.3907 -0.1445
 6747W        W22216  17.668  14.004  11.986 -0.1963  0.1300 -0.0786
 6748W        W22217   7.968   8.521  10.979 -0.3058 -0.1816 -0.1603
 6749W        W22218   5.160  12.804   3.723 -0.4180  0.2292  0.2339
 6750W        W22219  18.079  13.481   3.627 -0.0388 -0.1705  0.3006
 6751W        W22220   6.784   6.700  14.042  0.0514  0.1294 -0.0257
 6752W        W22221  15.826  16.036  14.688 -0.4330  0.2317  0.0086
 6753W        W22222   8.992   6.465  12.234 -0.3194  0.1177  0.1720
 6754W        W22223  10.050   9.559   0.619 -0.0857 -0.0459 -0.3776
 6755W        W22224   1.704   0.038   5.008 -0.0944  0.0212 -0.0744
 6756W        W22225   6.790   6.318   2.286 -0.3226 -0.2447 -0.0940
 6757W        W22226   0.617  17.516   1.311  0.0595 -0.3618  0.2512
 6758W        W22227   9.649   8.009  12.571 -0.1309  0.0857 -0.0308
 6759W        W22228  17.659   1.987   5.125 -0.0544 -0.0330 -0.0079
 6760W        W22229  17.071   9.225  15.578 -0.0065  0.1705  0.1202
 6761W        W22230  14.530  10.590   1.905 -0.0947 -0.3017 -0.0006
 6762W        W22231  14.336  17.062  14.464  0.0740 -0.0775  0.0045
 6763W        W22232   0.164  10.543  11.537 -0.0742  0.1400  0.0456
 6764W        W22233  14.615   9.702  13.623 -0.1449  0.0322 -0.1229
 6765W        W22234   4.033   3.723  11.803 -0.0847  0.0267 -0.1088
 6766W        W22235   3.830  16.787   0.113 -0.3425  0.1609  0.2694
 6767W        W22236  11.077  17.613   4.790 -0.4380 -0.0289  0.2813
 6768W        W22237   5.627   8.670  10.654 -0.0830  0.0986  0.1800
 6769W        W22238  11.332  14.488  13.805  0.1225 -0.1175 -0.3788
 6770W        W22239  10.051  14.099   0.811 -0.3115  0.2505  0.0950
 6771W        W22240   4.559  17.124  11.858  0.1784 -0.1329 -0.0388
 6772W        W22241   7.048  14.520  10.767  0.3420 -0.3533  0.6148
 6773W        W22242   7.549  16.264  15.366  0.3024  0.0515 -0.2166
 6774W        W22243  15.505   4.709   0.622  0.2396  0.0089  0.1109
 6775W        W22244   3.976   4.312  10.883  0.0520 -0.3553  0.0064
 6776W        W22245   1.268  13.243  15.289 -0.2225  0.0355  0.2083
 6777W        W22246   8.724  14.119  10.689  0.1351  0.0027  0.1893
 6778W        W22247  14.590  10.856   2.800  0.0039  0.1049 -0.0336
 6779W        W22248   2.231   5.258   2.306 -0.0669  0.1237 -0.0329
 6780W        W22249  17.571   5.313  13.924  0.2628  0.1630  0.0866
 6781W        W22250   5.339  11.491  10.388  0.2017 -0.0302 -0.1262
 6782W        W22251   0.603   5.688  14.006 -0.0335  0.1101  0.1053
 6783W        W22252  17.968   5.081  12.683  0.1592  0.3153 -0.3337
 6784W        W22253   9.865   8.288   3.811 -0.0886  0.2746  0.0582
 6785W        W22254  14.432  16.653   3.304 -0.1348  0.1730 -0.1348
 6786W        W22255   4.384   6.690   2.777  0.1161 -0.0937 -0.0468
 6787W        W22256   2.854   2.363   1.272  0.1313  0.0567 -0.0221
 6788W        W22257  13.394   0.800   3.436  0.0848 -0.0826 -0.0644
 6789W        W22258  15.176   1.018  13.870  0.2961  0.3901  0.1774
 6790W        W22259   0.915  12.895   3.324  0.0680  0.0060 -0.3644
 6791W        W22260   5.994  11.293   0.958 -0.0120  0.1554 -0.0202
 6792W        W22261  10.274   0.183   0.951  0.2650  0.2541 -0.0214
 6793W        W22262   6.823  16.823   5.713 -0.1675  0.0163 -0.2932
 6794W        W22263   4.146  16.234  11.688  0.2054 -0.3972  0.0386
 6795W        W22264  13.615  15.601  15.230 -0.2772  0.0115 -0.0535
 6796W        W22265  18.139  15.677  12.201  0.0920  0.3309  0.0323
 6797W        W22266   5.045  11.851   0.456  0.2258  0.0352  0.0813
 6798W        W22267   9.828  17.297   1.229 -0.1005  0.0045 -0.2470
 6799W        W22268   7.674  11.850   4.235  0.0710 -0.2927  0.0597
 6800W        W22269   2.016  13.677   4.732  0.2724  0.1162 -0.5124
 6801W        W22270   5.418   9.427  12.135 -0.0814 -0.6209  0.0437
 6802W        W22271   8.393  12.363  10.152 -0.0631 -0.2989 -0.0156
 6803W        W22272  13.775   4.281   3.162  0.1106  0.0150 -0.3587
 6804W        W22273  13.616   7.761  11.431  0.2078 -0.1558 -0.3478
 6805W        W22274  16.167   0.086  11.120  0.2306 -0.0650 -0.0106
 6806W        W22275   1.791  10.027  13.471 -0.0923 -0.4550 -0.1949
 6807W        W22276  11.483   2.525   5.945 -0.1937 -0.0432 -0.3264
 6808W        W22277  15.587  15.235   5.217 -0.0024  0.3682 -0.0815
 6809W        W22278   8.622   6.575  15.193 -0.3732 -0.3736 -0.1015
 6810W        W22279   5.084  10.039   1.972  0.1240  0.0898 -0.2726
 6811W        W22280   6.557  14.295  14.780  0.0191  0.0102  0.1600
 6812W        W22281   7.461   0.652  11.540  0.2501 -0.0761  0.0925
 6813W        W22282  17.240   1.319  13.644 -0.1063  0.0734 -0.1166
 6814W        W22283   8.399   3.440  12.977 -0.2127  0.0646 -0.4437
 6815W        W22284   9.952  10.315  15.593 -0.0386 -0.0563 -0.1665
 6816W        W22285  15.629  12.355  14.086 -0.0018  0.0019 -0.3673
 6817W        W22286  17.973   5.071  13.663 -0.1814 -0.1587  0.2356
 6818W        W22287  12.777   0.733  15.145  0.1183 -0.6534 -0.0548
 6819W        W22288  16.148   6.768  13.131  0.0265 -0.2205  0.1324
 6820W        W22289  14.981   7.375  12.620  0.2488  0.2611  0.2723
 6821W        W22290  15.013   0.011   2.578 -0.5680 -0.1148 -0.1544
 6822W        W22291  10.721   0.152  15.167 -0.2663  0.0080  0.0955
 6823W        W22292  16.855   4.320  13.607 -0.0298  0.1753  0.0197
 6824W        W22293  12.404  14.009   5.637 -0.2467 -0.0755 -0.2627
 6825W        W22294  16.970  18.128   5.593 -0.4155 -0.1779 -0.0335
 6826W        W22295  15.526  11.306   0.161 -0.2195 -0.0848  0.1267
 6827W        W22296  12.564   2.891   0.362  0.0964  0.2271  0.1629
 6828W        W22297   1.179   9.071   9.114 -0.0237 -0.0285  0.0471
 6829W        W22298   4.016   9.309   4.256  0.0057 -0.0349  0.1924
 6830W        W22299  14.207  12.189   3.583  0.1187 -0.0313 -0.4327
 6831W        W22300  15.414  11.254   3.412 -0.1513 -0.0992 -0.0059
 6832W        W22301  13.755   4.361   2.526 -0.0148 -0.2757  0.0146
 6833W        W22302   5.806   9.859   3.599  0.2750 -0.1226  0.2288
 6834W        W22303  12.618  11.273   5.234  0.1792 -0.2788  0.2599
 6835W        W22304   3.259   2.880  14.671 -0.0113 -0.3094 -0.1138
 6836W        W22305  12.648   8.864   4.266  0.1701  0.0035  0.4892
 6837W        W22306  13.629  10.669  15.383  0.3023 -0.0657  0.0386
 6838W        W22307   1.293   1.002   2.011 -0.3122  0.0469  0.0545
 6839W        W22308   7.906  10.138  13.774  0.3252 -0.2811  0.0710
 6840W        W22309   6.191   2.470   4.246 -0.0357  0.4427 -0.0173
 6841W        W22310   6.240   4.153   4.553  0.0748 -0.1240 -0.1578
 6842W        W22311  17.916   4.432  10.429  0.1142 -0.1232  0.0992
 6843W        W22312   9.754  14.142   0.364 -0.1581  0.0102  0.0197
 6844W        W22313  12.605   0.628   5.057 -0.3053 -0.0548  0.1275
 6845W        W22314   8.506  18.189   2.405  0.0440  0.1931 -0.0231
 6846W        W22315  11.893  11.794   4.242 -0.2841 -0.1615  0.0588
 6847W        W22316   4.253   7.528  14.540  0.3065  0.3814 -0.3944
 6848W        W22317   5.148   2.371  14.776 -0.0477  0.3420  0.0556
 6849W        W22318  11.367   7.131   2.984  0.2459  0.3735  0.0408
 6850W        W22319  11.238  12.412  12.066  0.0017 -0.1600 -0.1218
 6851W        W22320   2.081  11.004  10.918  0.1921 -0.0722  0.2358
 6852W        W22321   7.513   8.277   0.562  0.2395 -0.4265 -0.1259
 6853W        W22322  13.489   1.344  15.186 -0.2962 -0.2354 -0.3109
 6854W        W22323  17.330   8.008  10.287  0.3256  0.1101  0.3181
 6855W        W22324   5.506   2.727  14.930  0.1051 -0.4181 -0.0341
 6856W        W22325   6.556  15.877   4.300  0.0739  0.0689 -0.1875
 6857W        W22326  11.228  16.578  15.719 -0.2372  0.0372  0.2697
 6858W        W22327  14.558   1.115   1.592  0.0529  0.2286  0.0761
 6859W        W22328   1.713  14.215   3.544  0.2784  0.2211 -0.4637
 6860W        W22329  12.572  10.507  12.520 -0.0388 -0.0436 -0.1255
 6861W        W22330  13.252  15.963  15.277  0.2930  0.1206  0.0168
 6862W        W22331  12.658  18.287   4.051  0.2591  0.1941 -0.0371
 6863W        W22332   3.400   7.007   1.061 -0.1864  0.0083  0.1342
 6864W        W22333   6.348  12.109  13.902  0.1761 -0.2420  0.3180
 6865W        W22334  12.697  15.293   5.233 -0.0205  0.0297 -0.0349
 6866W        W22335  15.503  14.811   0.347  0.0366 -0.1613  0.0636
 6867W        W22336   8.534   2.280  15.218  0.2840 -0.5355 -0.2230
 6868W        W22337   0.499  17.788  10.734  0.0583  0.2379 -0.0008
 6869W        W22338   0.372   8.709  14.931  0.0514  0.2854  0.0079
 6870W        W22339   0.207   5.163   5.430 -0.1500  0.1916  0.1084
 6871W        W22340  10.949   8.799   2.286 -0.3730 -0.0089 -0.0917
 6872W        W22341  16.324   8.230  14.200 -0.0991 -0.1403 -0.1086
 6873W        W22342  11.206  16.562  13.730  0.0993  0.0869  0.0602
 6874W        W22343   3.994   1.693   3.667  0.2129 -0.1535  0.1925
 6875W        W22344  14.367   8.061  14.704  0.1911 -0.0734  0.2637
 6876W        W22345  11.086   4.214  11.996  0.0052  0.2659  0.1922
 6877W        W22346  11.247   7.977   3.432  0.1718  0.1101 -0.0353
 6878W        W22347  13.382   5.205   4.662 -0.1917 -0.0982 -0.1229
 6879W        W22348   4.043  15.684  14.502  0.0425  0.3184  0.0066
 6880W        W22349  12.796  15.476  14.553 -0.1941 -0.0038  0.0296
 6881W        W22350   4.920   1.397   3.929 -0.1761 -0.0017 -0.1309
 6882W        W22351   9.617   6.647   3.513  0.0493  0.0612  0.1538
 6883W        W22352   2.116   3.127   0.892  0.0358  0.0132 -0.0000
 6884W        W22353  17.805   6.873   0.472 -0.0239  0.3982  0.0683
 6885W        W22354   4.646   1.114  14.650  0.0519  0.0591  0.2003
 6886W        W22355   9.993   6.413   4.696 -0.2126 -0.1221  0.3061
 6887W        W22356  10.583   5.575  15.196  0.1302 -0.2527 -0.1739
 6888W        W22357  15.166   8.526   4.265  0.1889 -0.2553  0.0472
 6889W        W22358   7.459   5.784   3.577  0.4330 -0.1519  0.1468
 6890W        W22359  15.964   1.182  11.816  0.0197 -0.1070 -0.2625
 6891W        W22360  13.672   0.498   4.092 -0.0110 -0.0591 -0.1562
 6892W        W22361   2.131   4.901   1.508 -0.0373  0.2577  0.0085
 6893W        W22362  15.656   3.843  12.460 -0.1038 -0.1082  0.1649
 6894W        W22363  17.584   0.727   0.861 -0.2185  0.0341  0.1817
 6895W        W22364   5.983   0.129  12.158 -0.2410 -0.2484 -0.0331
 6896W        W22365   0.925   1.895  11.428  0.0765 -0.3222 -0.2189
 6897W        W22366   0.834   8.312   0.684 -0.0415  0.3490 -0.1418
 6898W        W22367   6.403  13.857   0.715 -0.2808  0.0085 -0.6012
 6899W        W22368   5.396   9.297  13.612 -0.1215 -0.2717 -0.0437
 6900W        W22369  16.890  15.853   2.559  0.0750 -0.0926 -0.2486
 6901W        W22370   8.998   9.113  14.001  0.0593 -0.5666 -0.2609
 6902W        W22371   7.627  17.090   3.681 -0.1731 -0.1643  0.1567
 6903W        W22372   5.328   2.555   3.098 -0.0910  0.0183  0.0340
 6904W        W22373   2.862   0.339  11.763 -0.3595 -0.2646  0.0800
 6905W        W22374  10.871   2.616   4.124 -0.0362  0.1570 -0.0770
 6906W        W22375  11.350  11.098  10.761  0.1049  0.1587 -0.0094
 6907W        W22376  12.656   4.824   1.139 -0.0499  0.1255 -0.0642
 6908W        W22377  13.577   3.717  13.014 -0.2008 -0.1073  0.3412
 6909W        W22378  17.595   2.948  15.109  0.3366 -0.4230 -0.2348
 6910W        W22379  15.514  16.825   4.049  0.0810  0.1602  0.0294
 6911W        W22380  12.333  12.542   2.799  0.2095  0.3374 -0.1630
 6912W        W22381  14.971   0.127  15.404 -0.1904 -0.1501  0.1924
 6913W        W22382   7.230   1.261  13.706 -0.0304  0.1064  0.2834
 6914W        W22383   2.662  18.031   2.045 -0.2347 -0.3226 -0.1135
 6915W        W22384   1.734   8.847   1.670  0.3424  0.2876 -0.1645
 6916W        W22385  13.837   1.965   1.218  0.0288 -0.0859 -0.0681
 6917W        W22386   5.403   2.646   0.357 -0.0498  0.0878 -0.0500
 6918W        W22387  17.568  14.742  11.337  0.0992  0.0765  0.1477
 6919W        W22388   7.909  11.541   3.884 -0.0969 -0.1597  0.3142
 6920W        W22389  12.530   3.329   3.162  0.2944  0.2122  0.0860
 6921W        W22390   6.326   2.562   2.053  0.1200  0.0271  0.0986
 6922W        W22391   9.915  14.116  14.482  0.1043 -0.3551  0.2697
 6923W        W22392  15.129   8.269   0.429  0.1042 -0.1015 -0.0386
 6924W        W22393  15.265  10.255   5.653 -0.2098  0.0932  0.2886
 6925W        W22394  17.046   0.359   2.105 -0.0461  0.0746 -0.1003
 6926W        W22395   7.709   5.240   0.529  0.1585  0.2714 -0.2418
 6927W        W22396   4.144   5.977   0.112  0.0878 -0.1212 -0.0047
 6928W        W22397  10.714   5.323  12.670  0.0919 -0.0485  0.2219
 6929W        W22398  10.599  13.880  14.888 -0.4863 -0.0003 -0.2003
 6930W        W22399  13.123  13.397   2.820 -0.0830  0.1758 -0.0149
 6931W        W22400  12.110  10.419   4.246  0.2656 -0.2229 -0.0486
 6932W        W22401   1.242  14.372   4.169  0.1236  0.0982 -0.0855
 6933W        W22402   5.093  14.261   2.910 -0.0124 -0.4297  0.1630
 6934W        W22403  13.133   0.576  13.478 -0.2178  0.1133  0.0654
 6935W        W22404   8.956   3.660  10.890 -0.0441  0.1089  0.3138
 6936W        W22405  17.073  10.255   2.423  0.1906  0.0202  0.0524
 6937W        W22406  15.092   0.207  14.655  0.0914 -0.2483  0.1656
 6938W        W22407   3.654  12.521   9.501 -0.0992  0.1990 -0.1955
 6939W        W22408  12.678   9.243   3.980 -0.2082 -0.4816  0.0043
 6940W        W22409   4.975  14.275   0.320  0.4369  0.2393 -0.0072
 6941W        W22410   9.159   8.162  13.738 -0.0041  0.0872 -0.2510
 6942W        W22411  17.225   2.838  12.326  0.0235  0.0795  0.1553
 6943W        W22412   9.969   8.778  12.318  0.0971  0.0763 -0.0460
 6944W        W22413   7.620   0.685   1.338 -0.1484 -0.1714  0.0918
 6945W        W22414   9.157   1.198  11.460 -0.1831  0.0851  0.0688
 6946W        W22415   0.273  17.360   6.307 -0.1945 -0.0664  0.0509
 6947W        W22416  16.828   2.921   2.843 -0.2002 -0.1253  0.0573
 6948W        W22417   8.954   1.103   4.293  0.1245 -0.0144 -0.0433
 6949W        W22418   6.945   4.944   0.506 -0.0340  0.1631 -0.2188
 6950W        W22419   8.488   8.786  13.925 -0.2712  0.2080  0.2177
 6951W        W22420   2.524   1.816   5.455 -0.0586 -0.1251 -0.1658
 6952W        W22421  17.691   8.059   2.793  0.1986 -0.3034 -0.0978
 6953W        W22422  11.360  12.385  10.376  0.1147  0.3507 -0.0209
 6954W        W22423   9.130  13.646   0.521  0.1396 -0.2283  0.1338
 6955W        W22424  11.184  13.313   4.463  0.0344 -0.2592  0.3957
 6956W        W22425   2.181   9.665   9.533 -0.0939  0.0935  0.0181
 6957W        W22426   0.955   0.601   4.472  0.1831  0.1674  0.0126
 6958W        W22427  11.485  15.810  11.290  0.0225  0.0969 -0.3354
 6959W        W22428   6.209   2.847   2.841 -0.2114  0.1796 -0.2927
 6960W        W22429   1.103   3.135  11.283  0.0311 -0.0302  0.2299
 6961W        W22430  10.637   0.001  14.452  0.2666  0.1730  0.2873
 6962W        W22431  13.872   7.765  14.516 -0.1659  0.2090  0.4957
 6963W        W22432  16.005   2.727   0.536  0.1693 -0.0447 -0.1350
 6964W        W22433   3.522   8.092  11.857  0.2823  0.1114  0.2868
 6965W        W22434   3.492   8.593  15.694 -0.2164  0.0312  0.1184
 6966W        W22435   0.084  12.114   4.553  0.1770  0.0573  0.2213
 6967W        W22436   3.462   9.411   1.965 -0.1733 -0.1690  0.1490
 6968W        W22437  14.148  16.774   2.012  0.1419 -0.0541 -0.1422
 6969W        W22438  12.308   3.141   1.604 -0.2413  0.1036 -0.1651
 6970W        W22439  16.339   7.244   0.301  0.1344  0.3107  0.1694
 6971W        W22440   0.906   8.564  13.407  0.0022  0.0539 -0.1659
 6972W        W22441  15.339   8.342  10.888  0.2211  0.3811 -0.0525
 6973W        W22442  10.332  10.375  13.444 -0.0132  0.1886 -0.2510
 6974W        W22443  10.881   1.607  15.100 -0.0913 -0.1299 -0.1554
 6975W        W22444   8.049  17.284  14.332 -0.0313 -0.3727  0.1343
 6976W        W22445  10.241  13.340   0.612  0.1106 -0.0269  0.0160
 6977W        W22446  10.453  12.282   3.566  0.1294  0.2278 -0.2479
 6978W        W22447   7.891  14.747  13.779  0.2190  0.0944 -0.0244
 6979W        W22448   7.722  12.502  15.205  0.3639  0.1423 -0.0181
 6980W        W22449  14.674  16.552   5.715  0.0075  0.2300 -0.2711
 6981W        W22450  18.165   5.450   3.151  0.1969 -0.1001  0.4948
 6982W        W22451   0.272   8.106  14.099 -0.1924  0.1956  0.0087
 6983W        W22452  13.364   2.014   5.104  0.1183  0.1792  0.1921
 6984W        W22453  13.114   3.567  14.431  0.1038  0.1518 -0.1180
 6985W        W22454   3.762   7.594   2.432  0.3943  0.1345  0.1762
 6986W        W22455  12.958  14.877   4.393 -0.0250 -0.1053  0.1590
 6987W        W22456   4.283   9.964   3.528  0.4389  0.3619 -0.1427
 6988W        W22457   3.358   7.379   2.498  0.0096 -0.1594  0.0298
 6989W        W22458  11.002   7.210   5.106 -0.2655  0.0400 -0.0831
 6990W        W22459   6.600  11.617  10.775 -0.0408 -0.0156 -0.0079
 6991W        W22460   6.743  17.995   0.481 -0.6314 -0.3558 -0.2519
 6992W        W22461  12.400   1.684   2.628 -0.0058 -0.2793  0.5381
 6993W        W22462  10.453  12.008  12.276  0.0962  0.1013  0.2287
 6994W        W22463  13.550  10.767   3.685  0.0742  0.1088 -0.0947
 6995W        W22464   1.479   7.049  11.298  0.1762  0.1045 -0.1076
 6996W        W22465  11.805   7.754  10.698 -0.2730 -0.2609 -0.1862
 6997W        W22466  18.550   6.365  14.021 -0.1306  0.2012 -0.0823
 6998W        W22467  15.073  17.313  12.158 -0.1121  0.0374  0.0055
 6999W        W22468  14.846   6.417  13.687  0.0670  0.0268  0.0976
 7000W        W22469  14.268   7.826   5.440  0.0825 -0.0739 -0.1224
 7001W        W22470   1.157   1.809   3.350 -0.2236  0.2362 -0.1752
 7002W        W22471  10.207  16.285  15.442 -0.1201 -0.1646  0.1121
 7003W        W22472   2.164  17.115   0.883  0.0317 -0.0843 -0.1010
 7004W        W22473   6.781  17.685  13.674 -0.1282  0.1799 -0.0243
 7005W        W22474  18.393   5.486  14.125 -0.0560  0.0202  0.0155
 7006W        W22475   8.642   6.672  13.829  0.0470  0.0145  0.0179
 7007W        W22476   7.364   9.804  13.873 -0.2779  0.0887 -0.0671
 7008W        W22477   6.281  10.469  15.587  0.1723 -0.1116  0.0056
 7009W        W22478   2.572   3.675   2.384 -0.0333  0.0991 -0.3708
 7010W        W22479   3.153  14.066   1.998 -0.0714  0.0322 -0.0550
 7011W        W22480  17.391  17.401  10.498 -0.3019  0.3031  0.2981
 7012W        W22481  18.267   1.834  10.747  0.0190  0.1961  0.0441
 7013W        W22482   6.178  12.494  10.853 -0.1895  0.1698  0.1315
 7014W        W22483   1.296   9.615  12.081  0.0892  0.0028 -0.0184
 7015W        W22484   3.276  14.499   1.317  0.1524  0.4052 -0.1161
 7016W        W22485   5.198   2.057  11.546 -0.0789 -0.2392 -0.0910
 7017W        W22486  17.886   4.338   0.889  0.2063 -0.0484 -0.3198
 7018W        W22487   5.955   6.075  14.240 -0.1406 -0.1108 -0.2109
 7019W        W22488  16.339   2.054   2.622 -0.0989  0.1265  0.0356
 7020W        W22489  18.003   5.095   2.527  0.1743  0.1937  0.2057
 7021W        W22490   2.359   2.043   4.509  0.2902  0.0800  0.0484
 7022W        W22491   6.316  18.481   2.448 -0.0824  0.0744 -0.3140
 7023W        W22492   0.655  10.030   0.900  0.2041 -0.0327  0.0430
 7024W        W22493  13.731  16.019   0.680 -0.2160  0.0569  0.3148
 7025W        W22494  16.752   8.115  11.017  0.0194 -0.0899  0.1670
 7026W        W22495   0.899  14.194  14.387  0.1947  0.1130  0.2529
 7027W        W22496   0.700   3.378  13.260  0.2383 -0.0199  0.0940
 7028W        W22497  11.845   5.736  15.394 -0.1867 -0.0467  0.0911
 7029W        W22498   8.945   1.350   0.090 -0.1569 -0.2878  0.3281
 7030W        W22499   5.458   1.752  11.083  0.1906  0.0357  0.0223
 7031W        W22500   5.740   0.504  14.083  0.0303  0.3424  0.0516
 7032W        W22501   5.156  15.778  13.498 -0.1261 -0.1548 -0.0755
 7033W        W22502  10.624   4.960   5.354  0.1214 -0.0929 -0.1449
 7034W        W22503  10.824   0.097   1.699  0.1794  0.1921  0.3447
 7035W        W22504   6.272   3.013  12.402  0.0908  0.0402 -0.2530
 7036W        W22505  13.309   8.562  15.168 -0.3024  0.0712  0.0355
 7037W        W22506   1.123   6.868   1.402 -0.0851  0.3036 -0.0151
 7038W        W22507  16.045  11.390  14.728 -0.0516  0.2663  0.0807
 7039W        W22508   6.178  13.674  14.136  0.2110 -0.0381  0.1691
 7040W        W22509  11.719   4.210   3.560 -0.0104 -0.0038  0.3428
 7041W        W22510   2.834   5.721   0.036  0.0083 -0.2031  0.1660
 7042W        W22511   8.813   9.998   0.612  0.0170  0.1728 -0.2603
 7043W        W22512   3.978  15.345   3.085  0.1798  0.1134  0.0657
 7044W        W22513   9.295  16.633   3.082  0.2639 -0.0039  0.1783
 7045W        W22514   8.648   7.889  11.324 -0.0085 -0.0114  0.2565
 7046W        W22515   8.872   8.725  11.505  0.0666 -0.0356 -0.1385
 7047W        W22516   8.330   3.114   4.438 -0.0745  0.2952  0.0024
 7048W        W22517   1.280   6.715   3.748  0.1111  0.2537  0.0964
 7049W        W22518  11.189  11.508   4.710  0.0214  0.0212  0.1276
 7050W        W22519   6.241  13.564  15.532 -0.1530  0.0526  0.3824
 7051W        W22520   3.760  18.577  14.845 -0.1062  0.0029 -0.1758
 7052W        W22521   3.827  13.184   3.692 -0.0924  0.2589  0.0826
 7053W        W22522   2.632   7.580  15.692  0.1588  0.0991 -0.1864
 7054W        W22523  10.730  13.924   5.701 -0.0185 -0.0464 -0.2150
 7055W        W22524  13.785   3.828   2.522  0.0295  0.0764  0.1076
 7056W        W22525  11.649   0.559   0.565  0.2640  0.0562  0.0214
 7057W        W22526  17.343  14.735   3.443 -0.2088  0.2804 -0.3628
 7058W        W22527  15.764  10.798   1.909 -0.1755 -0.1798  0.3011
 7059W        W22528   0.028  12.313  15.371  0.2708  0.3645  0.2859
 7060W        W22529  18.544  16.820  12.419  0.1759  0.2451  0.0404
 7061W        W22530  15.753  11.743   0.468  0.2081 -0.0566 -0.0768
 7062W        W22531  11.208   3.143   0.426  0.1469  0.4144 -0.1592
 7063W        W22532   5.158  13.330   2.333 -0.4350  0.3212 -0.0236
 7064W        W22533  12.661   3.501   1.757 -0.1606  0.0637 -0.1225
 7065W        W22534  12.708   5.981   2.229 -0.2856  0.0685 -0.1190
 7066W        W22535   9.658   0.966   3.565  0.0360  0.2186 -0.0258
 7067W        W22536  17.345   5.686  14.487 -0.1858 -0.1872  0.0075
 7068W        W22537   8.737   2.649  12.409 -0.2096 -0.4162  0.1671
 7069W        W22538  10.432   7.628   5.593 -0.1773  0.0164 -0.0873
 7070W        W22539   8.095   8.350   2.305 -0.0447 -0.0927 -0.1869
 7071W        W22540  17.501  15.310  13.018 -0.0016 -0.1163 -0.0425
 7072W        W22541  11.774  17.813  13.951 -0.0596  0.0985 -0.4674
 7073W        W22542  14.149  15.373  10.653  0.1287  0.0323  0.0570
 7074W        W22543  13.208   1.283   5.415  0.0045 -0.3766  0.2513
 7075W        W22544   4.619   9.881   0.241  0.3132 -0.0579  0.1122
 7076W        W22545  12.246   5.926  14.304  0.0732 -0.0220 -0.2100
 7077W        W22546   4.719   8.623  12.293  0.1283  0.1720  0.4254
 7078W        W22547  13.777   7.214  12.686  0.0848  0.1325  0.0429
 7079W        W22548  10.217  15.260   3.695  0.2126 -0.0252 -0.2719
 7080W        W22549   0.573  12.539  14.330  0.1403 -0.1127 -0.0935
 7081W        W22550   5.319  16.369  13.190 -0.1186 -0.0632 -0.1061
 7082W        W22551  10.207   7.978  13.568  0.1885  0.2316 -0.2884
 7083W        W22552  13.930   1.003   3.332  0.1881  0.0374  0.1043
 7084W        W22553   8.941   5.084  14.549 -0.0145 -0.2276  0.0470
 7085W        W22554   5.331  11.258   4.618 -0.0289 -0.2491 -0.1890
 7086W        W22555  13.445  14.929   4.506 -0.1789  0.1873  0.2843
 7087W        W22556   7.503  13.299  12.799 -0.1034 -0.2937 -0.1523
 7088W        W22557  11.752   5.073   3.713 -0.1495 -0.2898 -0.1864
 7089W        W22558   5.752   3.408  13.807  0.1647 -0.1160 -0.1198
 7090W        W22559  17.660  18.271   1.625  0.1416  0.0575 -0.0727
 7091W        W22560  13.492  15.940   1.625  0.0092  0.3954  0.0500
 7092W        W22561   0.977  13.118  14.185  0.0658 -0.1227  0.2272
 7093W        W22562  17.158  16.645   1.667 -0.3795  0.3210  0.1095
 7094W        W22563  14.394  16.506  13.539 -0.1834  0.1251  0.2137
 7095W        W22564  13.947  16.755   0.582 -0.0128  0.3469  0.1093
 7096W        W22565  15.034  14.383   5.650 -0.0513 -0.2929 -0.0038
 7097W        W22566   5.379   3.376   1.043  0.0174  0.0067  0.1084
 7098W        W22567   9.293  11.571   0.260  0.3793  0.1496 -0.1579
 7099W        W22568  16.412   2.695  12.121 -0.1797  0.0677 -0.0049
 7100W        W22569   8.636  15.041   5.012  0.1347 -0.3838 -0.0019
 7101W        W22570  12.582  10.141   2.374  0.3151  0.2477  0.1848
 7102W        W22571  13.310   9.732  10.803 -0.0872  0.1862 -0.0069
 7103W        W22572  17.530   7.817  12.888  0.3218 -0.1741 -0.3880
 7104W        W22573  18.245  16.910  14.719  0.0293  0.1996  0.2003
 7105W        W22574  14.927   5.579  12.752 -0.0142  0.2068 -0.0969
 7106W        W22575  14.113  16.368   4.050  0.1974  0.1566  0.2665
 7107W        W22576   2.596   1.639  15.084 -0.2430 -0.0349  0.1308
 7108W        W22577  13.820   2.474  10.977  0.0651 -0.1968 -0.1957
 7109W        W22578   4.387   1.481   5.156 -0.0877 -0.2146 -0.1828
 7110W        W22579   7.776   0.405  14.876  0.2949  0.0429 -0.0100
 7111W        W22580  10.145   9.195   3.527 -0.1240 -0.0096 -0.3195
 7112W        W22581  17.018   6.526  14.360  0.0278  0.3997  0.1229
 7113W        W22582   7.644  11.819   0.588  0.1893  0.1427  0.1088
 7114W        W22583   9.773  12.152   1.884 -0.2492  0.1260 -0.1091
 7115W        W22584  16.774  18.582   4.789  0.0622  0.1929 -0.4296
 7116W        W22585   7.527  16.681   1.941  0.0734 -0.2890 -0.0183
 7117W        W22586   6.766  16.757   3.704  0.0077  0.2449  0.3904
 7118W        W22587   6.718   3.524  12.888 -0.4060  0.2975  0.2349
 7119W        W22588   0.076   8.895  12.402 -0.2247  0.1615 -0.0892
 7120W        W22589  10.182   9.787  10.198  0.0030  0.0386  0.1716
 7121W        W22590   0.925  15.090   1.539 -0.1138  0.0881 -0.0307
 7122W        W22591   8.854   9.063   3.606 -0.0206 -0.2540  0.1250
 7123W        W22592   6.410   1.579  12.603  0.2215 -0.0417 -0.4533
 7124W        W22593  18.141  18.163   4.135 -0.1598 -0.0097  0.0352
 7125W        W22594   9.211  14.905  15.249 -0.3229  0.1400 -0.2666
 7126W        W22595  16.434  11.322   0.815  0.0888 -0.4282  0.0955
 7127W        W22596  12.812  17.224   3.273  0.0434 -0.3209  0.1298
 7128W        W22597  14.154   9.705   1.783 -0.0760  0.3285  0.0559
 7129W        W22598  10.497   9.811  14.275  0.1217 -0.2012 -0.1286
 7130W        W22599   5.324  14.967   1.234 -0.0765 -0.3433 -0.0445
 7131W        W22600  16.304   4.011   0.828 -0.1622 -0.2260  0.2102
 7132W        W22601   7.750  11.191  10.175  0.2616 -0.1126  0.0050
 7133W        W22602  17.756   0.911   4.974  0.0839 -0.0232 -0.0139
 7134W        W22603  16.155   4.461   1.749 -0.0748 -0.1687 -0.0687
 7135W        W22604  10.221   2.940   4.470  0.2067 -0.2040  0.2706
 7136W        W22605  14.574   5.904  13.690 -0.1985  0.0481 -0.0004
 7137W        W22606   6.588   4.429   2.428 -0.1426  0.1127  0.3283
 7138W        W22607   0.604  13.888  13.370  0.2533  0.0176 -0.1384
 7139W        W22608   1.007  18.300   2.598  0.3081  0.0269 -0.1023
 7140W        W22609   0.342   6.687  14.265 -0.2442  0.0964  0.0772
 7141W        W22610   7.102  15.174   5.052 -0.0279  0.2268 -0.2061
 7142W        W22611   4.548   9.706  14.273  0.2137  0.0890 -0.0877
 7143W        W22612  10.699  12.739  11.172 -0.2432 -0.3137  0.2489
 7144W        W22613   8.715   2.176  12.428 -0.0262  0.4730 -0.1414
 7145W        W22614   6.674  14.780  14.503  0.2874  0.0063  0.0967
 7146W        W22615  16.123   2.785  15.154  0.0382  0.1909 -0.1515
 7147W        W22616   0.473   2.329   2.065  0.0964  0.0782 -0.2368
 7148W        W22617  18.603  13.133   2.449  0.2037  0.3031  0.2637
 7149W        W22618   1.205  12.024  14.708  0.1933 -0.0497  0.2636
 7150W        W22619  10.627  16.171   1.794  0.4418  0.2896 -0.1141
 7151W        W22620  15.707   2.609   4.587  0.2639 -0.1241 -0.2235
 7152W        W22621  14.546   9.314   1.978  0.0561 -0.4273 -0.5162
 7153W        W22622   5.579   4.844  12.780  0.0777 -0.1850  0.1761
 7154W        W22623  14.149   9.458   3.944  0.2420  0.1204 -0.1821
 7155W        W22624   3.841  13.524  12.388  0.0647 -0.2529  0.2375
 7156W        W22625   0.309   1.158  11.323  0.1207  0.2479  0.0168
 7157W        W22626  18.331  17.847  10.399  0.3284  0.0581  0.4342
 7158W        W22627  11.341   5.141  14.777 -0.1067  0.1052  0.2575
 7159W        W22628   4.145  14.831   0.115 -0.1010 -0.0854  0.1873
 7160W        W22629  12.082   7.356  14.713  0.3645  0.1869 -0.3387
 7161W        W22630   6.586   6.921  14.758 -0.4961  0.1213 -0.0137
 7162W        W22631  11.896   5.161   1.535  0.0996  0.0686  0.0392
 7163W        W22632   0.536   2.910  14.066  0.1077  0.0880 -0.0262
 7164W        W22633   1.356  11.656   0.231  0.2074 -0.0005  0.0513
 7165W        W22634  14.556  18.291  13.043  0.0030  0.5793 -0.2735
 7166W        W22635   4.816   5.020   4.253  0.2072  0.2913 -0.1533
 7167W        W22636  10.548   4.422   0.268  0.1727  0.0697  0.2695
 7168W        W22637   4.685   4.714  10.556 -0.0261 -0.0924 -0.1525
 7169W        W22638   6.211  17.557   0.010 -0.0596 -0.0210  0.1298
 7170W        W22639   8.376   3.189   0.565  0.0058 -0.1237  0.2449
 7171W        W22640   7.758   3.460   5.284  0.0972  0.1058 -0.1371
 7172W        W22641  15.171   9.156   2.423 -0.1340 -0.2064 -0.0996
 7173W        W22642   0.536  15.138  14.973 -0.0794  0.0896 -0.1194
 7174W        W22643  13.472  12.571  13.488 -0.1592 -0.2549 -0.0565
 7175W        W22644   2.169   9.021  14.054 -0.2536  0.3538  0.1334
 7176W        W22645  15.840   9.481   3.498 -0.1358 -0.0584 -0.1414
 7177W        W22646   8.233   8.668  10.608  0.0784  0.0786  0.0206
 7178W        W22647   6.790  13.048  13.372 -0.0563 -0.0802 -0.2132
 7179W        W22648  17.113   6.947  10.912 -0.0758  0.0760  0.1991
 7180W        W22649  17.170   9.906  14.751  0.0686 -0.0842  0.3302
 7181W        W22650   4.117  18.371   0.919  0.0610  0.2721 -0.4177
 7182W        W22651  17.658  10.805  14.927 -0.1232 -0.3990 -0.0191
 7183W        W22652   0.060   3.644   0.508  0.1647 -0.0479 -0.0931
 7184W        W22653   6.676  15.142   2.336  0.0035  0.4110 -0.0270
 7185W        W22654  12.336  13.008  13.827 -0.4842 -0.2189  0.2761
 7186W        W22655   3.365   4.121  12.615  0.2115 -0.0122  0.1719
 7187W        W22656  14.243  13.024   2.321  0.0798  0.2446 -0.0401
 7188W        W22657  18.512  14.379  14.972  0.2666  0.0283 -0.0561
 7189W        W22658  15.355   8.424  13.934  0.0350  0.0253 -0.1610
 7190W        W22659   7.113  18.388  11.053  0.1834 -0.0995  0.0978
 7191W        W22660  16.756  13.356   1.795  0.1964  0.0068 -0.0238
 7192W        W22661   2.460   8.138   4.845  0.0689 -0.1078 -0.3808
 7193W        W22662   4.829  17.902   1.800 -0.2295  0.1917 -0.1596
 7194W        W22663  16.331  18.264   4.817  0.1543 -0.1405  0.0073
 7195W        W22664   8.560   1.140  12.683  0.0442  0.0471  0.3975
 7196W        W22665   6.666   4.028   3.011 -0.1259  0.1855  0.0768
 7197W        W22666   1.335   8.242   9.413 -0.1876  0.3818  0.0245
 7198W        W22667   1.426  11.050   4.659 -0.1295 -0.2117  0.1035
 7199W        W22668   6.553   0.664  10.425  0.0786  0.2116 -0.1422
 7200W        W22669   4.324   4.023   2.848 -0.0804 -0.0938 -0.0901
 7201W        W22670   8.580   4.872   3.843 -0.1778 -0.0799 -0.0325
 7202W        W22671   6.195   5.853  13.828  0.2361 -0.0383  0.2530
 7203W        W22672   0.040   5.457  14.545  0.0459  0.0619  0.0141
 7204W        W22673   3.816  12.530  14.430 -0.0163 -0.4104 -0.0553
 7205W        W22674   8.646  12.537  14.707 -0.1634 -0.0368 -0.0605
 7206W        W22675   2.254   2.812   2.902  0.0652  0.0583  0.2374
 7207W        W22676   8.689  18.312   2.842 -0.2710  0.0254 -0.1662
 7208W        W22677  15.169  14.053   0.691 -0.0806  0.1549  0.2204
 7209W        W22678  10.003  17.042  13.346 -0.4078 -0.0001  0.1187
 7210W        W22679   9.619   3.718  13.084 -0.5477 -0.2351  0.0875
 7211W        W22680   9.380   5.824  15.496 -0.2566  0.2319 -0.0858
 7212W        W22681  16.673  15.817   0.659  0.1259 -0.0931  0.1754
 7213W        W22682  18.262  13.810   1.950  0.0682 -0.0085  0.0025
 7214W        W22683   4.657  14.354   2.672  0.0105 -0.1832 -0.2228
 7215W        W22684  12.893   4.212   0.333  0.0794  0.2406  0.1774
 7216W        W22685  17.566   9.490   0.220 -0.0429  0.1360  0.0630
 7217W        W22686   4.553   6.147   0.397  0.0945  0.2552  0.3235
 7218W        W22687  18.588   6.206   3.527  0.0529 -0.1349 -0.1009
 7219W        W22688   8.001   2.940  13.454 -0.2382 -0.0086 -0.0184
 7220W        W22689   5.543  16.421  11.888 -0.2381 -0.1812  0.1254
 7221W        W22690   0.167   6.131  10.692 -0.1080  0.2668  0.1809
 7222W        W22691   8.129   1.759  13.373 -0.0552 -0.0127 -0.1269
 7223W        W22692  15.192   5.800   1.568 -0.0516  0.0909 -0.0737
 7224W        W22693   5.919   3.980  12.587 -0.2368  0.0873 -0.0153
 7225W        W22694  11.529  15.879   5.648  0.3921  0.1121 -0.2293
 7226W        W22695  11.622  10.058   1.175  0.3077  0.3015  0.0885
 7227W        W22696   2.706   2.034   5.897  0.2877  0.1109 -0.0421
 7228W        W22697   9.656  14.861   3.084 -0.2956 -0.2022  0.0648
 7229W        W22698   2.136  14.415  13.732 -0.1905 -0.0737 -0.1709
 7230W        W22699  10.414  13.981  14.450 -0.0517  0.2653 -0.2153
 7231W        W22700   1.681  13.019  13.220  0.0620  0.1091 -0.0934
 7232W        W22701   1.757   5.493   2.402  0.2076 -0.3500 -0.1639
 7233W        W22702   5.689  15.555   2.594 -0.2791 -0.3422  0.1781
 7234W        W22703  10.820   1.485   0.422  0.0393  0.1334  0.0086
 7235W        W22704   0.471   7.868   3.890  0.1970  0.0066 -0.0169
 7236W        W22705  17.180   5.066   2.448  0.0582 -0.0458  0.0987
 7237W        W22706  13.526  12.713   3.115 -0.0191 -0.0195  0.4012
 7238W        W22707  15.831   0.632   5.723  0.1492  0.4039 -0.2400
 7239W        W22708  17.514  17.273   2.259  0.0271 -0.0789 -0.0092
 7240W        W22709   0.028  11.794   4.093 -0.0269  0.0692 -0.2138
 7241W        W22710  11.966  16.680   3.428 -0.2114  0.0903  0.3259
 7242W        W22711   2.749  17.431   2.799  0.0386  0.2210  0.2050
 7243W        W22712   6.720   5.938  13.657  0.1389  0.0244 -0.0562
 7244W        W22713   3.923   2.726   3.737  0.2370  0.0952  0.0583
 7245W        W22714   1.362   4.969  10.585 -0.0179 -0.0042 -0.0148
 7246W        W22715   4.516  17.310   2.510 -0.1362 -0.2375  0.1124
 7247W        W22716   0.797  11.495   4.772 -0.3966  0.0888  0.1640
 7248W        W22717  13.677   4.116   0.963 -0.1835  0.2477  0.0572
 7249W        W22718  12.281  11.635  13.791  0.2084 -0.0044 -0.0516
 7250W        W22719  14.769   2.249  10.989 -0.1159 -0.0902  0.0088
 7251W        W22720  12.966  16.262   2.197 -0.1127 -0.1247 -0.0459
 7252W        W22721  15.558   3.768  15.314 -0.2796  0.0456  0.0769
 7253W        W22722  15.118  13.854  14.363  0.2757  0.0315  0.3199
 7254W        W22723  10.737   7.564   0.309  0.0376 -0.0930  0.0410
 7255W        W22724   4.471  10.488  14.775  0.0865  0.0023  0.2677
 7256W        W22725  11.426  11.523   6.011 -0.0430 -0.3380 -0.2351
 7257W        W22726  18.182   5.459   1.058 -0.1796  0.1128  0.1929
 7258W        W22727  15.716   3.123   1.194 -0.1211  0.0671  0.0070
 7259W        W22728  17.401  13.577   5.031 -0.2705 -0.1093  0.2017
 7260W        W22729   5.307   7.767   5.044 -0.1612  0.0561 -0.0300
 7261W        W22730   1.169  17.099   4.528  0.1474  0.1507 -0.0266
 7262W        W22731   6.772  10.863   2.006  0.0177 -0.1369 -0.4613
 7263W        W22732  12.062  17.383   1.660 -0.2980 -0.3809  0.0062
 7264W        W22733   1.453  14.921  10.999 -0.1953  0.0011 -0.1395
 7265W        W22734  13.333   6.984   9.845  0.2175  0.1065  0.2106
 7266W        W22735   8.320  17.842  11.001  0.0097 -0.0862 -0.1080
 7267W        W22736  18.118   8.995  15.224  0.0539 -0.0381  0.1833
 7268W        W22737   6.592   7.437   3.779 -0.2037  0.0498 -0.1576
 7269W        W22738  14.729  16.126   3.273 -0.1814 -0.1347  0.3332
 7270W        W22739   8.443   2.207   1.537 -0.0219  0.2824  0.1227
 7271W        W22740  11.381  12.829  11.819  0.0075  0.2007  0.2630
 7272W        W22741  17.622  18.323  13.311  0.0805 -0.0253 -0.0591
 7273W        W22742   0.324  14.240  12.232  0.0949  0.2058 -0.2421
 7274W        W22743  14.375   6.542   4.157  0.2637 -0.0202 -0.3419
 7275W        W22744  16.674   1.568   1.370 -0.0329  0.0216 -0.1043
 7276W        W22745  11.007   4.160   0.204  0.1492  0.1462  0.1604
 7277W        W22746  16.538   8.674   4.717  0.1598 -0.0835 -0.0694
 7278W        W22747  15.266  16.865  13.392 -0.2319  0.0776  0.0350
 7279W        W22748  17.486   3.791   2.007  0.1602  0.1392 -0.4072
 7280W        W22749   6.278  13.816  12.893 -0.0528 -0.2791 -0.1997
 7281W        W22750  11.965   2.680  10.348 -0.0761  0.3019  0.1792
 7282W        W22751  16.642  14.915  12.608 -0.0131 -0.0002  0.1608
 7283W        W22752  11.280  18.038   4.311 -0.0731 -0.2447  0.4831
 7284W        W22753   1.538  18.020  11.196  0.0123 -0.0504 -0.1132
 7285W        W22754  14.597   1.630   2.425 -0.0917  0.2539  0.3630
 7286W        W22755   6.387   7.705  13.449 -0.3877  0.1043 -0.1529
 7287W        W22756  15.738  16.483   1.267 -0.2026  0.0050  0.0653
 7288W        W22757  16.455  18.204  12.162 -0.0241  0.2529  0.0615
 7289W        W22758  15.700   0.366   3.334  0.0689 -0.2766 -0.1828
 7290W        W22759   9.381  10.978   4.252  0.0529  0.1333  0.0299
 7291W        W22760  16.576   6.684   5.171  0.1952  0.4268 -0.2914
 7292W        W22761  12.817  10.038   3.218 -0.0765 -0.2657 -0.3388
 7293W        W22762  14.700  17.979   1.572 -0.1672 -0.1360 -0.0116
 7294W        W22763   8.537   7.272  12.517  0.2972 -0.2415 -0.1246
 7295W        W22764   9.650  17.236   4.229  0.0963 -0.1694 -0.0358
 7296W        W22765  14.414  13.937  11.818  0.0197  0.1133  0.0471
 7297W        W22766   1.372   1.943   3.786  0.4630  0.0280  0.0256
 7298W        W22767  11.475   0.431   3.280  0.1098  0.2072  0.0964
 7299W        W22768  15.870   1.682  15.311 -0.1470 -0.2172 -0.0787
 7300W        W22769   2.451  14.656  14.305 -0.1761  0.2734  0.0396
 7301W        W22770  17.998   6.977  12.620  0.0291  0.2511  0.0634
 7302W        W22771  10.353  12.371  13.194 -0.2672  0.0536 -0.1446
 7303W        W22772   3.992  10.282  12.550 -0.0376  0.1253  0.0630
 7304W        W22773   4.078  18.323  12.115  0.0550 -0.1217  0.0863
 7305W        W22774   4.918   6.029  11.648  0.2513 -0.1476  0.4416
 7306W        W22775   5.633   1.196  12.710  0.2502 -0.2351  0.1618
 7307W        W22776  16.327   7.632  10.250 -0.0980  0.0952 -0.2174
 7308W        W22777   3.773   3.142   2.814  0.2207  0.0392 -0.0160
 7309W        W22778  10.294  10.479   2.372 -0.1341 -0.2026 -0.2391
 7310W        W22779   0.749   8.174  12.304 -0.0891 -0.0847 -0.0282
 7311W        W22780  11.977  13.540  14.787 -0.0206  0.1917 -0.1306
 7312W        W22781   6.002   8.891   3.718  0.0802  0.1400  0.2631
 7313W        W22782  13.212   4.020  11.442 -0.0161 -0.0104  0.2358
 7314W        W22783   6.629  16.868   2.317 -0.1446 -0.2029 -0.4108
 7315W        W22784   8.757  16.501  13.506 -0.2618  0.4905  0.4343
 7316W        W22785  12.056  16.409  11.219 -0.2161  0.0572 -0.6170
 7317W        W22786  11.068   8.451   5.241 -0.1439  0.0932  0.3945
 7318W        W22787   7.845   5.943   1.048 -0.0352  0.0073 -0.1664
 7319W        W22788   1.274   6.330  11.750 -0.0570 -0.0240  0.1555
 7320W        W22789   9.635  10.992   2.776  0.2346 -0.0362  0.1765
 7321W        W22790  10.618   5.278   4.549 -0.0969 -0.1631  0.0344
 7322W        W22791  16.835   5.512   2.566  0.1268 -0.0265 -0.0227
 7323W        W22792   6.763   3.679  14.780 -0.0569  0.1852 -0.2303
 7324W        W22793  16.724  15.419   0.338  0.1867 -0.2499  0.1429
 7325W        W22794  15.638   5.360   0.219  0.0194 -0.0080 -0.1640
 7326W        W22795   6.038  17.355   0.464 -0.0666 -0.1314 -0.2298
 7327W        W22796  15.776  10.562   3.821  0.0414 -0.0758 -0.0124
 7328W        W22797   6.667   3.107   0.245  0.0910  0.1176  0.2467
 7329W        W22798  12.110   0.325   0.537 -0.1151  0.0623 -0.1658
 7330W        W22799  14.473   9.503   1.353 -0.0323  0.2324 -0.1476
 7331W        W22800   5.743  14.820  14.102  0.0365  0.0448  0.0377
 7332W        W22801  17.668  11.430   2.718  0.1653  0.0131 -0.0827
 7333W        W22802  17.570   8.264  12.127 -0.1970  0.3222  0.1071
 7334W        W22803   4.464   8.031   0.312  0.2494  0.1621 -0.1112
 7335W        W22804   3.521  15.169   3.306 -0.1142  0.1359 -0.0877
 7336W        W22805   9.764   9.097   0.713  0.0668  0.0766  0.0993
 7337W        W22806   3.992  11.870   0.588  0.0485 -0.3595  0.1760
 7338W        W22807  14.437  17.156  11.331 -0.2472  0.0801 -0.1632
 7339W        W22808   9.165   4.711   0.848 -0.0053  0.1848  0.0026
 7340W        W22809   8.866   8.436   1.412 -0.1475  0.0832  0.3631
 7341W        W22810   8.296  15.345  11.414  0.0470  0.0876  0.3112
 7342W        W22811  17.277   4.303  15.178  0.1206 -0.3727  0.1149
 7343W        W22812  16.231   3.628  13.821 -0.2663  0.2011 -0.2946
 7344W        W22813  12.798   2.725   5.949 -0.2371 -0.0600  0.3141
 7345W        W22814   4.861   5.918   4.071 -0.1243 -0.1669  0.2012
 7346W        W22815   4.213   8.998   2.499  0.1426  0.2165  0.1358
 7347W        W22816   7.568  14.529   1.671  0.1855  0.0909  0.0355
 7348W        W22817  13.089   1.064  11.124  0.0112  0.2060  0.1666
 7349W        W22818   9.390   5.842   6.191  0.1775  0.0562 -0.3304
 7350W        W22819  17.928  14.522   1.337 -0.5715 -0.1066 -0.0353
 7351W        W22820   1.965   2.433  15.136  0.0068  0.0890 -0.1220
 7352W        W22821   3.016   3.511   0.764  0.1959  0.1807  0.1332
 7353W        W22822  14.345   1.027   0.828 -0.3563  0.1155 -0.0697
 7354W        W22823   9.654   5.873  12.029  0.0398 -0.2398  0.0287
 7355W        W22824   2.854  16.341   0.520  0.4558 -0.1195 -0.0300
 7356W        W22825   9.712   1.065   1.163  0.4733 -0.2163  0.0927
 7357W        W22826  10.819  13.748  11.617 -0.0463 -0.2692 -0.0252
 7358W        W22827   1.390  18.063   2.646 -0.2441  0.0666 -0.4005
 7359W        W22828   0.395  16.593   1.571  0.0057 -0.1084 -0.0602
 7360W        W22829   5.037  10.513   2.118 -0.1003  0.0278 -0.3171
 7361W        W22830   1.747  15.244  15.286  0.0913  0.0383 -0.1590
 7362W        W22831   3.235  11.544  13.531 -0.1038  0.2468  0.1807
 7363W        W22832  17.855   9.307  14.444 -0.3628  0.5572  0.0246
 7364W        W22833  10.689   1.107   0.777 -0.0360 -0.0061 -0.0421
 7365W        W22834   4.570   0.164   5.434  0.1142  0.0473  0.2880
 7366W        W22835   1.470  14.270   1.561 -0.1759 -0.2867  0.4247
 7367W        W22836  17.767   1.681  13.289  0.1401  0.0666  0.1601
 7368W        W22837   0.064  16.940  14.282 -0.0936  0.1479 -0.0072
 7369W        W22838  16.359  14.513  12.841 -0.1391  0.2618  0.2753
 7370W        W22839  14.930  10.945  12.558  0.0332  0.0594  0.1842
 7371W        W22840   0.895   3.111   2.417  0.0721 -0.1351  0.1093
 7372W        W22841   7.074   1.596   3.660  0.1071  0.0254  0.1151
 7373W        W22842   9.668   9.734   4.880 -0.2668 -0.2279  0.0998
 7374W        W22843  15.447   7.865   4.699  0.1521 -0.0333 -0.1477
 7375W        W22844   9.183  14.875   3.557  0.1821 -0.1796 -0.1912
 7376W        W22845  15.297   4.164  12.335  0.0216 -0.3552 -0.2356
 7377W        W22846  18.421   4.541   4.380  0.2165  0.0110 -0.0715
 7378W        W22847  12.103   5.699   0.814  0.0220 -0.0718 -0.0729
 7379W        W22848   5.607  12.751   2.717  0.0192 -0.0682 -0.1099
 7380W        W22849  13.988   3.451  11.194  0.1936 -0.0034 -0.3081
 7381W        W22850  12.405   8.669  11.752 -0.0743 -0.1777  0.0629
 7382W        W22851   5.656  14.481   3.035  0.0423  0.0679  0.0517
 7383W        W22852  15.050  13.670   1.222  0.1776  0.0648 -0.1941
 7384W        W22853   5.790  16.365  15.183  0.1260 -0.0127 -0.0790
 7385W        W22854  14.501   7.665  12.450 -0.0343 -0.2560  0.1631
 7386W        W22855   3.723   5.715  15.090 -0.0130 -0.1616  0.1137
 7387W        W22856  17.236   5.588   4.204  0.1584 -0.0921  0.3070
 7388W        W22857   7.660   3.083   0.942  0.0893  0.1034  0.3339
 7389W        W22858   9.413   4.369   1.723 -0.0821 -0.3744 -0.0408
 7390W        W22859  16.801   6.172  13.417 -0.0595 -0.2585  0.0188
 7391W        W22860  15.422  15.489  14.618 -0.1406 -0.1042 -0.0520
 7392W        W22861  16.723  17.293  15.780  0.3790  0.0444 -0.1504
 7393W        W22862   4.552  14.789   4.988 -0.0250 -0.1346 -0.0383
 7394W        W22863  16.151  17.532  12.207  0.3026  0.2954  0.0431
 7395W        W22864   3.328  11.072  14.748 -0.0493 -0.0381 -0.0941
 7396W        W22865  16.809  12.894   2.472 -0.4238  0.1097 -0.0041
 7397W        W22866   9.715  12.105  11.709 -0.1724  0.1171  0.1197
 7398W        W22867  12.519   7.253   4.620 -0.1521 -0.0874  0.0840
 7399W        W22868   2.603  15.717  15.217  0.0736 -0.1756  0.0553
 7400W        W22869  10.869  14.449  14.225 -0.0344 -0.0919 -0.0531
 7401W        W22870   3.996   1.292  13.617  0.1642  0.1872  0.0101
 7402W        W22871   9.273  11.872   4.641  0.1467  0.0599  0.0934
 7403W        W22872  13.280  15.523   1.327  0.0054  0.3140 -0.1887
 7404W        W22873  18.140   9.521   1.261 -0.0979  0.1210 -0.1168
 7405W        W22874  11.422  12.114  14.092  0.2057 -0.0525  0.1096
 7406W        W22875  15.289   4.453  14.530 -0.1592  0.3068 -0.1096
 7407W        W22876   2.546   0.509  14.460  0.1143  0.0015  0.3615
 7408W        W22877  17.382  11.995  12.825  0.2363  0.2566 -0.2579
 7409W        W22878   3.115  10.857  11.869 -0.0160  0.1406  0.2462
 7410W        W22879   7.327  12.949   0.915 -0.2323  0.0650 -0.3738
 7411W        W22880  11.630   9.409  14.274 -0.0073  0.0965  0.0362
 7412W        W22881  11.900  16.973   3.029 -0.2661 -0.2902  0.0422
 7413W        W22882   1.191   6.194   2.745 -0.2028  0.3546 -0.1179
 7414W        W22883   1.623  10.076  12.158 -0.1229  0.4513 -0.0306
 7415W        W22884   5.122  15.982   2.802  0.1960 -0.2999  0.0212
 7416W        W22885   0.397   6.076  15.219 -0.0292  0.0624 -0.1291
 7417W        W22886   5.873   3.437  12.409  0.0260  0.0086 -0.1115
 7418W        W22887   2.984  15.973  11.565 -0.1753  0.1962  0.2564
 7419W        W22888   2.598  10.441   1.540 -0.1984  0.1893 -0.1395
 7420W        W22889  10.510   0.609   0.625  0.2329 -0.1625  0.2154
 7421W        W22890  15.917   7.643   0.303 -0.1304 -0.2258 -0.2415
 7422W        W22891   3.348  12.741  14.004 -0.5275 -0.1609 -0.3138
 7423W        W22892  10.460  16.343   4.130 -0.1997  0.2298 -0.4478
 7424W        W22893  13.065   1.447  13.436  0.2158  0.0362 -0.4498
 7425W        W22894  10.919   8.165   1.417 -0.1233 -0.1431  0.2700
 7426W        W22895  14.323   0.272   1.813  0.1464  0.2624  0.2019
 7427W        W22896  12.079   7.895  13.909 -0.1210 -0.0513  0.1495
 7428W        W22897  15.440   7.355   4.670 -0.0457  0.1138 -0.0835
 7429W        W22898   0.964  13.415  10.579 -0.4919  0.1339  0.0443
 7430W        W22899   1.619   6.647  11.502  0.0958  0.0500 -0.4608
 7431W        W22900   8.606  10.970   3.233 -0.1213  0.0459  0.1833
 7432W        W22901  10.821   1.163   3.992  0.0976  0.0093  0.0326
 7433W        W22902   0.091  16.402  12.114 -0.1098 -0.2182 -0.1020
 7434W        W22903  18.035   8.842   0.502  0.3627 -0.1485 -0.0719
 7435W        W22904   9.831   3.823   1.244  0.1279  0.0711 -0.3054
 7436W        W22905  12.917  10.945   0.466  0.0038 -0.1838 -0.1378
 7437W        W22906   0.230  11.590   1.353  0.2088 -0.1209  0.0910
 7438W        W22907   6.378   4.684   1.662  0.1550 -0.1364 -0.0202
 7439W        W22908   7.134  16.305   2.223  0.2128  0.2087 -0.1304
 7440W        W22909  14.138   0.497   4.929 -0.1149 -0.1130 -0.1810
 7441W        W22910  15.896   2.481  14.702  0.0671 -0.1803  0.1285
 7442W        W22911  16.819   6.036   4.703  0.0484 -0.3380 -0.1174
 7443W        W22912  13.202  12.321  14.216  0.0452 -0.1582 -0.2007
 7444W        W22913  12.589  18.279   2.561 -0.1202  0.2555  0.1046
 7445W        W22914   3.311   9.165  14.257 -0.0212  0.1945  0.0683
 7446W        W22915  17.144  18.056   3.008 -0.1352 -0.0543  0.0718
 7447W        W22916  18.417   3.939  11.612  0.0767 -0.1122 -0.0496
 7448W        W22917   6.093   8.768  15.024  0.2522 -0.0328  0.1846
 7449W        W22918  16.078   9.748  10.919  0.1681  0.0418 -0.0396
 7450W        W22919   8.033   8.945  10.223 -0.2250  0.2411  0.0052
 7451W        W22920  18.031   1.284   3.737 -0.0617  0.0164  0.2823
 7452W        W22921   1.259  11.251  10.432  0.0054 -0.3206 -0.1254
 7453W        W22922   6.791   2.116  12.380 -0.0251  0.0841 -0.4540
 7454W        W22923   2.709  14.252  14.191  0.2215 -0.0639 -0.0827
 7455W        W22924  10.819  15.864   0.325  0.0516  0.1553 -0.1032
 7456W        W22925   4.213   4.783  11.975 -0.0380  0.1128  0.1742
 7457W        W22926  17.245  12.339  15.654  0.1594  0.1749 -0.0822
 7458W        W22927   2.754   9.909   1.514 -0.0493 -0.1596 -0.1365
 7459W        W22928   8.070  14.499   0.707 -0.1732 -0.1556 -0.3457
 7460W        W22929  16.392  11.968   1.690 -0.0200  0.0919 -0.0893
 7461W        W22930  11.632  18.431   2.546 -0.2293  0.2040 -0.0489
 7462W        W22931  15.358   5.580  10.870  0.0472 -0.2789  0.1638
 7463W        W22932  16.808  11.721   3.049  0.1392 -0.2431  0.1892
 7464W        W22933   8.859   9.253   2.644  0.3082 -0.4089 -0.1673
 7465W        W22934   8.608   8.959  14.920 -0.2513  0.1006  0.0816
 7466W        W22935   1.729  14.368  13.990  0.0926 -0.1110  0.1926
 7467W        W22936   2.344   0.957   3.935  0.0954 -0.2113 -0.1299
 7468W        W22937  14.029  12.405   9.977 -0.2195  0.0495  0.0992
 7469W        W22938   7.938   3.932   5.095 -0.1493  0.1094  0.0632
 7470W        W22939   7.911  14.209   1.078  0.0174  0.1001 -0.0924
 7471W        W22940   2.347  17.762   1.185  0.0479 -0.2000 -0.1361
 7472W        W22941  10.225   3.743  13.496  0.1414  0.0081 -0.0112
 7473W        W22942   8.562  17.768  12.059 -0.1442  0.0314 -0.0787
 7474W        W22943   2.731  11.310   3.913  0.0969  0.0162  0.1893
 7475W        W22944  17.127   5.634  10.904 -0.1776  0.0932  0.1686
 7476W        W22945  10.066  17.439  12.992  0.1180  0.0115  0.0561
 7477W        W22946   3.560   2.872   4.015  0.0339  0.0136 -0.1225
 7478W        W22947   6.601  17.336  13.354 -0.2107 -0.2559  0.1415
 7479W        W22948  17.219   7.656   1.679 -0.2097 -0.2328 -0.3418
 7480W        W22949  11.988  14.406   0.280  0.1010  0.2257  0.0550
 7481W        W22950   4.531   3.495   0.911  0.0620 -0.1293  0.0189
 7482W        W22951  14.414   6.843   5.393 -0.2634  0.1989 -0.1025
 7483W        W22952   0.397   4.820  13.238 -0.2221  0.3147  0.1149
 7484W        W22953  11.140  17.239  10.609  0.0721 -0.2915  0.1231
 7485W        W22954  12.062   5.701   3.824 -0.0777 -0.3849 -0.1562
 7486W        W22955  16.926   2.816  11.088  0.1497  0.2908 -0.0632
 7487W        W22956  14.187   6.832  14.926 -0.0833 -0.0654  0.1552
 7488W        W22957   1.232   9.069  14.732 -0.3113 -0.0532 -0.0430
 7489W        W22958  18.181   4.318  11.923  0.1876  0.0180 -0.0453
 7490W        W22959   6.892   1.642  11.521 -0.0252 -0.1181 -0.2985
 7491W        W22960   0.509  11.427  11.577  0.1445 -0.2754  0.0647
 7492W        W22961   8.100  18.444  12.206  0.2276 -0.3268  0.0098
 7493W        W22962  18.613   9.434  15.417 -0.3545 -0.0854  0.1033
 7494W        W22963  17.798  13.355   1.815 -0.0292 -0.1430 -0.1723
 7495W        W22964  14.649   8.192  11.754 -0.1276 -0.0822 -0.2496
 7496W        W22965   3.035  10.210  13.579  0.0158 -0.1435 -0.1274
 7497W        W22966   5.798  17.584   3.020  0.2401  0.0994 -0.1131
 7498W        W22967  17.827  13.784   5.205 -0.0988  0.1118  0.1888
 7499W        W22968   0.600  12.850  12.152  0.1717 -0.3194  0.1313
 7500W        W22969  10.760   6.607   0.202 -0.2852 -0.0242 -0.0129
 7501W        W22970  17.519   4.342   0.534  0.1941 -0.1769  0.1956
 7502W        W22971  10.624  10.578  10.979  0.0213  0.0937 -0.1377
 7503W        W22972   5.003  18.530   5.399  0.0758  0.0364 -0.0044
 7504W        W22973   7.951  10.779   5.181  0.1384 -0.1299 -0.0312
 7505W        W22974   7.281   6.824   0.193  0.0345  0.1076 -0.0689
 7506W        W22975   6.572   0.338   0.823 -0.1795 -0.0837 -0.1323
 7507W        W22976  18.393   1.223   0.448 -0.3117  0.0991  0.1661
 7508W        W22977   4.081   7.261   4.855 -0.0541  0.1195  0.1249
 7509W        W22978  12.571  10.413  13.035  0.1700 -0.0667 -0.4003
 7510W        W22979   8.651   8.198  14.857  0.2539 -0.2245  0.2066
 7511W        W22980  11.611  12.265  13.011  0.0550 -0.2267 -0.1319
 7512W        W22981   2.127  15.315   5.392  0.0714 -0.1514 -0.3831
 7513W        W22982  16.883  14.369   0.878  0.1561 -0.3710  0.2286
 7514W        W22983  13.071  12.526   4.977  0.2721  0.2342 -0.2307
 7515W        W22984  16.998  11.857   1.719  0.3205 -0.0799 -0.1510
 7516W        W22985  10.133   3.446  13.990  0.5122  0.0508  0.1511
 7517W        W22986  12.748   8.922  13.207 -0.1966 -0.0363  0.0450
 7518W        W22987   7.395   1.688   1.114  0.2064  0.2797  0.3180
 7519W        W22988   1.402  12.383   3.347  0.0452 -0.0698  0.1553
 7520W        W22989  18.001   7.972   0.532 -0.1712  0.4665  0.0741
 7521W        W22990  16.373  18.199   1.240  0.0212 -0.1535  0.3583
 7522W        W22991   5.062   6.139  13.003 -0.1708 -0.0051  0.0463
 7523W        W22992  12.604  16.300   3.054 -0.2064  0.1051 -0.0864
 7524W        W22993   6.737   2.169  13.858 -0.1467 -0.2843  0.0077
 7525W        W22994  17.682  16.380  12.731 -0.2261  0.2345  0.1803
 7526W        W22995   8.489   6.450   3.320  0.0643 -0.0472  0.0943
 7527W        W22996  14.471  13.660   1.135  0.0562 -0.4591  0.5188
 7528W        W22997   1.526   3.953   4.456  0.1352 -0.1459  0.1675
 7529W        W22998   9.204   6.676  10.993  0.1684 -0.1217 -0.1596
 7530W        W22999  10.045  16.350   0.502 -0.1164 -0.0318 -0.0180
 7531W        W23000  15.557  10.327   2.693 -0.1371 -0.2069 -0.1541
 7532W        W23001   4.138  14.732  15.100  0.1107 -0.2518  0.0426
 7533W        W23002   8.481  13.100  14.937  0.0386 -0.1334 -0.0790
 7534W        W23003   7.499  10.933   4.977 -0.2647 -0.1211 -0.0196
 7535W        W23004   8.065   5.214  11.624  0.1148 -0.2619 -0.0208
 7536W        W23005  17.000   9.474   0.245 -0.3194 -0.1785  0.2367
 7537W        W23006   7.786  13.050   3.972  0.0951 -0.1726 -0.3331
 7538W        W23007  13.683   9.883   4.611 -0.0939 -0.0970 -0.1764
 7539W        W23008   1.367   0.210   0.824  0.2908 -0.0540  0.2838
 7540W        W23009   5.282   4.185  11.299 -0.0525 -0.1195 -0.0685
 7541W        W23010   1.122  10.875   2.292 -0.0840  0.1336 -0.1785
 7542W        W23011  12.007  14.590  11.213  0.1688 -0.4569 -0.1788
 7543W        W23012  16.811  16.166  12.094  0.1106  0.3220  0.0133
 7544W        W23013  17.529   1.530   3.683 -0.1132  0.3996 -0.1059
 7545W        W23014  13.672   4.917  13.363  0.1375  0.0532  0.0771
 7546W        W23015   9.015   5.202   1.050  0.2207 -0.0666 -0.1878
 7547W        W23016   0.420   4.108  11.017 -0.0299  0.2643  0.0411
 7548W        W23017   6.821  18.331   3.696 -0.2786  0.1750 -0.0290
 7549W        W23018   1.009   6.167  14.121  0.1804 -0.1310  0.1364
 7550W        W23019   9.299   9.643   3.286 -0.2929 -0.1293  0.1301
 7551W        W23020   0.408  15.415  11.568  0.1638 -0.0610  0.1926
 7552W        W23021   7.924  15.221   2.983 -0.0735  0.1682 -0.1682
 7553W        W23022   4.014  18.013  11.686  0.1620  0.1355  0.1676
 7554W        W23023   3.694  18.502  11.813  0.1434 -0.0883  0.0439
 7555W        W23024  13.811   1.091   1.753 -0.0674 -0.3216 -0.0866
 7556W        W23025   0.144   7.713  13.541  0.0948 -0.0008 -0.0309
 7557W        W23026   2.602  11.870   0.850 -0.0094 -0.0162  0.1291
 7558W        W23027  15.951  15.671   0.963  0.0900 -0.3024  0.1221
 7559W        W23028  17.357   3.585   5.123  0.0014  0.2516 -0.1634
 7560W        W23029  14.855   9.516  11.120  0.0332  0.0546 -0.0545
 7561W        W23030  10.421  18.122   5.113 -0.2371  0.1273 -0.3073
 7562W        W23031  12.155   1.589   5.649 -0.0638  0.0684  0.0800
 7563W        W23032  16.782   8.266   3.815  0.2110  0.3153 -0.3079
 7564W        W23033   3.037   1.685  11.313  0.1728 -0.0690 -0.2297
 7565W        W23034   4.008   5.068   5.203  0.1672  0.2599  0.4344
 7566W        W23035   0.100   4.742  10.089 -0.3119 -0.0034 -0.0336
 7567W        W23036  17.452   7.239   1.854  0.0175  0.4232 -0.0401
 7568W        W23037  14.722   5.166   5.148  0.0337  0.1057  0.0046
 7569W        W23038   4.076  10.081  11.236  0.0448  0.1621 -0.2544
 7570W        W23039   0.280  14.567   5.015 -0.1117 -0.1200  0.1168
 7571W        W23040   7.557   2.182  11.530 -0.1608  0.0894  0.0631
 7572W        W23041  14.059   8.687   3.248  0.3360 -0.1602  0.2104
 7573W        W23042   3.367  16.439  12.900 -0.0665  0.0853 -0.1326
 7574W        W23043   0.740   5.817  13.041 -0.0982 -0.1924 -0.3447
 7575W        W23044   6.673  13.545  12.696 -0.1328  0.0705 -0.1692
 7576W        W23045   0.648   4.219   4.259  0.0158  0.0048  0.3104
 7577W        W23046   4.858  15.575   3.476 -0.1367 -0.1716 -0.0554
 7578W        W23047   6.267  11.550   5.067  0.3888 -0.1152 -0.1432
 7579W        W23048   2.459  10.643   0.281  0.2260 -0.0391 -0.0296
 7580W        W23049   7.717   6.440  14.922 -0.0036  0.2800 -0.1565
 7581W        W23050   8.508  16.103  10.690 -0.0855  0.1720  0.2825
 7582W        W23051   1.319   2.089   0.447 -0.2075 -0.2142  0.1084
 7583W        W23052   0.456   2.714   5.044  0.1948 -0.2659  0.1663
 7584W        W23053  13.034   3.423   3.451  0.0636  0.0197  0.0091
 7585W        W23054  14.589   0.057  13.380 -0.0209  0.4206 -0.2772
 7586W        W23055   8.677  10.140  15.264 -0.0234  0.1935 -0.0364
 7587W        W23056  11.410  16.129   6.184  0.0730 -0.0672  0.0950
 7588W        W23057   7.867   6.347  11.922  0.1177  0.1751  0.1963
 7589W        W23058   6.606   8.014  11.888 -0.1095  0.0491  0.1598
 7590W        W23059  18.036  12.737  11.825  0.1698  0.0753  0.0822
 7591W        W23060   5.532   1.038  14.035  0.0670  0.2012 -0.0955
 7592W        W23061   0.270   9.988  13.511 -0.1038  0.5753 -0.2937
 7593W        W23062   0.237   6.380  15.612  0.0503  0.2561  0.0330
 7594W        W23063   6.771  10.249   4.598  0.0163  0.2648  0.0774
 7595W        W23064   3.980  12.520   1.605 -0.0469  0.0293 -0.4273
 7596W        W23065   0.921   4.005  15.432  0.1229  0.0395  0.0856
 7597W        W23066  18.357   5.343  11.763 -0.0397  0.1288 -0.1012
 7598W        W23067   3.289   6.747  12.211  0.1487  0.1902 -0.1624
 7599W        W23068   8.306   3.236   3.426 -0.1421 -0.0044  0.1568
 7600W        W23069  17.959   5.639   0.106  0.4850  0.0496  0.0963
 7601W        W23070   3.586  15.729   4.550  0.2793 -0.3454  0.0360
 7602W        W23071   5.859  15.448   0.521 -0.0931  0.1473  0.2758
 7603W        W23072   1.801  15.926   0.743 -0.0226 -0.1054  0.0599
 7604W        W23073  15.134  15.822   4.542  0.2400 -0.1935  0.0172
 7605W        W23074   5.998   4.934   4.247 -0.2816 -0.0332  0.1505
 7606W        W23075   6.639  12.633   5.058  0.1073 -0.1597  0.1170
 7607W        W23076  13.064  11.467   0.622 -0.2480  0.2305  0.1133
 7608W        W23077  15.383   5.207   0.705 -0.1029  0.1203  0.0383
 7609W        W23078  13.883   8.783  11.938  0.2445  0.0086 -0.2097
 7610W        W23079   4.465   3.477   2.252 -0.0257 -0.2201 -0.0418
 7611W        W23080   8.066  16.134   3.791  0.0434  0.0287 -0.0911
 7612W        W23081   7.985   1.071  12.148  0.0936  0.1246  0.0443
 7613W        W23082  15.207   3.097  14.363 -0.0328 -0.2089 -0.0470
 7614W        W23083   5.291   9.161  11.238 -0.1743 -0.0356 -0.1345
 7615W        W23084  13.901   9.322  15.010  0.0460 -0.0585 -0.1736
 7616W        W23085  17.202  16.175   3.234  0.1762  0.0470  0.3799
 7617W        W23086   7.362   9.561  15.110 -0.2203 -0.0289  0.2803
 7618W        W23087   7.476  12.806  12.881 -0.0110 -0.2876 -0.0130
 7619W        W23088   3.645   9.929   0.095  0.0691 -0.1402 -0.0202
 7620W        W23089   1.379   8.209  11.200 -0.1863 -0.0074  0.0350
 7621W        W23090   1.928   0.565   0.932 -0.0772 -0.2650 -0.2075
 7622W        W23091  11.425   5.289  15.309 -0.1088 -0.1687  0.3630
 7623W        W23092  18.065  16.926   1.766  0.1490  0.3158 -0.2088
 7624W        W23093  14.569   8.606   4.455 -0.1025 -0.0685 -0.1906
 7625W        W23094  17.549   5.870   1.085 -0.1149  0.0653  0.0754
 7626W        W23095  14.398  14.210  13.887 -0.1365  0.1623  0.0468
 7627W        W23096  12.130   1.246  12.412 -0.0482 -0.0575 -0.0999
 7628W        W23097   3.296   3.666   4.164 -0.2510 -0.1722  0.0673
 7629W        W23098   7.471  14.916  12.324 -0.1433  0.1697 -0.0227
 7630W        W23099   8.497   1.793   1.016 -0.3314 -0.0873 -0.3186
 7631W        W23100  16.007   1.440  12.924  0.1052  0.0762 -0.1410
 7632W        W23101   4.945  13.415  14.118 -0.1404 -0.2700  0.0602
 7633W        W23102   2.994  13.106   4.188  0.2618  0.1152 -0.0572
 7634W        W23103   4.204   6.971  12.115  0.0529 -0.0088  0.1542
 7635W        W23104   4.406  15.129   2.787 -0.0809  0.1185  0.0918
 7636W        W23105   4.925  13.415  11.881  0.1720 -0.0584 -0.0707
 7637W        W23106   2.383  11.954   4.204  0.2171  0.0288  0.1294
 7638W        W23107   2.556  11.858   4.701 -0.0179 -0.1270  0.2496
 7639W        W23108   6.176  17.361  15.331  0.1241  0.0718  0.1811
 7640W        W23109  11.378   4.710   6.235  0.0456  0.1303  0.2999
 7641W        W23110  17.551   6.723   1.647  0.2784 -0.1257 -0.2488
 7642W        W23111  17.075  11.856  12.224  0.2156  0.0659  0.2366
 7643W        W23112   8.650   6.424   3.836  0.1430  0.0870 -0.1520
 7644W        W23113  10.747  10.629  12.125  0.3694 -0.1482 -0.0463
 7645W        W23114   4.376  11.499   3.804 -0.1187 -0.0765  0.2185
 7646W        W23115   6.027  17.378  11.059  0.1592 -0.2764  0.3301
 7647W        W23116   6.320  15.306  13.215  0.0046 -0.1731 -0.1063
 7648W        W23117  15.118   0.987  10.943  0.2280  0.2191 -0.2022
 7649W        W23118  17.291   7.314  13.177  0.1222  0.0105 -0.1629
 7650W        W23119   1.937  14.807  15.756 -0.2275  0.2614  0.0564
 7651W        W23120  12.261  14.038   9.566 -0.0721 -0.0397  0.3148
 7652W        W23121   6.306   0.383   2.450  0.1644 -0.0916  0.0218
 7653W        W23122   9.339   7.224   5.990 -0.1896 -0.1030  0.1359
 7654W        W23123   2.715  18.261  12.696 -0.1635 -0.3234  0.1118
 7655W        W23124   7.947  15.281  13.094 -0.1149 -0.2161  0.2920
 7656W        W23125   9.610   0.333   5.155 -0.2342  0.0528 -0.0085
 7657W        W23126   1.868  16.004  14.535 -0.2613  0.3471  0.1337
 7658W        W23127  16.351   7.103  13.684 -0.0897 -0.1329 -0.1326
 7659W        W23128   0.209   0.090   2.898  0.0134  0.1087 -0.1824
 7660W        W23129   7.891   0.580   3.783 -0.1674 -0.0110 -0.2834
 7661W        W23130   1.065   7.245   4.613 -0.1068  0.2429 -0.0051
 7662W        W23131   0.404  13.640   3.558  0.0241 -0.1182 -0.2607
 7663W        W23132   9.821   9.074   0.111  0.1792 -0.2824 -0.0695
 7664W        W23133   6.316  16.090   3.256 -0.4477  0.4514  0.0212
 7665W        W23134   0.239  11.573   4.544 -0.2357 -0.0573  0.0435
 7666W        W23135  13.316   3.586   2.776  0.1860 -0.0498  0.0270
 7667W        W23136  11.937  15.930  13.965  0.2316  0.0363  0.0841
 7668W        W23137  10.158   0.256   5.620  0.0901 -0.1799  0.1354
 7669W        W23138  18.499  11.444  10.629  0.0331 -0.0871 -0.1314
 7670W        W23139   4.256  11.598   1.464  0.1225  0.4128  0.0300
 7671W        W23140  14.917   4.032  13.584  0.0164  0.3939 -0.2385
 7672W        W23141  13.365  12.980  11.225  0.0005 -0.1224  0.2009
 7673W        W23142   7.439   0.701   0.847  0.3822 -0.0789  0.0384
 7674W        W23143  17.099   0.620   5.203 -0.3172 -0.2305  0.0428
 7675W        W23144  14.868   3.186  14.716  0.2190  0.2670 -0.0665
 7676W        W23145  17.759   1.712   2.274  0.1347  0.1166 -0.1387
 7677W        W23146   6.081   9.303  13.082  0.0826  0.1101 -0.2585
 7678W        W23147   9.820  11.771  11.306 -0.1138 -0.2553 -0.1420
 7679W        W23148   0.797  12.932  10.672 -0.1485  0.2092 -0.0321
 7680W        W23149  14.260  10.301   9.801 -0.1953 -0.0908 -0.0468
 7681W        W23150   2.811   4.106   3.997  0.0296  0.2165 -0.2097
 7682W        W23151  17.900   1.713   3.333 -0.1984  0.1257 -0.0162
 7683W        W23152   7.966   1.557   1.121  0.1835  0.2191 -0.1893
 7684W        W23153   7.479  15.880   3.400  0.0232  0.0363 -0.0592
 7685W        W23154  13.690  17.655  10.458 -0.4214 -0.1237  0.1771
 7686W        W23155   8.866   2.884   4.057 -0.1108 -0.1326 -0.0492
 7687W        W23156   6.694   8.912   2.475  0.1305 -0.3336 -0.2646
 7688W        W23157  11.382  11.370   2.090  0.2763  0.1671 -0.0983
 7689W        W23158  11.271  18.284  13.207 -0.1968  0.1678 -0.2843
 7690W        W23159  13.008   7.681   3.892 -0.1606 -0.2862  0.4029
 7691W        W23160   3.109  17.867   2.153  0.4603  0.0077 -0.1335
 7692W        W23161   6.996   1.733   4.155 -0.1036  0.1512  0.5842
 7693W        W23162   7.705  15.352   5.057 -0.4343  0.0971 -0.0165
 7694W        W23163   9.460   4.422  14.377 -0.2326 -0.1106 -0.0796
 7695W        W23164   3.398  11.773   2.558 -0.1842 -0.2835  0.0387
 7696W        W23165  12.935   7.787  15.301 -0.0765  0.2053  0.1478
 7697W        W23166   2.149  17.892   4.614  0.2789  0.2007  0.1098
 7698W        W23167   0.390   4.294   2.770  0.2621  0.2367 -0.0583
 7699W        W23168  15.452  12.100   4.848  0.1455  0.0237 -0.0156
 7700W        W23169   2.084  10.013  11.706 -0.1586  0.0770 -0.0230
 7701W        W23170   6.387  10.240   0.379 -0.0388 -0.0537  0.2129
 7702W        W23171   0.723  13.172   4.763 -0.1894 -0.1076 -0.3811
 7703W        W23172   9.695  16.893   3.097 -0.0780 -0.0816  0.1694
 7704W        W23173  18.575   1.691  12.849 -0.1594 -0.1977  0.1028
 7705W        W23174   1.376   9.384   5.208 -0.0015  0.0090 -0.1392
 7706W        W23175   1.407   3.904  12.852 -0.4676 -0.1282  0.0486
 7707W        W23176   0.722   0.920  11.292 -0.0617  0.0847 -0.0193
 7708W        W23177  11.155  13.962  11.956  0.0768 -0.2474 -0.0349
 7709W        W23178  12.735   1.796   2.219 -0.1273 -0.0448 -0.3770
 7710W        W23179  16.828  13.661  13.338 -0.2712 -0.0703 -0.0027
 7711W        W23180   5.979   8.483   4.870 -0.0557 -0.0091 -0.2331
 7712W        W23181  16.568  11.873   2.146  0.0174 -0.0910  0.0633
 7713W        W23182  12.566   2.582   0.790  0.3029 -0.2173  0.1293
 7714W        W23183   0.851  11.268  11.186 -0.0034  0.0166  0.1708
 7715W        W23184   8.671  17.077   4.360  0.2093 -0.3048  0.1017
 7716W        W23185   7.692   7.304  14.842  0.1659 -0.0779 -0.0009
 7717W        W23186   8.749   9.363  13.567  0.1670  0.1487  0.0879
 7718W        W23187   2.095   8.101  13.448  0.3171  0.0657 -0.5104
 7719W        W23188  17.563  11.908  12.363  0.0695 -0.0735  0.0601
 7720W        W23189   1.060   5.215  12.274 -0.0918  0.0137  0.1281
 7721W        W23190   2.885  15.861   0.732 -0.1498 -0.0143 -0.0537
 7722W        W23191   1.124   5.525  15.539 -0.0950 -0.2107 -0.2732
 7723W        W23192   0.767   9.496   2.295 -0.1170 -0.1603 -0.3826
 7724W        W23193   3.322  15.443  15.617  0.1155 -0.2517  0.0374
 7725W        W23194   9.100  18.120  13.649 -0.0489  0.0344  0.1737
 7726W        W23195   9.856  16.767   0.657 -0.0320 -0.0471  0.1278
 7727W        W23196  14.669  13.680   3.834 -0.1943 -0.2490 -0.1573
 7728W        W23197  14.334   8.549   4.869 -0.1838  0.0000  0.0420
 7729W        W23198   3.024  15.337   2.938 -0.2658  0.2236  0.0474
 7730W        W23199   5.010  16.790  12.641  0.0862 -0.1529  0.2931
 7731W        W23200   9.606  16.166  13.041 -0.3224 -0.0271  0.2793
 7732W        W23201   6.545   9.262  11.543 -0.1281  0.1387 -0.1889
 7733W        W23202  14.270  14.096   1.311  0.2043  0.0718  0.2551
 7734W        W23203  10.546  12.223   1.221 -0.1443  0.0771 -0.0104
 7735W        W23204  14.789  13.920   2.755 -0.2152  0.1784 -0.3845
 7736W        W23205  14.077   7.033   1.972  0.0181  0.4234  0.1155
 7737W        W23206   5.318   8.397  11.486 -0.0534  0.1606  0.1427
 7738W        W23207   9.755   3.534   1.644 -0.0124 -0.1007  0.0718
 7739W        W23208   4.855   2.616  12.394 -0.2353  0.3154  0.0200
 7740W        W23209  15.356   1.412   1.576 -0.1152 -0.2362 -0.2262
 7741W        W23210   4.019   9.269   0.956  0.0896 -0.0559  0.2511
 7742W        W23211  18.268   6.509  13.464  0.1101  0.1870  0.0947
 7743W        W23212  18.375  10.401   3.161 -0.1392  0.2635  0.1354
 7744W        W23213   9.270   0.328  12.569 -0.1090  0.2711 -0.1463
 7745W        W23214  14.536  11.457  10.870 -0.1998 -0.2024  0.0860
 7746W        W23215   2.032   4.109   4.590  0.1267 -0.0016  0.3983
 7747W        W23216   2.439  15.472   0.528  0.0725 -0.0957  0.0320
 7748W        W23217   8.902   4.664  12.933  0.0489  0.1930 -0.0844
 7749W        W23218  12.166  11.697   0.296  0.1872  0.1518 -0.1455
 7750W        W23219  10.179  10.519   4.602  0.2111 -0.1833  0.0321
 7751W        W23220   3.018   7.576   3.907 -0.4159  0.2548  0.1810
 7752W        W23221  17.175   4.016  10.859  0.0106  0.0184 -0.1486
 7753W        W23222   6.588  18.514  11.718 -0.3070  0.4431  0.0938
 7754W        W23223  11.551  16.498   1.405  0.2245  0.0830 -0.0749
 7755W        W23224  10.251   7.667  13.038 -0.0575  0.2514 -0.0404
 7756W        W23225  14.712   0.035   6.417 -0.0619 -0.1440  0.3580
 7757W        W23226   8.663   8.652   3.983  0.1340  0.1767 -0.1265
 7758W        W23227   3.913   1.496  11.083 -0.0113 -0.1795 -0.1467
 7759W        W23228   8.061   7.574   1.922 -0.0983 -0.0232 -0.0632
 7760W        W23229   4.937   5.387  12.162 -0.0292  0.0843  0.4904
 7761W        W23230  12.343   5.968   4.154  0.1760 -0.0379  0.0154
 7762W        W23231   7.062   3.213   2.083 -0.1955  0.3128  0.0327
 7763W        W23232   2.880  12.287   0.882  0.2314  0.2292  0.1279
 7764W        W23233   3.855   6.873   0.185  0.0696 -0.1597  0.3928
 7765W        W23234  16.141   6.038   1.290  0.0579 -0.0450 -0.4467
 7766W        W23235   8.066  12.261  15.604  0.1687  0.0882 -0.3274
 7767W        W23236  18.516  17.411  13.540 -0.0023 -0.0094  0.1704
 7768W        W23237   5.881  10.404  14.703  0.1921 -0.2206  0.0079
 7769W        W23238  11.474   4.275   0.518 -0.3033 -0.1555 -0.1665
 7770W        W23239  12.870   3.211   1.392 -0.0764  0.0289  0.1366
 7771W        W23240   8.009  15.657   0.776  0.1102 -0.4423  0.0935
 7772W        W23241  16.918  11.766  13.947 -0.0257  0.1059 -0.2432
 7773W        W23242  10.040  11.610  15.238 -0.0757  0.0476  0.0826
 7774W        W23243  10.325  13.362  13.273 -0.0600 -0.0927  0.1021
 7775W        W23244   1.267  14.309   2.724 -0.0005  0.2080 -0.1337
 7776W        W23245   7.214  14.683  13.136 -0.0107 -0.1865  0.1981
 7777W        W23246   4.193   1.948   0.030  0.1871 -0.0848  0.2626
 7778W        W23247   0.879   9.432   3.211  0.1393 -0.3284  0.1823
 7779W        W23248  13.717  12.717  11.398 -0.3439  0.3210  0.5567
 7780W        W23249  13.130   8.141  12.861  0.0974  0.0388 -0.1082
 7781W        W23250   4.670  12.404  15.596  0.1949  0.1669 -0.1120
 7782W        W23251   9.247   4.655  11.197  0.0007 -0.3586  0.1812
 7783W        W23252   7.185  12.279  14.104 -0.0160  0.3411 -0.2373
 7784W        W23253   1.650  16.332   3.547  0.0381  0.2087  0.0036
 7785W        W23254   6.332   2.858  15.749 -0.1531 -0.0698  0.1962
 7786W        W23255   6.874   8.344  12.871  0.0419 -0.0218 -0.0179
 7787W        W23256   6.254  14.634  11.568  0.1429 -0.1488 -0.0998
 7788W        W23257   4.696   6.711  14.977  0.0367  0.2419  0.0893
 7789W        W23258  16.157   5.940  10.541  0.1822 -0.3418  0.3175
 7790W        W23259   0.187  17.242  12.590  0.1104  0.2878  0.0757
 7791W        W23260  14.702   9.056   9.794  0.0091 -0.1148  0.2187
 7792W        W23261   8.429  12.645  12.245 -0.1909  0.1842  0.0671
 7793W        W23262   8.387  15.791   3.852  0.2400 -0.2143  0.0072
 7794W        W23263   5.792  16.869  11.679  0.3706 -0.1301 -0.1431
 7795W        W23264   6.563  11.978   0.604 -0.0779 -0.1375  0.0829
 7796W        W23265  18.103  11.045   1.188 -0.0411 -0.1293  0.3515
 7797W        W23266  12.244   3.299  12.229 -0.1376  0.1380 -0.0433
 7798W        W23267  17.686   6.563  12.769 -0.1380  0.1524  0.0254
 7799W        W23268   8.819   3.900   4.314  0.1461  0.1979 -0.2582
 7800W        W23269  13.980  12.447  12.213  0.3047 -0.1281  0.1636
 7801W        W23270   8.545   5.058   3.328 -0.2094  0.0763 -0.0869
 7802W        W23271   6.262  16.991  11.536 -0.2051  0.0949 -0.1439
 7803W        W23272  10.212   6.605   2.545 -0.0404  0.0395  0.2733
 7804W        W23273   1.780   9.315   1.416  0.3501 -0.1311 -0.1234
 7805W        W23274   8.809  16.137  15.618  0.0913 -0.1869  0.1857
 7806W        W23275   1.609   6.195  10.837  0.2324  0.4303  0.0214
 7807W        W23276  10.751   1.893   5.664 -0.0630  0.1607 -0.0612
 7808W        W23277   3.648  14.468   0.210  0.1845  0.0846 -0.0140
 7809W        W23278  17.467   7.990  13.976  0.0892 -0.1021  0.2829
 7810W        W23279   8.855   4.066   1.721 -0.3987  0.2948 -0.1004
 7811W        W23280   0.231   9.324  10.207  0.0531 -0.0102  0.1390
 7812W        W23281   7.523   6.504  13.369  0.2784  0.1741 -0.0590
 7813W        W23282  11.926  12.739   2.567  0.2179  0.0563 -0.2400
 7814W        W23283   2.169  10.455   2.885  0.1351  0.1996  0.2470
 7815W        W23284   8.616  18.535   2.033  0.1530  0.0096  0.3330
 7816W        W23285   1.541  12.819  11.219 -0.1035  0.1621 -0.3473
 7817W        W23286  17.506   7.435  15.113  0.0192  0.0271  0.0956
 7818W        W23287   3.061   6.245   0.014  0.2846  0.2829  0.2201
 7819W        W23288   8.504   5.136   2.040 -0.2565 -0.2960  0.1864
 7820W        W23289  13.806   4.793   3.112 -0.1355  0.1786 -0.0238
 7821W        W23290  10.984   9.635  14.404 -0.2880 -0.0346 -0.0150
 7822W        W23291  18.615  11.717  13.171 -0.3846 -0.2702 -0.2680
 7823W        W23292  13.937  17.792   3.795  0.3103 -0.0161  0.1672
 7824W        W23293   3.240   0.501  13.566  0.1647  0.3447  0.1079
 7825W        W23294   4.595   8.626   2.655 -0.1744  0.4051  0.0634
 7826W        W23295   1.310   5.889   4.271 -0.1034  0.0688 -0.1358
 7827W        W23296  11.320   1.547  13.647  0.1001  0.2843  0.2116
 7828W        W23297   0.348   8.119   0.432  0.0413  0.1294  0.0589
 7829W        W23298   7.252   4.203  10.141 -0.1784  0.0828  0.0898
 7830W        W23299  17.533  18.125  11.091 -0.2262 -0.2090  0.1528
 7831W        W23300   8.659  14.332  13.493 -0.1207  0.0573 -0.1362
 7832W        W23301   7.770  18.041  14.322 -0.1456 -0.1865  0.1824
 7833W        W23302   9.605   0.172   0.242  0.0180 -0.1682  0.1446
 7834W        W23303  11.896  13.575  13.020 -0.3983 -0.2955  0.0044
 7835W        W23304  10.258  12.764   3.356  0.2517 -0.0227  0.4268
 7836W        W23305  14.684  14.139   1.651 -0.2336  0.0953  0.0743
 7837W        W23306   4.332   0.022  15.711 -0.1189 -0.0604 -0.3285
 7838W        W23307  17.141   0.334   0.418  0.1101  0.0305 -0.1125
 7839W        W23308  16.112  17.195  10.850  0.2228 -0.1100 -0.2289
 7840W        W23309  13.596   8.447  15.698  0.0317  0.1016 -0.2841
 7841W        W23310  16.148  10.591  15.360  0.0296  0.0030 -0.0523
 7842W        W23311   6.562   6.115  12.814  0.2029 -0.0846 -0.0207
 7843W        W23312   2.334   9.291   0.709 -0.2972 -0.2799  0.1002
 7844W        W23313  17.071  16.940  11.839 -0.2680  0.1681  0.0898
 7845W        W23314  14.858   0.708   2.049  0.2336  0.0359  0.2623
 7846W        W23315   9.694  16.289  15.387 -0.3280 -0.2071 -0.1671
 7847W        W23316   4.933   9.527  10.583  0.0512  0.2522 -0.0374
 7848W        W23317  12.268  16.528  12.446 -0.2551  0.1981  0.0322
 7849W        W23318   1.562  12.272  12.391 -0.0436 -0.0063 -0.0752
 7850W        W23319  13.339  17.736   3.047 -0.3130 -0.0486  0.0155
 7851W        W23320   1.290   6.882   4.223 -0.0192 -0.2719 -0.3402
 7852W        W23321   8.330   2.265  13.411  0.4669 -0.1228 -0.2982
 7853W        W23322   1.416   8.497  10.247  0.3211  0.0027  0.2582
 7854W        W23323   3.906   1.347   5.236 -0.1765  0.1141  0.3512
 7855W        W23324   8.359  17.314  15.319 -0.0140 -0.1559  0.1623
 7856W        W23325   5.233   4.880  13.688  0.1398  0.3684  0.0795
 7857W        W23326   3.509  17.754   5.588 -0.0500  0.2283  0.0234
 7858W        W23327  14.604   0.232   3.586  0.1980 -0.3385  0.0048
 7859W        W23328  17.556   2.607  15.426 -0.1093 -0.1207  0.2126
 7860W        W23329   3.329   4.634   1.880  0.0407 -0.2187  0.2373
 7861W        W23330   6.577  11.376  13.149  0.1596  0.1425 -0.0357
 7862W        W23331  15.872  14.288   4.308 -0.1671  0.2088  0.2986
 7863W        W23332   7.467   5.078  11.635 -0.0017 -0.1483  0.0008
 7864W        W23333  17.861  17.739  11.267  0.1646 -0.0666 -0.0755
 7865W        W23334  11.070   7.818  12.898 -0.0645  0.0033  0.3207
 7866W        W23335   8.932   9.650   0.139  0.0501 -0.2433 -0.1499
 7867W        W23336   1.409   4.071  14.224 -0.1588 -0.4807  0.1789
 7868W        W23337   4.479  11.443  15.334  0.1658  0.0832 -0.1172
 7869W        W23338  16.083   3.396  12.883  0.2115  0.2264  0.1059
 7870W        W23339   0.749   7.769   5.644  0.1758  0.0049 -0.1231
 7871W        W23340   0.480  10.854  15.121 -0.3009 -0.2574 -0.4330
 7872W        W23341   9.110   8.059  11.570 -0.1331 -0.3778  0.0749
 7873W        W23342  12.946   0.311  14.893 -0.0897  0.0459 -0.0003
 7874W        W23343  12.320   2.868   3.917  0.2639 -0.1544 -0.0873
 7875W        W23344  17.609  15.720  12.203  0.6602  0.1182  0.2641
 7876W        W23345  17.168   6.664   0.033 -0.1684  0.0058  0.2673
 7877W        W23346   8.476  10.975  10.848  0.0704  0.1449 -0.1333
 7878W        W23347  13.397  17.120  11.462 -0.0538  0.0538  0.0069
 7879W        W23348  14.370   6.734  11.869 -0.0975  0.1081  0.1249
 7880W        W23349   9.429  17.186  12.084  0.0523  0.1455  0.0007
 7881W        W23350  16.449  15.354   4.348  0.0009 -0.0321  0.2864
 7882W        W23351  17.182   2.550  11.857 -0.0038 -0.1641 -0.1131
 7883W        W23352   2.956   9.471   2.920  0.0689  0.2098  0.1787
 7884W        W23353  12.054  17.766   3.337 -0.1726  0.1898  0.2857
 7885W        W23354   2.869  13.469  11.753 -0.0775 -0.1359  0.0827
 7886W        W23355  11.086   6.111   1.470  0.0423 -0.0757 -0.0017
 7887W        W23356   4.986   1.881   0.159  0.1188 -0.5678 -0.1202
 7888W        W23357   5.117  16.979   4.772 -0.0462 -0.0747 -0.0946
 7889W        W23358  12.412   5.763  13.882 -0.3896 -0.2900 -0.0399
 7890W        W23359   8.318   8.474   0.517 -0.2533  0.0003  0.2395
 7891W        W23360   1.398   2.542  13.142  0.0392 -0.1907 -0.1072
 7892W        W23361   2.102  16.136   3.742  0.0279 -0.2803 -0.0515
 7893W        W23362   5.241   6.146   4.301 -0.1063 -0.1829 -0.0044
 7894W        W23363  13.914   1.957  11.070  0.1808  0.0279  0.0717
 7895W        W23364   3.736  15.299   4.643  0.0757  0.1645  0.3009
 7896W        W23365  10.917  10.311  11.700 -0.1543  0.1715  0.3626
 7897W        W23366   1.658   5.881  15.741 -0.1544  0.1919  0.0470
 7898W        W23367   9.896   5.682   5.289  0.0026  0.0058  0.0777
 7899W        W23368   3.513   9.027   1.684  0.1058  0.1518 -0.1216
 7900W        W23369  17.367   2.628   0.580 -0.1625  0.0892  0.1606
 7901W        W23370  15.549  13.134   4.936 -0.0389  0.3550 -0.0549
 7902W        W23371   7.031   7.476  10.598 -0.0386 -0.1759  0.0139
 7903W        W23372   9.890  18.384   4.120  0.1936 -0.3407  0.2923
 7904W        W23373   6.302   9.942   3.460 -0.0786 -0.0378 -0.1697
 7905W        W23374  12.277   2.254  12.396  0.1344  0.0967  0.1284
 7906W        W23375  10.042   6.603   0.099  0.1326  0.1178  0.2280
 7907W        W23376  11.564   2.038  13.564  0.0336  0.3014  0.1065
 7908W        W23377   5.931   4.062  13.185  0.1743  0.0205 -0.1392
 7909W        W23378  10.086   4.094   2.231  0.1479  0.2398 -0.0967
 7910W        W23379   3.666  15.534  15.197 -0.2561 -0.0107  0.4373
 7911W        W23380   8.018   5.157   2.145  0.0064  0.2409  0.3309
 7912W        W23381   4.931   8.829   2.311 -0.3832  0.0289  0.1323
 7913W        W23382  18.179  11.374   3.713 -0.0522 -0.0158 -0.1704
 7914W        W23383  14.139   0.726   1.419  0.1364  0.1470 -0.0861
 7915W        W23384  10.849  16.716   0.725  0.1192 -0.1676 -0.0403
 7916W        W23385  18.475   9.470   9.309 -0.0140 -0.1851 -0.0105
 7917W        W23386   6.427  13.776   5.218  0.2376  0.0417 -0.0124
 7918W        W23387   2.919  13.396  12.895  0.1941  0.3259  0.4797
 7919W        W23388  17.551   7.891  14.423 -0.3161 -0.1231  0.1496
 7920W        W23389   1.797   3.862   2.555 -0.0018 -0.0479  0.0767
 7921W        W23390  17.883   6.112  13.529 -0.0759  0.0322 -0.1535
 7922W        W23391   6.050   6.742   2.890  0.0336  0.4355  0.0237
 7923W        W23392   0.701  10.721   4.219  0.0885 -0.2212  0.2553
 7924W        W23393   3.552  15.693  10.952  0.4028  0.0041  0.0261
 7925W        W23394  14.767  16.481   2.919 -0.2065  0.1492 -0.1559
 7926W        W23395   2.266   2.079  14.004 -0.1721  0.2496 -0.0937
 7927W        W23396  16.210   4.338  15.272 -0.1282 -0.1777  0.1424
 7928W        W23397  16.914  15.533  13.023  0.2057 -0.2990 -0.2552
 7929W        W23398  12.972   6.340   3.643 -0.0415 -0.1820 -0.0453
 7930W        W23399   7.927  12.828  12.604  0.3191  0.0796 -0.2737
 7931W        W23400  10.983  12.890  13.809 -0.0325  0.0524  0.0913
 7932W        W23401   8.184   8.428  15.421 -0.1965 -0.1204  0.0035
 7933W        W23402   5.691  15.433   3.255  0.2820 -0.0126 -0.1289
 7934W        W23403  15.654  16.646  13.912 -0.0485  0.1427  0.4061
 7935W        W23404   1.544  13.804   3.291 -0.0505  0.0449  0.2655
 7936W        W23405   3.703  14.036   4.234  0.1834 -0.0619  0.2335
 7937W        W23406   8.316   2.794   3.128 -0.1364  0.0915  0.1258
 7938W        W23407  13.251   5.011  12.945 -0.4040 -0.0201  0.0193
 7939W        W23408  10.518  16.348  14.194  0.0554  0.2286  0.3121
 7940W        W23409  16.797   1.917   4.190 -0.0508  0.3463 -0.0602
 7941W        W23410   5.810   5.990   1.034  0.0063 -0.1409  0.1631
 7942W        W23411  14.795   0.127  10.515 -0.1007 -0.2599  0.0041
 7943W        W23412   3.375   6.604   0.235  0.0503  0.1363  0.1621
 7944W        W23413   5.770  18.547   3.127 -0.0565  0.3051 -0.1337
 7945W        W23414   3.387   5.498   4.001 -0.4180 -0.0203 -0.2560
 7946W        W23415   7.211   6.687   3.258  0.0123 -0.2793  0.2336
 7947W        W23416  12.985  12.109   2.241  0.1605  0.0050 -0.2796
 7948W        W23417  13.792   5.956   4.826 -0.0711 -0.0413 -0.1672
 7949W        W23418  14.683  11.841   0.097 -0.3922  0.1421  0.3026
 7950W        W23419   3.093  17.966  15.674 -0.2005 -0.0375  0.2701
 7951W        W23420  14.784  15.927   1.940  0.2306 -0.0042 -0.1292
 7952W        W23421  13.537   6.272  12.715 -0.4313 -0.1547 -0.3245
 7953W        W23422  13.692   1.438  12.338  0.0934 -0.1338 -0.4993
 7954W        W23423  13.794  16.542   1.681 -0.1915  0.1259  0.1024
 7955W        W23424   5.589   3.819  12.183 -0.0671  0.1299 -0.1263
 7956W        W23425  15.721  10.650  14.290  0.0922 -0.0261 -0.2631
 7957W        W23426  17.038   8.976  12.172 -0.1068  0.1476 -0.1662
 7958W        W23427   8.079  11.208  12.428 -0.4906 -0.0930 -0.0110
 7959W        W23428   9.305   0.263  15.161  0.1849 -0.0443 -0.1832
 7960W        W23429  17.344   8.479  12.833  0.0859  0.4476  0.0065
 7961W        W23430  12.809   4.491  15.679  0.0215  0.0309 -0.0574
 7962W        W23431   3.532  11.099  12.612 -0.0176  0.2073  0.3780
 7963W        W23432   6.892  12.362   5.484 -0.0841 -0.1372  0.3427
 7964W        W23433  13.097  15.927   5.842 -0.1096  0.0248 -0.0499
 7965W        W23434   8.676  15.109  12.821  0.0022  0.1961 -0.1443
 7966W        W23435  10.650   4.849   4.846 -0.0001 -0.0133  0.0979
 7967W        W23436   9.543  10.577   1.915  0.3000  0.0400 -0.0944
 7968W        W23437   7.784  10.746  14.395  0.3461 -0.2389  0.1352
 7969W        W23438  10.761  10.579   0.336 -0.4212 -0.0002 -0.0831
 7970W        W23439   6.474   6.734   4.622 -0.1981  0.1594  0.1251
 7971W        W23440  16.936   2.532  10.705 -0.0705 -0.2812 -0.0389
 7972W        W23441   0.286  12.552  14.788  0.2308  0.1216  0.0490
 7973W        W23442   8.864   1.506   3.248  0.1700 -0.4454 -0.0629
 7974W        W23443  12.256   6.908   2.954 -0.2055 -0.1742  0.0185
 7975W        W23444   3.888  15.983   5.259  0.2107 -0.2419  0.0243
 7976W        W23445   2.970  11.654   2.925 -0.1560 -0.1183 -0.2267
 7977W        W23446   0.552  13.646   0.673  0.0358 -0.0546 -0.2075
 7978W        W23447   7.216   6.038   1.310 -0.0944 -0.3210 -0.1065
 7979W        W23448  18.185  13.766  10.816 -0.0771  0.5711  0.0058
 7980W        W23449   5.032  10.068  11.484  0.2517 -0.0251  0.1735
 7981W        W23450   8.965  11.218   9.979 -0.3420 -0.0656 -0.2652
 7982W        W23451  16.657   3.720   3.465  0.0002 -0.0470 -0.2081
 7983W        W23452   9.195   7.375  15.679 -0.1363  0.1084 -0.2963
 7984W        W23453   3.620  12.016   9.712  0.0978  0.0439  0.0836
 7985W        W23454   9.466  14.222  10.696 -0.2454  0.2224 -0.0035
 7986W        W23455   6.855   6.492   1.407  0.1201  0.2133 -0.0733
 7987W        W23456  10.444  13.716  11.896  0.1131  0.0918 -0.3755
 7988W        W23457   2.670  13.339   0.760  0.0034 -0.1649  0.2736
 7989W        W23458   0.038  14.172   5.167  0.0196  0.1796 -0.2235
 7990W        W23459   3.062   3.105   0.118  0.0864  0.2963 -0.1463
 7991W        W23460   6.961  12.611  11.744 -0.0495  0.1978 -0.1559
 7992W        W23461  12.568  12.386   3.313 -0.2233 -0.1775  0.0786
 7993W        W23462   6.224   2.844   3.412 -0.0060 -0.1617  0.1831
 7994W        W23463  12.110  17.672   5.468  0.0935 -0.1854 -0.1616
 7995W        W23464   9.524  17.597  15.619  0.2194  0.0957 -0.1256
 7996W        W23465  13.698  14.167  12.909 -0.2508  0.0016  0.2252
 7997W        W23466   4.407   2.222  13.842 -0.2815  0.0554 -0.0057
 7998W        W23467   8.164   5.703   1.955 -0.1153 -0.0832  0.2761
 7999W        W23468   9.100   3.474   3.403 -0.3363 -0.0197  0.0692
 8000W        W23469  15.923   8.613   0.548  0.3375 -0.2589 -0.1562
 8001W        W23470  12.740   6.807  11.762  0.0850 -0.1894  0.1488
 8002W        W23471  13.410   9.566  11.470 -0.2375 -0.1142  0.1123
 8003W        W23472  17.496  10.856  10.732 -0.0274 -0.0815  0.5211
 8004W        W23473   8.878   2.844   5.892 -0.2536 -0.3502 -0.1673
 8005W        W23474   5.797  17.231   2.369  0.1555 -0.1362  0.0224
 8006W        W23475   5.122  13.431   1.790 -0.1239  0.1403 -0.0780
 8007W        W23476  11.292   1.860   1.330 -0.2216  0.0029  0.3473
 8008W        W23477   0.138   0.397  13.143 -0.1745 -0.0194 -0.0265
 8009W        W23478  11.666   3.974  12.026 -0.2738 -0.0117  0.1017
 8010W        W23479   0.076  14.744   1.253  0.0362 -0.2670  0.2075
 8011W        W23480  13.860   4.812  15.698  0.2546 -0.0466 -0.1331
 8012W        W23481   4.022  16.409  14.994 -0.1111 -0.0968  0.1822
 8013W        W23482   3.395   1.118   2.025  0.1291 -0.0693  0.2274
 8014W        W23483   8.379   6.414  11.979  0.0792  0.1530 -0.1402
 8015W        W23484  11.941  11.827   3.198  0.0700  0.0184 -0.2465
 8016W        W23485   4.858   7.566   3.911  0.0557 -0.0906 -0.0395
 8017W        W23486  16.410   0.206   4.582 -0.0203 -0.1122 -0.0622
 8018W        W23487   8.080   5.159   1.683 -0.2116  0.1005  0.1114
 8019W        W23488   2.275   3.506   1.299  0.0099  0.1580  0.0582
 8020W        W23489  11.487  11.107  15.096  0.2176 -0.1021  0.1960
 8021W        W23490   4.427   0.836   6.035  0.0026  0.0723 -0.3381
 8022W        W23491   6.302   0.084  13.118 -0.2163 -0.1825 -0.0874
 8023W        W23492   2.269   2.574  14.122 -0.0876 -0.0331  0.2256
 8024W        W23493  15.381   7.034  12.414  0.1391  0.1660 -0.0910
 8025W        W23494   0.153   6.813   9.423  0.2231 -0.2247  0.2134
 8026W        W23495   3.763  13.203   4.666  0.2035 -0.2127 -0.0357
 8027W        W23496  18.546  10.239   5.300 -0.0517  0.0275  0.3966
 8028W        W23497  16.451   6.993   5.604 -0.0781  0.0740  0.4319
 8029W        W23498  11.263  12.689   9.436  0.0440  0.2354 -0.3190
 8030W        W23499   3.549  16.353  14.357 -0.3758  0.1546 -0.1577
 8031W        W23500   9.331  15.374   3.775 -0.1412 -0.0468 -0.0447
 8032W        W23501   0.841   6.641   3.942 -0.2509 -0.1365 -0.1109
 8033W        W23502  13.398   5.598  11.071 -0.1870  0.2049  0.5549
 8034W        W23503  13.155   1.769  14.950  0.2116 -0.0667 -0.0299
 8035W        W23504  16.137   6.493   0.754  0.0919  0.0906 -0.0471
 8036W        W23505   1.365   8.765  13.107  0.0870 -0.2223 -0.1109
 8037W        W23506  12.833   7.129   0.812  0.1349 -0.2043 -0.1946
 8038W        W23507  12.830  13.302   1.940  0.2421 -0.0619 -0.2476
 8039W        W23508  13.062  12.279  12.789 -0.0867 -0.2838 -0.0564
 8040W        W23509  10.684   4.135  13.467  0.2065  0.1851 -0.0063
 8041W        W23510   1.179   5.070  14.236 -0.1640 -0.1025  0.2298
 8042W        W23511   0.289   6.863  12.638 -0.2869  0.0856 -0.0060
 8043W        W23512  16.154  12.027  11.578  0.0440 -0.1893 -0.1738
 8044W        W23513   8.065   8.627   5.116  0.1122  0.3393  0.0300
 8045W        W23514  15.511   8.745  15.444  0.0775  0.0233 -0.1543
 8046W        W23515   9.717  13.768  15.680  0.1683 -0.4768  0.1650
 8047W        W23516   1.541  14.144   5.123 -0.0632 -0.0914  0.1945
 8048W        W23517   3.303   0.727   2.339 -0.1316 -0.1860 -0.0611
 8049W        W23518   5.249  17.347   1.725  0.1600  0.0484 -0.1174
 8050W        W23519   7.630  18.506   1.705 -0.2275  0.0021 -0.0997
 8051W        W23520   5.156   4.789   4.712  0.2402  0.1769  0.1326
 8052W        W23521   9.659   7.544   9.999  0.2402 -0.2222  0.0976
 8053W        W23522   4.651  16.246   4.390 -0.0334 -0.0191 -0.1907
 8054W        W23523  16.085  15.923   1.980 -0.0743 -0.0241 -0.0631
 8055W        W23524   8.451   1.096   3.050  0.0634 -0.0047  0.1475
 8056W        W23525  16.985   3.789  12.707  0.1443  0.1998  0.1033
 8057W        W23526   6.608   9.333  12.025 -0.1251 -0.1097  0.2387
 8058W        W23527  15.200   1.591  13.686 -0.1057  0.5752  0.0177
 8059W        W23528   1.749   2.026  15.448 -0.1895  0.0029 -0.2208
 8060W        W23529   3.185  13.780   3.272 -0.1699  0.1075 -0.2647
 8061W        W23530   3.083   2.780  10.806 -0.1437  0.1391 -0.1474
 8062W        W23531  13.316   6.969  14.971  0.2657  0.1506  0.0293
 8063W        W23532   4.381  10.981   2.682  0.1173 -0.0620 -0.2037
 8064W        W23533  16.714  11.589   4.831 -0.2097  0.0432 -0.4047
 8065W        W23534  18.610  13.282   1.546 -0.0742 -0.1371 -0.0771
 8066W        W23535  11.985   7.214   0.473  0.2830 -0.3338  0.0156
 8067W        W23536  13.967   3.460  11.664 -0.1199 -0.2882 -0.0577
 8068W        W23537   8.352   6.463   2.334  0.0283  0.0131 -0.0461
 8069W        W23538   6.797  17.932  11.854  0.4162  0.0196 -0.5101
 8070W        W23539  11.761   2.135   5.992 -0.1760 -0.0685  0.1143
 8071W        W23540  14.705   7.969   4.193  0.0892 -0.1771 -0.5176
 8072W        W23541   2.680  14.198   4.627  0.2284 -0.0388 -0.2306
 8073W        W23542  16.382  13.732  13.055 -0.1775  0.3131  0.2154
 8074W        W23543  17.682  11.443   0.116 -0.2191  0.1312 -0.0702
 8075W        W23544  12.310  11.359  13.165  0.3190 -0.2483 -0.0131
 8076W        W23545   3.442  13.334  15.478 -0.2073 -0.0127 -0.0506
 8077W        W23546  15.478   1.644   2.598  0.0703  0.3321  0.1524
 8078W        W23547   0.459   1.316   5.018  0.2521 -0.2288 -0.3223
 8079W        W23548  16.221   5.313   4.996  0.2452 -0.0174  0.2110
 8080W        W23549   7.783   2.571   3.116 -0.1116  0.0718  0.0086
 8081W        W23550   5.281   1.406   3.047  0.2352  0.0229  0.1174
 8082W        W23551  16.372  15.597  13.118 -0.1858  0.0587 -0.0316
 8083W        W23552   8.585  13.655   3.678 -0.0875  0.1051  0.2779
 8084W        W23553  10.896  11.145   4.434 -0.0203  0.0768  0.0660
 8085W        W23554   5.772   5.437   5.354 -0.1110  0.0213  0.0592
 8086W        W23555   4.912  10.634  15.129 -0.3224 -0.0936  0.1100
 8087W        W23556  11.739   5.145  11.138  0.0136 -0.1287 -0.4487
 8088W        W23557   4.174  14.006  11.906  0.1365 -0.0187 -0.1853
 8089W        W23558  10.310  15.744   1.550 -0.1643  0.3255 -0.0093
 8090W        W23559   8.345   3.833   0.849  0.0429 -0.2926  0.3356
 8091W        W23560  15.116   2.825   4.183 -0.2273  0.0945 -0.4298
 8092W        W23561   1.005   4.486  15.538  0.1600 -0.2101  0.0110
 8093W        W23562   5.799   5.036   3.749  0.0617  0.2078 -0.0007
 8094W        W23563  14.726  12.172  12.516 -0.1876 -0.1027 -0.0688
 8095W        W23564  11.228  17.698  15.169  0.0260 -0.0682 -0.1267
 8096W        W23565  11.162  10.815   1.595 -0.1213  0.1010  0.4297
 8097W        W23566   1.879  12.826   2.701 -0.0182 -0.1001  0.1896
 8098W        W23567  17.265  13.093   5.063 -0.0215  0.2568  0.0543
 8099W        W23568   0.281  10.546   4.470  0.3216  0.0185 -0.2106
 8100W        W23569  13.389   8.951   0.822  0.4053 -0.0840  0.0739
 8101W        W23570  16.882   0.596  11.349 -0.0195 -0.2959  0.1809
 8102W        W23571  12.376  13.016   0.983 -0.1271 -0.0713  0.0226
 8103W        W23572   9.436  11.558  10.705  0.0835 -0.0299  0.0282
 8104W        W23573   1.983  11.150   1.304 -0.1183  0.1123  0.1317
 8105W        W23574  11.398   8.809   2.444 -0.1710  0.3754 -0.0045
 8106W        W23575  14.253  12.072  13.871 -0.2112  0.2002 -0.0800
 8107W        W23576  12.300   5.881   2.532 -0.0957  0.1202  0.1690
 8108W        W23577  11.982   6.819  13.930 -0.0069  0.2927  0.3346
 8109W        W23578   0.223   3.945   0.156  0.0155 -0.1843  0.0205
 8110W        W23579   2.852   2.785   4.071  0.2048 -0.0167  0.0021
 8111W        W23580  13.367  15.572   5.333 -0.0296  0.1059  0.0478
 8112W        W23581   4.498  16.393  11.350 -0.2739  0.2997  0.1336
 8113W        W23582  12.200   5.736  11.818  0.0503 -0.0560 -0.0772
 8114W        W23583   9.171   4.708   4.708 -0.0593  0.2659 -0.0598
 8115W        W23584  12.337   3.792   2.994 -0.1079 -0.0653  0.1492
 8116W        W23585  15.397  15.579   4.897 -0.1418  0.0276 -0.0241
 8117W        W23586   3.369  16.687   0.564 -0.0724  0.0831 -0.0610
 8118W        W23587  11.834   1.636  13.781  0.2245  0.3034  0.3350
 8119W        W23588   7.094   8.675   2.280 -0.0059  0.2810 -0.0389
 8120W        W23589   6.199   6.505   0.271  0.0687  0.3036 -0.1556
 8121W        W23590   4.788  16.105   5.162  0.0237  0.1431  0.2410
 8122W        W23591   1.635   5.434  13.917  0.5096  0.2026  0.2968
 8123W        W23592  12.740   6.592  13.933 -0.2378  0.1683  0.0858
 8124W        W23593   9.721  15.096   2.102  0.0602  0.0205 -0.0911
 8125W        W23594   5.411   3.842  12.884 -0.2588  0.0849 -0.1035
 8126W        W23595   6.429  17.919   3.548  0.0405 -0.1491  0.1419
 8127W        W23596   1.360  18.297  12.722  0.1537 -0.2422  0.1588
 8128W        W23597  16.470   7.676   0.363 -0.0529 -0.3989 -0.6033
 8129W        W23598   2.757  17.997   1.237 -0.1057 -0.2012 -0.0915
 8130W        W23599   5.225   6.980   2.492  0.0407 -0.0691 -0.1120
 8131W        W23600   7.914   0.568   0.796  0.0512  0.0929 -0.1063
 8132W        W23601  15.534  11.119  14.644  0.2371  0.1566 -0.0237
 8133W        W23602  14.720   6.140  15.712  0.0863  0.1063  0.0177
 8134W        W23603   7.792   8.486  14.465  0.4516 -0.0834 -0.1302
 8135W        W23604  16.049   5.358   4.436  0.1818 -0.0254 -0.0988
 8136W        W23605  15.943   5.764   2.676 -0.2187 -0.4779  0.1486
 8137W        W23606   4.944  11.194  12.729 -0.2311 -0.0472  0.0424
 8138W        W23607  11.835  12.818   0.266 -0.0374 -0.1994 -0.0570
 8139W        W23608   7.394   0.891  11.119  0.0949 -0.1708  0.0981
 8140W        W23609  12.674   7.921   2.164  0.0927  0.2056 -0.0980
 8141W        W23610  10.089   7.246   3.956  0.4924  0.0637  0.1290
 8142W        W23611   5.374   2.284   4.100  0.1046  0.3330 -0.0723
 8143W        W23612   6.872   4.403  13.119 -0.1859 -0.0950 -0.1079
 8144W        W23613   6.637  11.657   4.684 -0.1811  0.2617  0.2314
 8145W        W23614   1.987   0.661  15.052  0.1706  0.0344 -0.0042
 8146W        W23615   8.627   3.815   5.538 -0.1861  0.2897  0.1482
 8147W        W23616  10.491  18.157   1.704  0.3931  0.0814 -0.3161
 8148W        W23617  11.300  10.266   2.436 -0.0545  0.4536 -0.1510
 8149W        W23618   0.266  14.716  12.138 -0.0852  0.0665 -0.0116
 8150W        W23619  15.778   9.421  12.656 -0.0708  0.0531  0.3822
 8151W        W23620  13.105   9.171   3.123  0.0197  0.0047 -0.2025
 8152W        W23621   8.472   9.649   5.094  0.1166 -0.2149 -0.0238
 8153W        W23622   0.042   7.409   4.996 -0.3042  0.0158  0.1234
 8154W        W23623   6.881  18.530  13.466  0.0362  0.1767 -0.2867
 8155W        W23624  18.036  17.648  12.879 -0.0002  0.1562  0.3652
 8156W        W23625   0.221  12.912  14.367 -0.3423 -0.0471  0.2507
 8157W        W23626   0.346   6.091  13.767  0.0566  0.0052 -0.2942
 8158W        W23627   6.059  12.378  15.489  0.2116  0.1240  0.0695
 8159W        W23628  13.722   8.596   0.443  0.0917  0.0067  0.1025
 8160W        W23629   0.360  14.393  11.771  0.3616  0.1632 -0.3381
 8161W        W23630  14.008   5.116   3.474  0.4166 -0.2035  0.0315
 8162W        W23631  10.835   1.776  11.513  0.0050  0.0651  0.1371
 8163W        W23632   9.165   8.351   2.583  0.1621 -0.1540  0.3090
 8164W        W23633  12.266  13.887  10.833  0.2101  0.1292 -0.1173
 8165W        W23634   9.798   5.183  15.253 -0.0478 -0.1505 -0.1836
 8166W        W23635  11.058  12.229   3.494 -0.2154 -0.2710  0.2503
 8167W        W23636  13.903  13.681  11.103  0.1650  0.3222 -0.1676
 8168W        W23637   9.024   5.732   4.919 -0.0328 -0.4163 -0.2853
 8169W        W23638   9.499   6.936  15.083  0.1718  0.1818 -0.2794
 8170W        W23639   5.277  13.774   4.069 -0.4082  0.1149  0.1206
 8171W        W23640  13.353   3.632   2.314  0.0793  0.2872  0.0798
 8172W        W23641   4.747   1.313   1.309  0.0557  0.0940 -0.1966
 8173W        W23642   6.651  15.319   4.084  0.2190 -0.1197  0.1055
 8174W        W23643  16.492   6.755  12.812 -0.2734  0.1936 -0.1563
 8175W        W23644  10.506   0.559  12.111 -0.1646  0.5148 -0.2608
 8176W        W23645  10.833   5.758   2.307  0.0003 -0.1320  0.1108
 8177W        W23646  14.542   9.328  13.215 -0.0470 -0.3064 -0.3986
 8178W        W23647   4.045   6.046  11.125  0.0485  0.2530 -0.2241
 8179W        W23648  17.897   1.067   1.493 -0.2579 -0.2139  0.4213
 8180W        W23649  16.003   1.494   5.527  0.0108 -0.0252  0.0242
 8181W        W23650  14.123   9.064   2.864  0.3258 -0.6437  0.4468
 8182W        W23651   2.280  17.028   2.718  0.0233  0.1664  0.2109
 8183W        W23652  17.207  13.337  15.639 -0.0573 -0.1306  0.0890
 8184W        W23653  12.544   6.934   4.264  0.2427 -0.1496  0.0869
 8185W        W23654  14.415   4.594  12.419 -0.2670  0.3652 -0.2179
 8186W        W23655   0.681  16.216   5.364 -0.0652 -0.4241 -0.0936
 8187W        W23656   8.751   4.430   4.857  0.1603  0.3100  0.1007
 8188W        W23657   1.849   9.796   2.221  0.3438  0.2426 -0.0425
 8189W        W23658  11.984   6.851   6.148  0.2692 -0.1213 -0.0092
 8190W        W23659  11.434  15.698  12.017  0.2276  0.1660 -0.2188
 8191W        W23660  18.163   7.300   3.897 -0.3198  0.0066  0.2599
 8192W        W23661  13.269  16.371  13.123 -0.3048 -0.1586 -0.1041
 8193W        W23662   0.895  13.766   0.373 -0.3021 -0.0434  0.2280
 8194W        W23663  14.349  10.495  12.188 -0.3582 -0.0370  0.1254
 8195W        W23664  14.354  10.094  15.252  0.2547 -0.0472  0.2552
 8196W        W23665  10.034   6.412  14.460  0.1272  0.0395 -0.1796
 8197W        W23666  16.447  18.140   3.984 -0.1198 -0.0790 -0.0226
 8198W        W23667  17.219  15.720   4.749  0.0413 -0.5240 -0.0834
 8199W        W23668   7.364   4.565  14.881 -0.0087  0.3404 -0.0556
 8200W        W23669   1.382  17.223  15.378 -0.6109  0.0226 -0.0160
 8201W        W23670  15.285  17.545   5.246  0.2150 -0.0849 -0.2014
 8202W        W23671  15.924  11.649   3.938  0.0946 -0.0190 -0.2152
 8203W        W23672   9.359  17.953   0.821  0.3459 -0.0982  0.3087
 8204W        W23673  15.315   7.654  14.695  0.1989  0.3463 -0.3882
 8205W        W23674  11.310  16.788  14.194 -0.0358  0.2531  0.0318
 8206W        W23675   0.901   4.024  13.128  0.2227 -0.3583 -0.4940
 8207W        W23676  15.564  14.211  14.304 -0.1111  0.0907 -0.2414
 8208W        W23677  10.782  17.751   1.973 -0.1899  0.4738 -0.2725
 8209W        W23678   0.601   3.381   3.588 -0.3701 -0.1258  0.1326
 8210W        W23679  16.129   2.556  15.608 -0.0236 -0.0497 -0.2892
 8211W        W23680   7.820  13.112  13.140  0.0944 -0.0992 -0.0403
 8212W        W23681  17.572   9.171  12.017 -0.0244 -0.0000 -0.1582
 8213W        W23682  17.880   2.836  12.296 -0.0394 -0.2070 -0.1048
 8214W        W23683  12.613   3.178   5.628 -0.2081  0.4075  0.0745
 8215W        W23684  15.271  12.523  13.129  0.1558  0.0506 -0.0574
 8216W        W23685  10.874  10.013   5.015 -0.0946 -0.1847  0.0002
 8217W        W23686  11.027  16.605   4.774 -0.2883 -0.3652  0.2260
 8218W        W23687   7.017   4.141   2.617  0.0224  0.0316  0.0462
 8219W        W23688   0.038  16.149  15.163  0.3126  0.0740  0.1020
 8220W        W23689   2.373  11.540   3.613 -0.2046 -0.0943 -0.1534
 8221W        W23690   7.071   2.952  15.366 -0.0377 -0.4185 -0.4698
 8222W        W23691   0.785   9.422   3.964  0.0155 -0.0861 -0.2964
 8223W        W23692  16.703  13.453   0.782 -0.0465  0.1548  0.2738
 8224W        W23693  14.576  12.440  11.003  0.0109  0.1066  0.1180
 8225W        W23694  10.936   7.997   3.026 -0.2199 -0.0633  0.1958
 8226W        W23695   3.062   0.041  15.608  0.0762 -0.0636  0.2571
 8227W        W23696   4.159  15.187  14.402  0.1751  0.2539  0.1538
 8228W        W23697  13.620  16.886   1.993  0.2073 -0.1397  0.2090
 8229W        W23698   2.006   3.719   0.324  0.1198 -0.2127  0.2515
 8230W        W23699   4.931   2.440   0.551 -0.4616 -0.0847  0.1194
 8231W        W23700  15.463   5.130   5.396 -0.3570 -0.1480  0.0448
 8232W        W23701   3.844   9.270   9.465 -0.2587 -0.0066  0.0572
 8233W        W23702  13.780   1.559  11.773 -0.0307 -0.4098  0.6223
 8234W        W23703  10.060  14.831  11.334  0.0110 -0.1312 -0.2557
 8235W        W23704   6.746  12.915  15.380 -0.2103  0.0205 -0.2267
 8236W        W23705  18.174  12.882  15.444  0.0450 -0.4545 -0.2915
 8237W        W23706  13.825  16.778  15.379 -0.4687 -0.1124  0.2443
 8238W        W23707   9.565  18.622   3.679  0.2517  0.1551  0.2681
 8239W        W23708  11.172  12.662  12.559  0.0178 -0.2480  0.0724
 8240W        W23709  12.527   5.393   2.415  0.2895 -0.0589 -0.1977
 8241W        W23710   3.535   1.423   0.674  0.1025  0.0178  0.2447
 8242W        W23711   3.074  16.451  14.250 -0.0326 -0.1867 -0.0532
 8243W        W23712  11.715   3.671   1.208  0.1843 -0.0281  0.0358
 8244W        W23713   6.260   5.453   5.568 -0.0993  0.0273 -0.0145
 8245W        W23714  11.975   6.307   2.549  0.0093 -0.2504 -0.4482
 8246W        W23715   9.343   9.795  11.517  0.1423  0.2587  0.0576
 8247W        W23716  15.464  11.261  13.668  0.1046  0.2125 -0.2114
 8248W        W23717   8.039  12.938  15.049  0.2668 -0.1082 -0.1353
 8249W        W23718   2.907   3.914   4.960  0.1711  0.0182 -0.2994
 8250W        W23719   0.086  10.502  14.763  0.0160  0.1247  0.0208
 8251W        W23720   6.476  10.751   0.224  0.0609 -0.0517 -0.1865
 8252W        W23721  16.651   2.380   4.077  0.0657  0.1404  0.4493
 8253W        W23722   9.349   6.475   1.197  0.1110 -0.2039  0.0188
 8254W        W23723   1.603   1.883  11.720 -0.3354 -0.3059  0.0021
 8255W        W23724   2.335   8.927   2.431  0.0148 -0.0825 -0.2979
 8256W        W23725   9.537  13.700  12.679  0.0525  0.0517 -0.0580
 8257W        W23726  15.345   0.731  13.315 -0.2456  0.2392 -0.0332
 8258W        W23727  14.898   2.006   3.050 -0.1556  0.0270  0.3378
 8259W        W23728  17.659  18.616   2.027 -0.2653  0.0666  0.3580
 8260W        W23729   9.421   9.304  10.417 -0.0261  0.0660  0.2402
 8261W        W23730  10.070  16.021   4.054  0.1418 -0.1340 -0.1981
 8262W        W23731   2.530   6.425   1.843 -0.0101  0.0064 -0.0650
 8263W        W23732   3.315   9.543   0.153  0.1778 -0.4041 -0.3486
 8264W        W23733  10.122   2.670   5.899  0.2316 -0.3281  0.1200
 8265W        W23734   8.990   4.587  14.767 -0.1784  0.1241 -0.1945
 8266W        W23735   9.452   5.020  13.538 -0.0524  0.0870 -0.4510
 8267W        W23736   6.846   6.028  11.194  0.0024 -0.1230  0.1622
 8268W        W23737   5.351  16.763  12.208 -0.2797  0.0000 -0.0067
 8269W        W23738   1.780   9.378  13.820  0.2341 -0.1151 -0.1070
 8270W        W23739   5.169   5.844   4.767 -0.0967  0.0605 -0.1464
 8271W        W23740  16.244   4.803  15.390 -0.1488  0.2058 -0.1763
 8272W        W23741   4.563   8.435   1.033  0.1090  0.0572 -0.3456
 8273W        W23742   0.592   4.151   1.000 -0.0247  0.0390  0.1328
 8274W        W23743   8.102   6.569  10.996  0.0246 -0.1899 -0.1123
 8275W        W23744   7.606   0.232   0.626  0.0231  0.0502  0.2261
 8276W        W23745  12.815  13.729  13.098 -0.2211 -0.3017  0.2285
 8277W        W23746  12.563  12.612  11.553  0.1176 -0.0469  0.2326
 8278W        W23747  16.105  13.864   1.353  0.0542  0.3607 -0.0405
 8279W        W23748  16.554   6.707   0.596  0.0692 -0.2025 -0.4209
 8280W        W23749  17.454  14.019   9.746  0.2069  0.0630  0.3052
 8281W        W23750   6.730  16.788   2.840  0.1169  0.2893  0.0011
 8282W        W23751   3.253   4.379   1.029 -0.2451 -0.3703  0.0921
 8283W        W23752   2.660   7.637  11.140  0.2166  0.1970 -0.0287
 8284W        W23753   0.823  16.509   3.366  0.1499  0.1595 -0.2249
 8285W        W23754  13.852  15.356   0.794 -0.2693 -0.0035 -0.3627
 8286W        W23755  14.205   3.689   4.309  0.2017 -0.1077  0.3431
 8287W        W23756  18.226   9.132   5.413 -0.0220 -0.1281 -0.1553
 8288W        W23757  11.208   7.496   6.059 -0.1638 -0.2736  0.0732
 8289W        W23758  13.077   1.330  14.577  0.2786  0.1228 -0.0033
 8290W        W23759  11.065   8.608  11.810 -0.1591 -0.1894  0.2829
 8291W        W23760  15.549  15.928   2.751 -0.2587 -0.2693 -0.0219
 8292W        W23761   9.156   3.643   4.622 -0.0574  0.0473  0.2028
 8293W        W23762   0.874  11.739   3.914  0.2050 -0.0664  0.4826
 8294W        W23763   1.053  15.096  10.075 -0.0995  0.1936  0.0032
 8295W        W23764   5.841  14.479  12.936  0.0797  0.0689 -0.2588
 8296W        W23765  14.595   0.511  13.146 -0.3152  0.2561 -0.0258
 8297W        W23766   9.540   8.297   2.160 -0.0232  0.0803 -0.1411
 8298W        W23767   0.780   1.761   3.777  0.0984  0.2497 -0.3194
 8299W        W23768   8.598  13.975  11.888  0.3749 -0.3116 -0.1458
 8300W        W23769  16.421   6.722  11.449  0.1474  0.1819 -0.1048
 8301W        W23770  14.971   7.694  14.236  0.1593 -0.1262 -0.1401
 8302W        W23771  10.619  10.754   4.369 -0.0860  0.3165  0.1967
 8303W        W23772  18.338   2.436  12.377  0.0023  0.0780 -0.1378
 8304W        W23773   6.084  15.428   3.999  0.0975  0.2069 -0.0673
 8305W        W23774   8.014   7.689  11.817 -0.4582  0.1889  0.1161
 8306W        W23775   9.493  10.564  12.986 -0.1211  0.2385  0.0215
 8307W        W23776  15.556   4.353  11.854 -0.0699 -0.1567  0.0136
 8308W        W23777  15.243  17.657   2.516  0.0945 -0.0913 -0.1282
 8309W        W23778  10.900  13.875   3.361  0.1756 -0.0935  0.2412
 8310W        W23779  14.500  16.925   2.860 -0.0685  0.2762  0.3172
 8311W        W23780  16.855   7.449  11.764  0.1759 -0.1407 -0.1380
 8312W        W23781  15.620  17.597  15.182  0.1304 -0.1339 -0.2908
 8313W        W23782   3.759   9.775   4.302 -0.0222 -0.0178  0.0485
 8314W        W23783  16.767   1.967   5.022  0.1772  0.0036 -0.1498
 8315W        W23784  17.607   7.123  13.817  0.0384 -0.0482 -0.2252
 8316W        W23785   4.450   8.661  13.256  0.1097  0.2120 -0.0428
 8317W        W23786  14.577  13.358   0.218 -0.1760 -0.4512  0.3080
 8318W        W23787   8.476   1.442   3.577  0.2675 -0.3914  0.0987
 8319W        W23788   3.653  14.380   2.714  0.1100 -0.0842 -0.0148
 8320W        W23789  15.463  16.079   4.096  0.0012 -0.1724 -0.2619
 8321W        W23790   4.586   1.857  14.150 -0.0176  0.4670 -0.1224
 8322W        W23791   6.850   4.137  15.672  0.3867 -0.2218 -0.2550
 8323W        W23792  17.258   9.739  15.606 -0.3303  0.2477 -0.1410
 8324W        W23793  12.224   4.556  10.489 -0.0363  0.1768  0.0109
 8325W        W23794   2.147  10.742  15.551  0.1040 -0.0199  0.2352
 8326W        W23795  11.887  14.669   6.364  0.0063  0.1645 -0.2103
 8327W        W23796   1.808   3.951  13.209 -0.0070  0.2307  0.0559
 8328W        W23797  13.783   0.890  15.161  0.1912  0.0002 -0.1425
 8329W        W23798  12.061   7.971   0.311  0.1221 -0.2446 -0.1191
 8330W        W23799  12.399  14.819  15.297  0.0078  0.0104 -0.3025
 8331W        W23800  10.601   8.535  11.601 -0.0825 -0.1780 -0.1452
 8332W        W23801   2.388   5.382  12.284 -0.3062  0.1562 -0.2663
 8333W        W23802  10.274   6.902   4.656  0.1187 -0.1967  0.1223
 8334W        W23803  13.792   9.743   4.111 -0.0509  0.2376 -0.1076
 8335W        W23804   4.629   2.859   0.782  0.2189  0.2024  0.1302
 8336W        W23805   9.548   5.380   1.989 -0.1391 -0.0838 -0.0898
 8337W        W23806   1.113   0.826  12.653 -0.3286  0.3291  0.1527
 8338W        W23807   2.812   9.393   3.950  0.0726  0.2971 -0.0910
 8339W        W23808  11.031   1.137  11.888  0.3747  0.1165 -0.0225
 8340W        W23809   2.465   8.557   3.742  0.1227 -0.2739  0.0851
 8341W        W23810   1.831   9.040   4.681 -0.0964 -0.2414  0.2835
 8342W        W23811   7.366   6.499   0.547  0.0696 -0.1337  0.1128
 8343W        W23812   4.865   9.198   3.269 -0.1169  0.5452 -0.1614
 8344W        W23813   9.889   7.441  14.062  0.0206  0.1609  0.1723
 8345W        W23814   2.522   8.032  13.110 -0.1055 -0.0244  0.0439
 8346W        W23815   0.825  10.960  13.369 -0.2476 -0.1765  0.0730
 8347W        W23816   1.222  17.871  11.732  0.0471  0.0989 -0.0338
 8348W        W23817  15.484  12.694  11.300  0.2025  0.0792  0.2657
 8349W        W23818   1.240   1.897  12.741  0.2345  0.1298 -0.3221
 8350W        W23819  13.218  12.836  14.346  0.3442 -0.1876 -0.2886
 8351W        W23820  13.884   8.403   4.550 -0.2496  0.1712 -0.4475
 8352W        W23821   4.045   2.959   0.910 -0.1707 -0.3133 -0.0026
 8353W        W23822  10.481  14.018   1.113 -0.3581  0.2284  0.2295
 8354W        W23823  13.089  15.435  15.328 -0.2415  0.1261  0.0447
 8355W        W23824  15.081   2.182   1.761 -0.0502 -0.1412  0.0480
 8356W        W23825   7.358   4.334   5.725  0.2203  0.2080 -0.0706
 8357W        W23826  15.332   0.758   9.984 -0.2019  0.1387  0.1450
 8358W        W23827  15.993   3.804  14.611  0.1898 -0.0985 -0.4681
 8359W        W23828  17.937   7.042  10.949  0.1140 -0.2163  0.0001
 8360W        W23829   3.936   8.018   0.321 -0.1437 -0.2162 -0.0535
 8361W        W23830   6.383   5.726   3.810 -0.1923 -0.3543 -0.0474
 8362W        W23831   8.333  12.232   0.722  0.2047 -0.0850  0.1964
 8363W        W23832   0.744  10.723   0.875 -0.1549  0.0210  0.1306
 8364W        W23833   5.126   3.997  14.381  0.0785  0.1057 -0.0053
 8365W        W23834   2.839   6.032  12.147  0.1984  0.0187  0.0051
 8366W        W23835   1.181   3.446  12.993 -0.0132 -0.0521 -0.0762
 8367W        W23836   7.268  12.208   2.701 -0.0253  0.0697 -0.0058
 8368W        W23837  11.544  12.186   4.221 -0.1508 -0.0562 -0.0237
 8369W        W23838   5.174   2.160  12.325 -0.3609 -0.1222 -0.1387
 8370W        W23839   7.191   9.636   2.468 -0.3241 -0.1976  0.0649
 8371W        W23840   1.603  14.988  14.288 -0.1332 -0.0202  0.2203
 8372W        W23841   2.672  10.750   2.936 -0.1988  0.1028  0.5390
 8373W        W23842   4.538  15.791   0.842 -0.0351  0.2081 -0.2452
 8374W        W23843   1.685  10.400   3.517  0.0736 -0.4134 -0.0683
 8375W        W23844   0.965  17.113  14.520  0.0683  0.1311  0.0798
 8376W        W23845  13.867  12.147   5.613  0.1174 -0.1847  0.1169
 8377W        W23846  12.891   3.741  12.305  0.1083  0.1629  0.0380
 8378W        W23847   2.313  16.609   0.904  0.0219 -0.0134  0.0285
 8379W        W23848  15.635   0.868  11.078  0.0981 -0.3993 -0.0328
 8380W        W23849  10.696   3.909   4.753  0.0478  0.5464 -0.0193
 8381W        W23850   2.986   5.313  14.046 -0.1255  0.3288  0.0150
 8382W        W23851  17.020  15.781  15.295 -0.0808  0.1705 -0.0940
 8383W        W23852   2.185  10.093   1.391 -0.0119 -0.2798  0.1175
 8384W        W23853   9.489  11.048  11.005 -0.2196 -0.2793  0.1648
 8385W        W23854   4.209  13.913   1.965 -0.2513 -0.2548  0.3591
 8386W        W23855   3.252   9.050  12.427 -0.1786  0.3138  0.0312
 8387W        W23856  11.178   2.578   2.203  0.3226 -0.4564  0.0905
 8388W        W23857  17.694   4.407  14.884 -0.0480 -0.1199  0.0400
 8389W        W23858   0.216  17.758   0.489 -0.0745 -0.3878 -0.4439
 8390W        W23859  17.787  17.210  14.136  0.5299 -0.2160 -0.4354
 8391W        W23860  18.009  16.284   1.601  0.1171  0.1311  0.3839
 8392W        W23861  17.228  18.133  14.079 -0.0744  0.0991  0.1725
 8393W        W23862  15.538   6.674  13.129 -0.1882 -0.2596 -0.1374
 8394W        W23863   3.668  15.056  15.217 -0.0034  0.0550 -0.0737
 8395W        W23864   5.082  12.024   1.663 -0.1593  0.3368  0.1493
 8396W        W23865  16.632   7.212   0.762 -0.1902 -0.2242  0.2976
 8397W        W23866  13.391  10.379   5.780 -0.1387  0.1285 -0.0789
 8398W        W23867   6.276  17.722  13.587  0.0810  0.0700 -0.0720
 8399W        W23868  16.270   7.004   4.199 -0.1191  0.0293  0.0654
 8400W        W23869   6.607   1.483   5.392  0.1721  0.1764  0.3478
 8401W        W23870  12.483   4.426   9.994  0.1385  0.3545  0.0128
 8402W        W23871  16.523   3.652  12.614 -0.1737  0.2566  0.2086
 8403W        W23872   9.148  12.670   3.619 -0.1594 -0.0024 -0.4840
 8404W        W23873  11.568   3.735  12.781 -0.1339  0.3311  0.0142
 8405W        W23874   8.803  14.362  14.573  0.1221  0.0613  0.0288
 8406W        W23875   4.022   3.664   3.092  0.2445  0.0279  0.1362
 8407W        W23876   9.215  13.738  15.075  0.2326  0.0815  0.0265
 8408W        W23877  15.793  10.976  15.089  0.0664 -0.1081  0.2869
 8409W        W23878   9.790   0.135  13.939  0.2091  0.0814 -0.0298
 8410W        W23879  18.036  14.081  13.773  0.2465  0.2012 -0.0613
 8411W        W23880  13.781   8.897   5.596 -0.3162 -0.2264  0.1760
 8412W        W23881   8.829   0.447  15.334 -0.2059  0.1001 -0.2076
 8413W        W23882   5.461  14.425   2.087  0.3713 -0.2417  0.0461
 8414W        W23883   4.067   8.444   1.757 -0.0188 -0.3814  0.2426
 8415W        W23884  10.187   0.790  15.392 -0.1053  0.2478 -0.2789
 8416W        W23885  16.626   9.191   0.437 -0.0717  0.1675  0.0642
 8417W        W23886  13.995   1.871  13.393 -0.1167 -0.0929  0.0175
 8418W        W23887   4.652  10.937   0.416 -0.1230  0.0434  0.2903
 8419W        W23888  13.578   7.595   4.763  0.1210 -0.3353 -0.1264
 8420W        W23889   4.217   0.832   2.822 -0.0679 -0.1645 -0.3018
 8421W        W23890   1.593  17.726   3.375 -0.0140  0.0166 -0.0912
 8422W        W23891   0.688   6.411  10.506  0.0179  0.0965 -0.1479
 8423W        W23892   6.376  14.340   2.484  0.1148  0.2194  0.1131
 8424W        W23893  12.904  18.188   5.439 -0.1339 -0.1108  0.3774
 8425W        W23894  12.145   7.215   5.065 -0.0560  0.0077  0.2745
 8426W        W23895   1.663  14.985   1.239  0.0658 -0.3127 -0.0788
 8427W        W23896   2.872  13.067   1.180  0.0226  0.1040  0.2390
 8428W        W23897   6.155  17.460   1.874  0.1898 -0.0677 -0.0942
 8429W        W23898   9.398  16.905   0.312 -0.0910 -0.1866 -0.0867
 8430W        W23899  14.228  13.810  12.309 -0.1538  0.1671  0.3037
 8431W        W23900  17.746   4.492  11.576 -0.1999 -0.4155  0.3434
 8432W        W23901  17.265   1.227  15.638  0.2549  0.0714 -0.0637
 8433W        W23902   5.186  17.228   2.655  0.0523  0.1274  0.0848
 8434W        W23903  14.864  11.052  11.132 -0.1224 -0.1794  0.0906
 8435W        W23904   7.996  10.949   0.578 -0.1307  0.0066 -0.0697
 8436W        W23905   4.895  13.781   0.016 -0.2458  0.2310  0.0617
 8437W        W23906   6.428   7.149   1.514  0.1967 -0.0826 -0.0661
 8438W        W23907   9.149   0.709  15.034 -0.1375 -0.1762  0.2131
 8439W        W23908   3.802   4.788   1.981 -0.1244  0.2154  0.0521
 8440W        W23909  10.432  14.540   5.169 -0.1395 -0.0018 -0.1248
 8441W        W23910   5.503   6.147  14.584  0.0956  0.1933 -0.2185
 8442W        W23911   7.944   1.523   6.133 -0.0783  0.1711 -0.1579
 8443W        W23912  17.636  17.983   3.128  0.1528 -0.1403 -0.1813
 8444W        W23913   8.846  10.810   9.721  0.0384 -0.1567  0.1262
 8445W        W23914  15.093   0.347   6.133  0.0730 -0.0135 -0.3314
 8446W        W23915  14.665  16.269   1.079 -0.2745 -0.0232 -0.1195
 8447W        W23916   8.363  12.004  14.767  0.3037  0.1127 -0.2821
 8448W        W23917   1.706   4.270  11.907  0.0148  0.2227 -0.3798
 8449W        W23918   9.028   7.534   4.518 -0.2437  0.0869  0.1780
 8450W        W23919   6.774  13.057   2.893 -0.0931  0.2001 -0.0415
 8451W        W23920   8.513  16.092  14.262  0.3648 -0.2986  0.1354
 8452W        W23921  13.431  13.010  13.881 -0.0879 -0.0890  0.0238
 8453W        W23922  10.609  14.462   5.693 -0.0217  0.1335  0.1729
 8454W        W23923  10.318   5.979   5.282 -0.0958  0.0857 -0.3352
 8455W        W23924   1.035   6.979   3.002  0.1539 -0.2610  0.2926
 8456W        W23925   0.575   4.155  13.535 -0.0229  0.0824  0.0692
 8457W        W23926  13.713   3.779   5.225  0.1675  0.1424 -0.0621
 8458W        W23927  16.811  13.031  14.905 -0.0688 -0.0601  0.4262
 8459W        W23928  16.687  16.506   1.500 -0.1104  0.2201 -0.0928
 8460W        W23929  17.743  12.106   9.660 -0.1243  0.3677  0.3075
 8461W        W23930   5.047  17.575  12.545 -0.0300 -0.3453 -0.0276
 8462W        W23931   0.584  14.616  12.531  0.3885  0.1251 -0.1342
 8463W        W23932  14.159   8.757   4.168  0.2298  0.0784 -0.1832
 8464W        W23933   0.521  17.282  12.966  0.0392  0.0494 -0.0958
 8465W        W23934  12.842   8.854  11.007 -0.0869 -0.2578  0.4285
 8466W        W23935  15.230  16.423   1.251  0.0322 -0.4636  0.0440
 8467W        W23936  17.225   0.432  11.749 -0.1664 -0.1568 -0.2708
 8468W        W23937  16.791   2.567   3.293  0.2059  0.0564  0.1309
 8469W        W23938   2.136  15.848  11.074  0.1928 -0.4868  0.2446
 8470W        W23939   8.599   3.852  10.570 -0.0732 -0.0092 -0.2603
 8471W        W23940  12.218  11.556  15.597  0.0193 -0.1366 -0.1628
 8472W        W23941  18.235   0.645  10.039  0.2217  0.1693  0.0730
 8473W        W23942   7.757  14.933   0.707 -0.1285  0.0656  0.1775
 8474W        W23943  17.156   2.639   1.445  0.2184 -0.1244 -0.1134
 8475W        W23944   0.949   2.093   4.691 -0.0946 -0.2375  0.1619
 8476W        W23945  12.952   0.740  14.624  0.0721 -0.0297 -0.0874
 8477W        W23946  13.278  17.374   4.104  0.1510 -0.2765 -0.0644
 8478W        W23947   9.699  14.724  11.969 -0.0052 -0.2011 -0.0851
 8479W        W23948  18.432   5.214  11.271 -0.0091 -0.1845 -0.2251
 8480W        W23949   6.400  18.608   1.109 -0.0741  0.0431  0.0056
 8481W        W23950  12.696   6.175  13.623 -0.0239  0.0943 -0.0489
 8482W        W23951   8.370   3.574   0.141 -0.0268 -0.1570 -0.1090
 8483W        W23952  18.425   7.808  15.325 -0.0808 -0.1375  0.0391
 8484W        W23953   3.723  17.313   1.513 -0.1443  0.3687 -0.1437
 8485W        W23954  12.119  17.103   5.457  0.0709 -0.0719  0.0940
 8486W        W23955  18.589  12.657  13.194  0.0405  0.1767 -0.1086
 8487W        W23956  17.880   3.426  10.851 -0.0963  0.1278 -0.3746
 8488W        W23957   3.251  15.116   3.734 -0.0927  0.3052 -0.0568
 8489W        W23958  14.165  18.470  11.229 -0.1224 -0.0217 -0.0119
 8490W        W23959  17.072  12.059   1.233 -0.0674 -0.4540 -0.0083
 8491W        W23960   5.599   3.982  14.522 -0.1273  0.1287 -0.2435
 8492W        W23961  10.411  11.561   2.811  0.0576  0.0646  0.1329
 8493W        W23962   5.504   0.778   5.313  0.1474  0.0453 -0.0067
 8494W        W23963   9.577   8.220  11.729 -0.1835 -0.0425 -0.1193
 8495W        W23964  14.093  15.902   4.811 -0.0879 -0.2374 -0.5516
 8496W        W23965   4.303  10.866  13.399 -0.0317 -0.0758  0.1884
 8497W        W23966   4.121   9.989  12.906  0.3028  0.4584 -0.0660
 8498W        W23967   0.117  10.446   3.622  0.3086  0.0570  0.1525
 8499W        W23968  14.465  16.338  12.984  0.2377  0.1302 -0.2193
 8500W        W23969   3.421   7.145   0.148  0.1378 -0.1891 -0.2588
 8501W        W23970  15.246  16.489   4.991 -0.0296  0.1041  0.0209
 8502W        W23971  13.253   9.945   1.600  0.3262 -0.1095  0.4247
 8503W        W23972   1.611  17.456  11.475 -0.0287  0.0891 -0.3384
 8504W        W23973  11.298   2.400   1.389  0.1249 -0.0940  0.1631
 8505W        W23974   4.852  16.200  15.412  0.0349  0.1483  0.6702
 8506W        W23975   8.459   8.548   3.433  0.1433  0.2238 -0.3248
 8507W        W23976   6.676   0.458   5.067 -0.0913 -0.2428  0.0390
 8508W        W23977  17.091   6.499  13.679 -0.0549 -0.0887 -0.0454
 8509W        W23978   6.852   3.051  13.168 -0.0336  0.0706 -0.0581
 8510W        W23979   6.343  15.179  12.487 -0.1277  0.2819  0.1255
 8511W        W23980   8.745  13.946  13.217 -0.0575 -0.0886  0.0435
 8512W        W23981   7.745   9.074  14.771 -0.0551 -0.1813 -0.5006
 8513W        W23982  13.100   1.865  13.057 -0.0889  0.3668 -0.1263
 8514W        W23983   7.155   5.201  14.368 -0.1107 -0.0077  0.3363
 8515W        W23984   9.005  13.026   3.972  0.1306  0.1624  0.2101
 8516W        W23985  13.632   3.501  14.404 -0.1300 -0.3900 -0.2959
 8517W        W23986  15.668   6.075   1.515  0.1218  0.0802 -0.0691
 8518W        W23987   8.834   0.713   3.055  0.0813  0.0867  0.2600
 8519W        W23988   6.282  10.149   4.582 -0.2692 -0.1495 -0.3214
 8520W        W23989  14.717   0.779   4.458 -0.2228 -0.0336 -0.1428
 8521W        W23990   3.404   2.888   2.976  0.1175  0.1035  0.2168
 8522W        W23991   8.839   5.622  15.374 -0.2587 -0.0036 -0.2389
 8523W        W23992   5.280  11.273   2.245  0.0291 -0.2343  0.4000
 8524W        W23993   5.893  11.753   2.192  0.2503 -0.2547  0.2439
 8525W        W23994  11.885  15.174  12.001  0.1780  0.0390 -0.0175
 8526W        W23995  12.684   3.983  11.566 -0.0131 -0.0897 -0.1810
 8527W        W23996  18.148   7.895  11.419 -0.2181 -0.1062 -0.0943
 8528W        W23997  13.897  16.171  11.755  0.0059  0.0551 -0.2625
 8529W        W23998  14.314  14.665   5.081  0.1162  0.5644 -0.3022
 8530W        W23999  11.778   8.734   1.360 -0.2095 -0.2270 -0.1157
 8531W        W24000   7.776   0.192   2.062  0.1486  0.2084  0.0453
 8532W        W24001  14.641  18.286   2.678 -0.3360  0.2530  0.0235
 8533W        W24002   4.007   0.317   4.242  0.1238 -0.0737 -0.2360
 8534W        W24003  16.681   7.815   4.238 -0.0389  0.1571 -0.0290
 8535W        W24004   2.181  10.407  12.907 -0.1627 -0.0165  0.2979
 8536W        W24005   8.406  17.055  11.528 -0.0431 -0.3553 -0.0830
 8537W        W24006  15.722  11.981  15.347 -0.0843 -0.0595  0.0017
 8538W        W24007  12.255  17.346   5.011 -0.1896 -0.1066  0.3808
 8539W        W24008   3.157   0.630   2.935 -0.1994  0.1480 -0.1731
 8540W        W24009   7.265   9.232  12.718 -0.2908 -0.0230 -0.2776
 8541W        W24010  10.914   9.758  13.543 -0.3555 -0.1367  0.3041
 8542W        W24011  12.623  10.380  11.793  0.0307  0.3399 -0.0719
 8543W        W24012   3.514  17.689  15.595 -0.0230  0.1724 -0.0219
 8544W        W24013   7.626   9.969  12.176 -0.2976  0.2792  0.2599
 8545W        W24014   5.656  13.945  11.478  0.2073  0.0658 -0.1062
 8546W        W24015   3.844  11.670   3.963 -0.0145 -0.0119  0.2164
 8547W        W24016  14.550  10.402   1.219 -0.1730 -0.0692  0.0028
 8548W        W24017   7.709   9.717   5.818  0.0753 -0.0619  0.2942
 8549W        W24018   9.516   8.193   4.824 -0.0135 -0.2719 -0.0853
 8550W        W24019   1.181   0.328   3.195  0.0699 -0.0025  0.0390
 8551W        W24020  15.333   0.571  12.794  0.1294 -0.1534 -0.1894
 8552W        W24021   5.291   3.386   5.113 -0.4996  0.0559  0.4724
 8553W        W24022  13.491  16.331   1.316  0.2163  0.1385 -0.0685
 8554W        W24023  14.841   0.529  10.767 -0.0127 -0.0132  0.3971
 8555W        W24024   7.878   9.194   0.064  0.0601  0.0910  0.1194
 8556W        W24025  10.432  16.908   3.317  0.1160  0.2974 -0.0078
 8557W        W24026   0.429   2.323  12.183  0.3334  0.2193  0.0920
 8558W        W24027  11.768   5.358   0.015  0.0614  0.1810  0.0601
 8559W        W24028  17.419   0.383  11.328 -0.4307 -0.3003  0.2600
 8560W        W24029  11.944   5.366   3.218 -0.3019 -0.0707  0.0676
 8561W        W24030   8.226  11.296   4.335  0.0253  0.1565 -0.0570
 8562W        W24031   4.814  15.577   5.518 -0.2057 -0.0652 -0.1858
 8563W        W24032   4.905   9.314   5.113  0.1886  0.1478  0.3733
 8564W        W24033   8.683  10.131   1.746 -0.1122 -0.0612  0.1515
 8565W        W24034  12.427   4.827  13.677 -0.0994  0.0474  0.0833
 8566W        W24035  15.643  12.043   2.318 -0.1502  0.1314 -0.1534
 8567W        W24036  10.725   7.610   3.270 -0.2157 -0.0461  0.0423
 8568W        W24037  15.381  11.777   1.213 -0.2957  0.1639 -0.0449
 8569W        W24038   4.531  15.679   1.340 -0.0609  0.4393  0.1201
 8570W        W24039   0.662   0.093  12.827  0.0358 -0.3098  0.0297
 8571W        W24040   7.875   1.113   0.855 -0.3199  0.0275 -0.0452
 8572W        W24041  12.247  18.621  14.738 -0.1957 -0.0759 -0.1371
 8573W        W24042   0.552  12.041  11.576  0.2586  0.0877  0.2900
 8574W        W24043  10.236   7.889  12.586  0.0180  0.0526  0.3893
 8575W        W24044   9.754   8.307  14.524 -0.0351  0.1334 -0.1178
 8576W        W24045   0.886   9.746  15.677  0.3535 -0.0846  0.3817
 8577W        W24046   9.339  15.920   4.196 -0.0167  0.2370 -0.2598
 8578W        W24047   9.419   5.531  11.729 -0.4114  0.1694 -0.0409
 8579W        W24048   8.265  17.438   0.018 -0.0344 -0.0768  0.0677
 8580W        W24049   2.255   1.080  13.977  0.1299 -0.2143 -0.0071
 8581W        W24050   5.722  11.756   9.559  0.1867 -0.0910 -0.1715
 8582W        W24051   4.147   7.894  14.198 -0.0647 -0.2372  0.1259
 8583W        W24052  13.570   5.635  14.533 -0.0715 -0.1435 -0.2480
 8584W        W24053   9.707  11.358   1.256 -0.0090  0.2510  0.3503
 8585W        W24054   4.995  16.759  13.207 -0.0487  0.3303  0.2511
 8586W        W24055  10.005   2.728   4.868  0.0785  0.2484 -0.0829
 8587W        W24056  12.199   4.426   1.035  0.2492  0.0036 -0.0230
 8588W        W24057   8.717  15.400  12.248  0.2124 -0.0756  0.0514
 8589W        W24058  12.690   1.578  15.025 -0.3071 -0.0413  0.0484
 8590W        W24059  14.306   2.197  10.782 -0.1407 -0.0726  0.1979
 8591W        W24060  17.688   1.759   5.986 -0.0207  0.1467  0.0638
 8592W        W24061   7.264  14.457   2.472 -0.3815  0.2282  0.3794
 8593W        W24062   0.618   7.183  13.084  0.2547 -0.0331 -0.0834
 8594W        W24063  10.612   6.080   0.849  0.1337 -0.0106  0.3532
 8595W        W24064   4.702  12.283  10.886  0.2569  0.2117  0.0034
 8596W        W24065  16.855  13.089   3.399  0.2589  0.0103  0.2482
 8597W        W24066  14.991  18.292  11.729  0.0819  0.0393  0.2048
 8598W        W24067   5.021   8.245  12.940 -0.3705 -0.0335 -0.0029
 8599W        W24068   6.576   6.573  12.963 -0.1853  0.3292  0.1584
 8600W        W24069   5.929   3.024  11.070  0.0082 -0.0204 -0.1607
 8601W        W24070  13.717   4.138   2.083  0.0344  0.0075  0.1207
 8602W        W24071  13.789   0.303   0.810 -0.3727  0.0705  0.0957
 8603W        W24072  12.183   3.525   2.556  0.2837  0.0337  0.1852
 8604W        W24073  13.232   7.002   2.601 -0.0573  0.1001  0.1935
 8605W        W24074   4.230   2.164  14.825 -0.2210 -0.0844  0.1125
 8606W        W24075   3.489   5.142  10.710  0.0428 -0.1172 -0.1233
 8607W        W24076   0.838  16.834  12.753 -0.0160 -0.2624 -0.0437
 8608W        W24077  18.587   9.594   1.491  0.2011  0.3148  0.1950
 8609W        W24078   6.558  13.900  14.493 -0.0791  0.1676  0.2297
 8610W        W24079   0.759  11.143   1.999 -0.0667  0.0392 -0.1261
 8611W        W24080  18.531  13.057  12.799  0.0444 -0.2216 -0.0280
 8612W        W24081  16.459  13.610   5.060 -0.1134  0.1679  0.1306
 8613W        W24082   6.085  13.954  13.708 -0.3476  0.1315  0.0360
 8614W        W24083  17.954   5.161   3.604  0.0573 -0.2326 -0.3283
 8615W        W24084   9.712  11.600   5.208 -0.0538 -0.1517  0.2064
 8616W        W24085  12.612  10.625   1.133 -0.0780 -0.1172  0.4077
 8617W        W24086   8.164  18.046  14.024  0.5378 -0.2250  0.1595
 8618W        W24087  18.352  14.258  11.514 -0.0297  0.3551  0.1393
 8619W        W24088  10.448  17.326   1.953 -0.1922  0.1065  0.1426
 8620W        W24089   2.943   4.893   3.911 -0.2400 -0.1559  0.0303
 8621W        W24090  16.285  10.290  13.078  0.2898  0.0060  0.1446
 8622W        W24091  10.739   6.400   1.779  0.2500 -0.1826 -0.2643
 8623W        W24092   4.068  13.591   2.877  0.0065  0.2494 -0.2753
 8624W        W24093   5.870   0.114  15.074  0.1113 -0.0769  0.1728
 8625W        W24094  18.541  15.427  12.429 -0.2345 -0.0460 -0.1065
 8626W        W24095  13.356  17.607   4.857 -0.1330 -0.1119 -0.0902
 8627W        W24096  16.332  10.455   2.082  0.2518  0.2632 -0.1775
 8628W        W24097   4.703  11.650  10.428  0.1115 -0.1710  0.3762
 8629W        W24098   7.224   4.035   0.991 -0.0282 -0.1460 -0.0017
 8630W        W24099  13.827  17.229  10.998 -0.0388  0.1450 -0.0914
 8631W        W24100  14.446  18.508  15.495  0.0313  0.0289  0.0624
 8632W        W24101  17.496   3.472   4.234 -0.3824  0.3075 -0.1279
 8633W        W24102   5.035  10.437   3.050 -0.1902  0.0907  0.2450
 8634W        W24103   6.821   9.468   3.914  0.0877 -0.2162 -0.0772
 8635W        W24104   4.560  14.394  14.986 -0.1806  0.1234  0.1612
 8636W        W24105   5.163  14.203   3.748 -0.1316 -0.1359 -0.0001
 8637W        W24106   9.351  17.495   1.077 -0.1108  0.1683 -0.2088
 8638W        W24107  13.005   4.192  12.549  0.0951  0.0203  0.0258
 8639W        W24108   8.925   7.763  15.616 -0.2488  0.0209 -0.0512
 8640W        W24109   6.507   1.621   0.669 -0.2175  0.0051  0.4589
 8641W        W24110   0.146   9.387   5.365 -0.0500 -0.1596  0.1351
 8642W        W24111  10.511  15.279  13.238  0.1119  0.1610 -0.2781
 8643W        W24112  12.389   4.161  14.375  0.1391  0.1605 -0.0500
 8644W        W24113  16.023  16.012   2.498 -0.0364  0.0333 -0.1318
 8645W        W24114  17.574   0.701   0.365  0.2268 -0.0066 -0.0528
 8646W        W24115   9.043  16.208   2.281  0.0409 -0.2655  0.2086
 8647W        W24116   7.879  16.988   1.804 -0.2164  0.1098 -0.0466
 8648W        W24117  17.401   0.001  14.273  0.4754  0.0290 -0.0217
 8649W        W24118  11.197   6.696   0.919 -0.0511 -0.3667  0.0540
 8650W        W24119   3.278  16.088   3.223 -0.0303 -0.0118  0.0446
 8651W        W24120  12.317   2.007  14.992  0.1015 -0.0206 -0.1969
 8652W        W24121   1.946   1.453  14.746 -0.1014 -0.1482 -0.2988
 8653W        W24122  15.006   1.636   4.847 -0.1235 -0.0352  0.0553
 8654W        W24123   9.785   5.726   3.643  0.1603 -0.0218 -0.0977
 8655W        W24124   9.164   9.140  14.505  0.1121 -0.1926  0.0979
 8656W        W24125  11.331  18.402  12.023  0.3687 -0.2455  0.0264
 8657W        W24126  16.711  15.355   2.395 -0.2104 -0.0729  0.0119
 8658W        W24127   0.650   8.178  10.866 -0.0369  0.0637  0.0733
 8659W        W24128   9.755   7.349  11.971  0.0852  0.1085 -0.1475
 8660W        W24129  18.029  11.815  12.317  0.0080  0.1939  0.2720
 8661W        W24130   6.362  18.313   5.518  0.0825 -0.1324 -0.1091
 8662W        W24131  12.034  13.080  14.160 -0.0176  0.1309  0.1513
 8663W        W24132   5.281   9.588   3.333  0.0091 -0.0121  0.1965
 8664W        W24133   0.454  11.509  10.983  0.0440  0.0894  0.2102
 8665W        W24134   4.548   0.372   0.265  0.0979 -0.3284 -0.3079
 8666W        W24135  11.613  12.524  15.690  0.1061 -0.0442  0.1192
 8667W        W24136  14.282  11.659   0.484 -0.0002 -0.1661  0.3409
 8668W        W24137   4.923   2.668   3.378 -0.0976  0.2593  0.4019
 8669W        W24138   5.546  15.544  10.830 -0.0752  0.1538 -0.1010
 8670W        W24139  11.872   5.767   2.793 -0.1377 -0.0730  0.2401
 8671W        W24140  10.507   5.898  13.524  0.1790  0.2012 -0.2427
 8672W        W24141   5.136  14.515  12.047 -0.5340  0.1709  0.1155
 8673W        W24142  12.563  13.233   1.495  0.1896  0.3497  0.0653
 8674W        W24143   5.387   4.703  15.045 -0.0667 -0.3387  0.0947
 8675W        W24144   5.705  12.615   4.651 -0.2147 -0.2470  0.1158
 8676W        W24145   7.267  12.747   3.235  0.0072  0.1324  0.0028
 8677W        W24146   1.313  10.263  14.292  0.2363  0.0229  0.1647
 8678W        W24147  14.156   3.863   1.919  0.0274  0.1179 -0.0904
 8679W        W24148   4.747   3.623  13.640 -0.1632 -0.0396  0.0241
 8680W        W24149  17.608   3.977   0.117  0.1826  0.3342  0.3640
 8681W        W24150   4.083  16.496  10.886 -0.2646 -0.1721  0.0759
 8682W        W24151   8.745   0.211   0.457  0.2216 -0.1493  0.2812
 8683W        W24152  14.286  14.411   0.852 -0.1130  0.4230 -0.1122
 8684W        W24153  10.019   0.319   3.883 -0.1775 -0.1229 -0.1317
 8685W        W24154   6.009   3.080  15.351 -0.2699  0.0269  0.2179
 8686W        W24155  11.111   5.548  12.317  0.0311  0.0387  0.2001
 8687W        W24156   4.939   4.357  13.790  0.0738  0.1577  0.0428
 8688W        W24157   1.576   9.556  12.499 -0.1979  0.1557 -0.1307
 8689W        W24158   1.306   6.361  11.220 -0.4392  0.1171  0.1246
 8690W        W24159  11.674   1.201  13.850 -0.2380 -0.1546  0.1124
 8691W        W24160  17.492   7.366   1.285 -0.0317 -0.2423 -0.2985
 8692W        W24161   9.888  13.897  14.031 -0.3431  0.1881  0.2890
 8693W        W24162   0.241  11.524  13.957 -0.1875  0.2204 -0.2691
 8694W        W24163  17.059  15.222  11.856 -0.2150  0.1398 -0.3780
 8695W        W24164  14.074   8.361   1.212  0.2508 -0.2406 -0.3233
 8696W        W24165   3.839   4.413  15.197 -0.1582  0.1212 -0.0698
 8697W        W24166  17.886  10.705   9.802  0.1685 -0.3004  0.1380
 8698W        W24167  12.532   6.478  12.203 -0.0017 -0.1025  0.1595
 8699W        W24168  15.972   7.345   1.766  0.0381 -0.0241  0.1425
 8700W        W24169  10.873  14.197  11.132  0.0265 -0.3368  0.1474
 8701W        W24170   0.471   2.174   5.335  0.1487  0.0350 -0.1096
 8702W        W24171   5.251  12.831  13.807 -0.0039  0.0380 -0.1442
 8703W        W24172   6.484  18.275  13.313  0.1432  0.0736  0.0076
 8704W        W24173  11.089   0.376  15.497  0.0109  0.2213 -0.2154
 8705W        W24174   2.833   1.895  12.943 -0.2644 -0.0145  0.2854
 8706W        W24175   0.845  13.481   2.780 -0.3500  0.1466  0.3446
 8707W        W24176   6.517   5.680  13.156 -0.1213 -0.3461 -0.3513
 8708W        W24177   1.935   3.252   1.564  0.3250 -0.0961  0.0825
 8709W        W24178   2.215  13.245  10.744 -0.2007  0.2452  0.2669
 8710W        W24179  17.771   9.388  15.073  0.0424  0.1093 -0.3978
 8711W        W24180   4.379  15.504  12.458 -0.1379  0.0562  0.1260
 8712W        W24181   8.170   3.720  15.135  0.1672  0.1627 -0.1478
 8713W        W24182   2.558  12.924   2.861 -0.1793 -0.0988  0.0998
 8714W        W24183   2.273  12.727   0.774 -0.1338  0.0059  0.2752
 8715W        W24184   5.825  17.825  12.794  0.3376 -0.2382  0.0837
 8716W        W24185   2.729   5.739   1.004 -0.1894 -0.0576 -0.0863
 8717W        W24186   4.934   3.344  14.561 -0.1736  0.0086 -0.1375
 8718W        W24187   3.138   0.715  12.676 -0.5001 -0.2991 -0.2958
 8719W        W24188  16.325   9.369  12.381  0.0737  0.2153  0.0192
 8720W        W24189   3.905  11.260  13.225 -0.1778 -0.1634  0.0301
 8721W        W24190  11.480  10.217   1.629 -0.1420  0.0707  0.1535
 8722W        W24191  14.845  12.670   3.720  0.2298  0.1582  0.2226
 8723W        W24192   8.622   7.718  12.753  0.0541 -0.0445  0.2323
 8724W        W24193   1.104   1.242   2.404  0.0182  0.2775  0.3445
 8725W        W24194   2.217   9.248  11.114 -0.0652 -0.0129 -0.2107
 8726W        W24195  16.563  10.715   4.830  0.2912  0.2616 -0.1940
 8727W        W24196   5.082  15.403   2.164 -0.1188  0.1746 -0.2660
 8728W        W24197  12.432   4.543  14.084 -0.0591 -0.0087  0.1722
 8729W        W24198  12.576  10.131   0.863 -0.0001 -0.1803  0.0830
 8730W        W24199   3.617   0.446   5.578  0.0859  0.0411  0.2215
 8731W        W24200  16.456   9.077  14.102  0.2639 -0.3720  0.1454
 8732W        W24201  12.917   4.536  14.287  0.1783  0.3901 -0.2523
 8733W        W24202   9.579   7.995  14.976  0.0127  0.4430 -0.0293
 8734W        W24203   1.016  15.343   4.065  0.7953 -0.0312 -0.0526
 8735W        W24204  16.842   0.115   5.227 -0.1983 -0.0900  0.3738
 8736W        W24205  15.441  10.515   4.214 -0.1392  0.3773  0.0223
 8737W        W24206   9.348  18.609   5.932 -0.0731  0.4140 -0.1803
 8738W        W24207   4.147   4.575  13.614  0.0051 -0.1670  0.0468
 8739W        W24208   4.424   0.387  11.733  0.0800 -0.1176 -0.1075
 8740W        W24209   4.873  14.001  15.269  0.0401  0.3985  0.1333
 8741W        W24210  16.741   2.713  15.644  0.0407  0.3554  0.1251
 8742W        W24211   0.827  16.507   2.482 -0.0248 -0.1772  0.3290
 8743W        W24212   3.847  12.373   0.404  0.1425  0.0534  0.2130
 8744W        W24213  18.146  16.614  11.045  0.1068  0.0762  0.1812
 8745W        W24214   5.645   2.919   0.759 -0.2866  0.2052 -0.1323
 8746W        W24215  17.666  18.046  12.119  0.0067  0.0227 -0.0719
 8747W        W24216  10.444   3.442   5.156 -0.0245  0.0368  0.1848
 8748W        W24217   9.067  11.724  12.621  0.0295  0.0860  0.1958
 8749W        W24218   7.395   2.791  15.767  0.0537  0.0143  0.2345
 8750W        W24219   0.699   7.018   1.157 -0.1093  0.2749 -0.2893
 8751W        W24220   3.459   8.303   5.446  0.2029 -0.1002  0.0923
 8752W        W24221  13.708   4.551  14.831  0.1505 -0.0035  0.0265
 8753W        W24222   9.417   8.949  14.870  0.1754 -0.0180 -0.0957
 8754W        W24223  10.217   2.304  13.254  0.3703  0.3709 -0.1387
 8755W        W24224   8.867   1.154  13.036  0.0796  0.2311 -0.0386
 8756W        W24225  15.658   4.772  14.303  0.1697  0.0847  0.0746
 8757W        W24226  17.528  16.351  14.931 -0.0353  0.1990 -0.1738
 8758W        W24227   6.928  10.135  14.887  0.1407  0.1793 -0.0777
 8759W        W24228  12.797   6.885  14.782 -0.4175 -0.0632 -0.2484
 8760W        W24229  10.860   2.217   4.794  0.0682 -0.0129 -0.3390
 8761W        W24230  12.723   6.242  13.016 -0.1001 -0.3037  0.1037
 8762W        W24231   9.826  15.729  11.666  0.0452 -0.2488 -0.3208
 8763W        W24232   7.303  16.185  14.511  0.0862 -0.3529  0.3365
 8764W        W24233   4.477   7.582   2.938  0.0122 -0.0705 -0.1344
 8765W        W24234  15.456   6.104   0.504  0.0429 -0.4347 -0.0387
 8766W        W24235  16.215   0.041  13.244  0.0962 -0.0214 -0.4175
 8767W        W24236   7.596  14.014  11.658  0.0717 -0.3218  0.0373
 8768W        W24237   3.966  18.085   0.138 -0.1517 -0.1517 -0.3131
 8769W        W24238   0.214   1.013  14.279  0.1872  0.1492 -0.0053
 8770W        W24239   6.363  17.331   2.304  0.3969 -0.1218 -0.0890
 8771W        W24240   4.453  12.620   1.655  0.0473 -0.0187 -0.2845
 8772W        W24241   3.661   3.212   0.118 -0.2365 -0.0791 -0.2357
 8773W        W24242   0.066  14.521  14.039  0.1118  0.1198 -0.0512
 8774W        W24243   4.411   9.985  14.731  0.0617 -0.1297  0.1640
 8775W        W24244   1.197   3.503   9.964 -0.1173  0.0071  0.1970
 8776W        W24245  15.341   4.722  11.472 -0.1309  0.0989  0.2038
 8777W        W24246   8.860  16.084   4.203  0.1200  0.0327  0.2333
 8778W        W24247   6.062   8.986   4.689  0.1025  0.0831 -0.0645
 8779W        W24248  13.821  10.626   3.289 -0.0330 -0.1788  0.4694
 8780W        W24249   2.724   5.217   5.714 -0.1911 -0.0504 -0.1457
 8781W        W24250  17.233  16.508  12.057  0.2026 -0.1290 -0.2739
 8782W        W24251  13.277   2.393  13.246  0.3171  0.0458 -0.0041
 8783W        W24252  13.737   7.189  14.763 -0.3903  0.0617 -0.1265
 8784W        W24253   8.541  13.616  14.032 -0.1290 -0.0203  0.0795
 8785W        W24254   6.536   7.649  13.972  0.0901  0.1528 -0.3534
 8786W        W24255   4.570   0.196  15.000 -0.0607 -0.2179 -0.1015
 8787W        W24256   7.191   6.418   3.959  0.2178 -0.2469 -0.1102
 8788W        W24257  11.454   7.460  13.154  0.3888  0.0518 -0.2236
 8789W        W24258   1.545  16.961  11.510  0.3141 -0.0793  0.0302
 8790W        W24259  15.138   0.047   5.165 -0.2336 -0.1380  0.0103
 8791W        W24260  12.507   9.370   5.315 -0.0579 -0.1770  0.1656
 8792W        W24261  11.413   7.673   0.755  0.3397  0.1597 -0.0858
 8793W        W24262   4.569  15.190  11.515 -0.2362 -0.0591  0.1913
 8794W        W24263   4.991   9.613  12.887 -0.1963 -0.1613  0.0567
 8795W        W24264   0.795  14.314   2.510 -0.0926  0.1021  0.1828
 8796W        W24265   7.279  11.775  14.135  0.1776 -0.1715 -0.1091
 8797W        W24266  18.590  16.512   4.176 -0.0335  0.0555 -0.0091
 8798W        W24267  18.611   9.288   0.984 -0.1854 -0.4853 -0.1296
 8799W        W24268  14.965   9.455   3.291 -0.0291  0.0282 -0.3523
 8800W        W24269   3.451   0.383   4.380  0.0436  0.0170 -0.1290
 8801W        W24270  12.353   9.810   3.292 -0.1212 -0.1902  0.4378
 8802W        W24271   5.729  10.236  10.994 -0.1597 -0.1510 -0.0347
 8803W        W24272   5.665  12.831   1.358 -0.3132 -0.0300 -0.0249
 8804W        W24273  15.309   1.582   3.816 -0.1424 -0.1117 -0.0743
 8805W        W24274   2.006   8.400  14.613  0.0221 -0.0356  0.1035
 8806W        W24275   0.966  10.577  12.021  0.0395 -0.1773 -0.2596
 8807W        W24276   3.926  14.500   4.015  0.3263  0.0065  0.0413
 8808W        W24277  13.646   3.408   0.312  0.0333  0.0566 -0.0943
 8809W        W24278  10.796  13.319   2.713 -0.2578 -0.0037 -0.2254
 8810W        W24279   2.301  10.282   0.539 -0.1122  0.0754  0.1468
 8811W        W24280   6.282  10.547  10.844  0.1337  0.2478  0.0601
 8812W        W24281   1.939   9.290  12.893  0.1689  0.1731  0.3048
 8813W        W24282  10.303  17.179  12.223  0.1492  0.1731 -0.0389
 8814W        W24283  11.021   0.030   2.598  0.3110 -0.0451  0.1193
 8815W        W24284  12.373   6.184   3.675 -0.3887  0.2216 -0.1851
 8816W        W24285   8.788   1.614  12.751 -0.1309 -0.2347  0.0658
 8817W        W24286  17.630   8.091  11.158  0.1589 -0.1371  0.0269
 8818W        W24287   8.939  10.073  15.672  0.1073 -0.1405  0.0084
 8819W        W24288  14.687   4.848  12.089  0.0720  0.1352  0.0294
 8820W        W24289  13.853   0.537  12.346  0.1451  0.0680 -0.0155
 8821W        W24290   5.142   4.611  10.759  0.0702  0.0677 -0.0635
 8822W        W24291  11.031   5.347   3.204 -0.0704 -0.2336  0.0728
 8823W        W24292   5.285   5.558   5.231  0.2768 -0.3352  0.2109
 8824W        W24293   4.386  16.885  14.162  0.2512 -0.0253  0.2560
 8825W        W24294   6.441  12.825  14.452 -0.2664 -0.0810 -0.0200
 8826W        W24295   2.772   0.404   2.566 -0.0693 -0.1898 -0.0824
 8827W        W24296   6.931   0.176   1.271 -0.1126  0.0766  0.1099
 8828W        W24297   7.360  12.950  11.126 -0.2550 -0.0658  0.0306
 8829W        W24298  14.547   6.551  12.542  0.1682  0.3423  0.1763
 8830W        W24299   6.276   0.344   4.242 -0.0277  0.0550  0.4286
 8831W        W24300  10.451  10.432   6.222  0.0018 -0.2999  0.0327
 8832W        W24301  17.424   5.164  14.379 -0.1406 -0.0239 -0.0115
 8833W        W24302   8.831  15.166  13.918 -0.3179  0.0039  0.0925
 8834W        W24303   7.131   3.387  13.360  0.1159  0.0289  0.0664
 8835W        W24304   7.472   1.314   3.075  0.0782 -0.1319 -0.0968
 8836W        W24305   9.777   2.202   4.772  0.3107 -0.4372 -0.0497
 8837W        W24306   9.345  10.356   5.392 -0.0839 -0.2031  0.0213
 8838W        W24307   3.917  17.068  13.943 -0.0572 -0.0120 -0.0430
 8839W        W24308   1.929   2.308   1.171  0.0613  0.3123 -0.2659
 8840W        W24309   9.953   4.959   0.447 -0.1769 -0.0832  0.0807
 8841W        W24310   5.750   2.425   0.103  0.0829 -0.0628 -0.3729
 8842W        W24311  10.375   3.058   5.883 -0.1543  0.0831  0.4671
 8843W        W24312  13.633  12.599   0.391 -0.0467 -0.1501  0.3758
 8844W        W24313   0.775   1.911  12.932  0.2937 -0.0288  0.1762
 8845W        W24314  14.573   2.138  12.879  0.1590  0.1693  0.0349
 8846W        W24315   8.797   2.821   5.040 -0.0491  0.1523 -0.0668
 8847W        W24316  15.868   7.494   3.878 -0.0157 -0.1748  0.0853
 8848W        W24317  14.742   0.744   1.098 -0.2592  0.0139 -0.0465
 8849W        W24318   8.314  13.615  15.571 -0.2421  0.0817 -0.0005
 8850W        W24319   7.186   1.104   0.204 -0.0520 -0.1015 -0.1342
 8851W        W24320   3.923   8.754   2.893 -0.0716  0.0767 -0.1842
 8852W        W24321  11.247   8.343   0.505 -0.0673 -0.4288  0.0714
 8853W        W24322  14.401   4.557  13.351 -0.0288 -0.0489 -0.5721
 8854W        W24323   6.672  11.919  11.216  0.1347  0.2019 -0.0467
 8855W        W24324   7.331   2.785   4.970 -0.1469 -0.0642  0.0590
 8856W        W24325   1.972   4.650   1.911 -0.1172 -0.0197 -0.0444
 8857W        W24326   7.301  12.093   5.694 -0.2196  0.3326 -0.1001
 8858W        W24327   8.244   6.862   0.663  0.1110 -0.0164  0.1210
 8859W        W24328   3.206  13.515   3.895  0.2797  0.3085  0.2510
 8860W        W24329   1.360  11.757   1.157  0.0612 -0.0773 -0.1676
 8861W        W24330  12.335   2.376   5.174 -0.0452 -0.3134  0.1113
 8862W        W24331   7.623  15.409   3.943 -0.0863  0.2523 -0.1374
 8863W        W24332  13.769   3.760   3.526  0.0446 -0.6821  0.2536
 8864W        W24333  16.846  12.279   1.642 -0.0616 -0.0759  0.0027
 8865W        W24334   0.380   6.105   0.313 -0.1289  0.0735 -0.3126
 8866W        W24335  13.543  16.687  14.813 -0.1986 -0.1009  0.1897
 8867W        W24336   6.083   6.466  12.274 -0.2349 -0.0079 -0.0892
 8868W        W24337   6.487  12.387   9.618  0.2896 -0.1277 -0.0075
 8869W        W24338  14.293   3.127  15.425  0.3852 -0.1039 -0.2278
 8870W        W24339  18.411   3.297   0.045 -0.1785 -0.0784 -0.1376
 8871W        W24340  13.925   2.762  12.810  0.3221 -0.1891  0.4074
 8872W        W24341  10.111  16.802   1.127 -0.0001  0.0443  0.0308
 8873W        W24342  14.714  12.932  11.206  0.2014  0.2176  0.1468
 8874W        W24343  17.653  12.841   1.587 -0.0587 -0.1837 -0.2304
 8875W        W24344  17.756  11.146   4.007  0.0140  0.1950  0.0162
 8876W        W24345  14.200   7.880   0.507  0.1442  0.0511 -0.0182
 8877W        W24346  10.106  11.988   4.674  0.3029  0.0853  0.4067
 8878W        W24347   9.060   3.409   6.012  0.3132  0.0212  0.0964
 8879W        W24348   3.724   5.219   2.521 -0.0084 -0.0131 -0.0072
 8880W        W24349   2.093  12.103   1.549 -0.3583 -0.1365 -0.2020
 8881W        W24350  18.377  17.681   0.666 -0.2776  0.2997 -0.2307
 8882W        W24351  14.595  11.932  10.752  0.0822  0.0921 -0.1222
 8883W        W24352   7.054   6.930   1.307  0.0026 -0.1354  0.0300
 8884W        W24353   1.349   3.362   3.554  0.0834  0.3627  0.2733
 8885W        W24354   2.880   7.078   3.325  0.0829 -0.2800 -0.1796
 8886W        W24355   1.181   0.634   0.999  0.2147 -0.0844 -0.1076
 8887W        W24356  18.531   4.042   4.368 -0.0464 -0.1143 -0.0676
 8888W        W24357   6.195   3.710   3.051 -0.1551 -0.1987  0.2962
 8889W        W24358   8.940  10.710   4.307  0.3638  0.1412  0.1172
 8890W        W24359   3.821   3.695  14.026 -0.2420 -0.1122  0.0190
 8891W        W24360  16.479  14.154   0.494 -0.1733  0.1054  0.0424
 8892W        W24361   2.828  14.702  13.373 -0.1510 -0.0598  0.1153
 8893W        W24362  14.853  16.319   1.573  0.3095 -0.1558 -0.0391
 8894W        W24363   2.645   3.729  12.986  0.0565  0.2988  0.0654
 8895W        W24364   1.490  17.631   9.917 -0.2637 -0.0448 -0.0412
 8896W        W24365   2.319   5.867   3.157 -0.2629  0.1500 -0.3389
 8897W        W24366   0.100  10.486  13.932 -0.1086  0.2385  0.2633
 8898W        W24367  12.330   3.984   3.906 -0.0252 -0.0829 -0.2762
 8899W        W24368  15.078  10.542   3.886  0.2799 -0.1268  0.1246
 8900W        W24369  10.691   9.416   0.362 -0.1436  0.0170 -0.0711
 8901W        W24370   6.341  16.431  10.750 -0.1769  0.3107 -0.2204
 8902W        W24371  13.159   9.268   2.530 -0.1618 -0.2688 -0.0691
 8903W        W24372  14.602   9.692  15.043  0.1621  0.1608  0.0086
 8904W        W24373   3.775   9.262  13.974  0.0426  0.0930 -0.1082
 8905W        W24374  16.941   7.139  11.419  0.0166  0.0957 -0.1333
 8906W        W24375  17.382  10.601   1.172 -0.1625 -0.3916 -0.0309
 8907W        W24376   9.004   4.751  14.111  0.0335  0.0648  0.1704
 8908W        W24377   4.036  10.342  10.558  0.2612  0.1935  0.2677
 8909W        W24378  12.513   9.904  14.055  0.3409 -0.0230  0.1486
 8910W        W24379   4.925  12.975   9.810 -0.1929  0.1060  0.0743
 8911W        W24380  17.110  15.958  10.941 -0.3502  0.1343 -0.1313
 8912W        W24381  17.160  17.150  15.115 -0.2615  0.0102  0.1204
 8913W        W24382  12.974   7.491  11.049  0.1030  0.1139  0.0045
 8914W        W24383  12.956  13.560   4.987 -0.2353  0.1657  0.0878
 8915W        W24384  12.956   5.453   4.807  0.0813  0.2452  0.1856
 8916W        W24385   6.553   6.761   1.116  0.1445 -0.2565  0.3052
 8917W        W24386   1.116   4.533  10.558  0.4296  0.1005 -0.0431
 8918W        W24387  15.173  13.166   5.270  0.0170  0.1420 -0.2325
 8919W        W24388   7.076  15.767  14.685 -0.0630  0.0219  0.1867
 8920W        W24389  12.459  11.274  14.070 -0.1392  0.1641 -0.0485
 8921W        W24390   9.202   2.564  13.150 -0.3793 -0.0847  0.0729
 8922W        W24391  18.269  17.760  13.290 -0.1785  0.0999 -0.4190
 8923W        W24392   6.575   1.706   3.764 -0.0727  0.2634 -0.0299
 8924W        W24393  12.352  13.510   3.630  0.1237  0.2127 -0.3135
 8925W        W24394  18.004  10.167  13.452 -0.1120 -0.0476  0.0609
 8926W        W24395  10.791   0.776  10.463  0.0745  0.4882 -0.0516
 8927W        W24396   1.309   3.714  13.397  0.0317  0.0142  0.1394
 8928W        W24397  17.374   7.835   1.224  0.1828  0.1326  0.0521
 8929W        W24398  11.224  11.204  12.601 -0.0044 -0.0376 -0.1995
 8930W        W24399   5.465  16.448   4.551  0.0490 -0.0171  0.2196
 8931W        W24400  11.584  17.330   1.532 -0.0428 -0.0657 -0.4266
 8932W        W24401  18.314   1.199   1.075  0.1330  0.2010 -0.0639
 8933W        W24402  10.772   8.086  12.572  0.2421  0.1594 -0.2055
 8934W        W24403   6.857   0.885  14.332  0.0696  0.0554  0.0054
 8935W        W24404  13.161  14.013   5.276 -0.2059  0.3518 -0.2428
 8936W        W24405  15.259  15.814   1.827  0.0666 -0.2104  0.0342
 8937W        W24406  11.208   3.711  11.973 -0.1595 -0.1735 -0.3606
 8938W        W24407  17.591  13.463  14.820 -0.1798 -0.0683  0.2587
 8939W        W24408   5.926  14.845   3.366 -0.1204  0.0131 -0.1285
 8940W        W24409  15.246  13.180  12.892  0.1608  0.1356  0.2271
 8941W        W24410   2.686   7.990   3.897 -0.2584  0.0044 -0.0994
 8942W        W24411   6.593   8.801  12.241 -0.0754 -0.2639 -0.2792
 8943W        W24412  13.034   3.893   1.420 -0.1115  0.1550  0.1757
 8944W        W24413   3.545   5.361   0.695  0.1090  0.0066  0.1292
 8945W        W24414  10.457  10.337   1.670  0.0379 -0.1575  0.1056
 8946W        W24415   7.628  15.690  11.026 -0.0036 -0.2045 -0.0088
 8947W        W24416  11.143   0.329   2.960  0.0148  0.1556  0.0795
 8948W        W24417  18.342   5.818  11.546 -0.2241 -0.0623 -0.1841
 8949W        W24418  14.037   2.653   0.645 -0.0049 -0.0095  0.1367
 8950W        W24419  10.524  10.636   5.717  0.1259 -0.1676  0.0752
 8951W        W24420  16.354   0.894  14.747  0.0315 -0.1798  0.4614
 8952W        W24421   1.662   5.990  12.315  0.0672  0.3463 -0.1678
 8953W        W24422  10.925   7.204   2.405 -0.2033 -0.2212 -0.3110
 8954W        W24423  18.289   1.215   5.465 -0.2676 -0.1043  0.0428
 8955W        W24424   9.635   3.951   1.907 -0.1926 -0.2143 -0.0178
 8956W        W24425   2.114   4.200  15.659 -0.4698  0.2103  0.3019
 8957W        W24426   2.142  11.547  11.133 -0.1009  0.2449  0.0199
 8958W        W24427  18.341   4.320  13.459 -0.0764 -0.0376  0.2829
 8959W        W24428   5.644  13.051   5.998  0.0298  0.4162 -0.4020
 8960W        W24429   9.756   3.553  13.513 -0.1813  0.1010 -0.0433
 8961W        W24430  16.575   4.900  11.003 -0.1627 -0.1119  0.2256
 8962W        W24431  13.660   4.128  13.298  0.0372  0.2597  0.0596
 8963W        W24432   4.352  15.561   1.770  0.1544  0.0813 -0.1289
 8964W        W24433   3.330  12.176   3.942 -0.0748  0.0228  0.0896
 8965W        W24434  17.664   0.596  13.057 -0.1180  0.2566  0.0251
 8966W        W24435   1.723  18.241   2.014 -0.2819  0.1858  0.0460
 8967W        W24436   0.063   0.095  14.688  0.0665  0.5338 -0.2881
 8968W        W24437  16.528   4.999   2.721  0.0207 -0.3589  0.1138
 8969W        W24438  16.461   1.557  13.106 -0.0995 -0.2391  0.1101
 8970W        W24439  17.874   0.083   5.375 -0.0306 -0.0563 -0.2539
 8971W        W24440   9.333   5.904  14.585 -0.0634 -0.0674  0.2826
 8972W        W24441   2.131  12.523   2.964  0.2528 -0.4010 -0.0923
 8973W        W24442   0.190  10.395   2.911  0.1833 -0.3052 -0.2437
 8974W        W24443  12.552   7.557   1.327 -0.1216  0.1880  0.0551
 8975W        W24444   8.288  10.739   1.126 -0.2034 -0.0010 -0.2537
 8976W        W24445  17.318   0.038   5.388 -0.0184  0.1612  0.4150
 8977W        W24446   6.772   8.699   2.945  0.3058  0.2247 -0.0859
 8978W        W24447   2.339   1.717  11.139 -0.1318 -0.1772 -0.2807
 8979W        W24448   5.281   5.013   5.155  0.0849  0.0706 -0.0864
 8980W        W24449   0.561  13.390   0.147 -0.0775  0.3338  0.1259
 8981W        W24450  18.620  15.573   3.282 -0.1443  0.2079  0.1139
 8982W        W24451  13.850  13.386  14.434 -0.0307 -0.4787  0.3243
 8983W        W24452   4.981   2.527   5.234  0.2289 -0.3643  0.0792
 8984W        W24453   2.428   2.479   1.480 -0.3431  0.0274  0.0651
 8985W        W24454  16.925   7.763  13.203  0.0449 -0.0034 -0.0912
 8986W        W24455   6.332  14.187   4.962  0.1899 -0.0293  0.0668
 8987W        W24456   7.548   3.569   4.710  0.0312  0.2472  0.2584
 8988W        W24457   6.040  14.569   3.845  0.0228  0.3064  0.0127
 8989W        W24458   9.842   1.526   3.459 -0.2453  0.0498  0.0866
 8990W        W24459   9.566   7.323  15.408  0.0735 -0.0199  0.1289
 8991W        W24460  16.822   8.594   1.200  0.0485 -0.1686  0.2816
 8992W        W24461  14.439   1.857  14.596  0.1491  0.0663 -0.2496
 8993W        W24462   4.877  15.087  13.581 -0.1926 -0.1127  0.2530
 8994W        W24463   0.156   0.384   2.429  0.1420  0.0069  0.0813
 8995W        W24464   9.268  15.955  14.770  0.1808 -0.1412  0.2308
 8996W        W24465  12.064   9.428   1.899 -0.0167  0.0620 -0.0330
 8997W        W24466   1.106   3.914  12.274  0.3505  0.0903  0.0666
 8998W        W24467  13.703   3.361   4.371 -0.2004 -0.2398  0.2726
 8999W        W24468   1.822   0.918   3.787  0.3463 -0.0235 -0.0569
 9000W        W24469   9.119  12.667  11.171  0.2905  0.2743 -0.2744
 9001W        W24470   5.597  15.161   2.266 -0.0065  0.0236 -0.1438
 9002W        W24471  15.973   8.349  11.459  0.0704 -0.0492 -0.1717
 9003W        W24472  12.850   0.106   1.252  0.0830 -0.3679 -0.1408
 9004W        W24473  14.903  12.820  13.800  0.0841  0.3978  0.1636
 9005W        W24474   2.847  17.606  13.466  0.0239  0.3202  0.0383
 9006W        W24475  10.168   6.403  11.199  0.0251 -0.0268 -0.5018
 9007W        W24476  12.186  10.644  11.017  0.0652  0.0338  0.1118
 9008W        W24477   5.581  11.147  10.636 -0.0354  0.4979 -0.1867
 9009W        W24478   0.151   8.499  10.292  0.2411 -0.1240  0.2764
 9010W        W24479  14.106  16.664  11.615  0.2381  0.0252  0.4195
 9011W        W24480  17.983  14.269   4.487 -0.1145  0.0209  0.2780
 9012W        W24481   6.803   6.304   6.143 -0.1628 -0.0988  0.1323
 9013W        W24482   5.744  16.466  13.425 -0.2479 -0.0376 -0.0162
 9014W        W24483  15.960  16.306  11.802 -0.1436  0.0197 -0.2685
 9015W        W24484   7.630   8.215  14.867 -0.0759  0.0293 -0.0038
 9016W        W24485  10.528  11.522  12.121  0.1478 -0.2525 -0.3636
 9017W        W24486  17.947  15.949   1.239 -0.2810  0.0833  0.4181
 9018W        W24487  16.002   3.631  11.716  0.1233  0.0303  0.2070
 9019W        W24488  16.197   3.098  14.760 -0.1326  0.0037 -0.3033
 9020W        W24489  13.725  16.158  13.420  0.0935  0.4149  0.0534
 9021W        W24490  11.572  11.993   2.891 -0.3633 -0.2149 -0.2800
 9022W        W24491   5.951   5.354  11.016 -0.0213  0.3376  0.3740
 9023W        W24492   8.717   5.177  15.002  0.0407 -0.0079 -0.0842
 9024W        W24493   0.932  10.025   2.514  0.0534  0.3665  0.1333
 9025W        W24494  17.335   6.112  13.458  0.0149 -0.1830 -0.1475
 9026W        W24495  14.136  11.693   3.774  0.0158  0.0276 -0.2206
 9027W        W24496   4.828  15.222  15.454  0.1062  0.2503  0.1798
 9028W        W24497  10.366   5.705  11.330 -0.0234 -0.0992  0.2062
 9029W        W24498   4.584   4.761  15.356 -0.0226 -0.1266 -0.3822
 9030W        W24499  17.149  18.210   4.102 -0.1702 -0.1480  0.1493
 9031W        W24500   0.823  18.124  13.396  0.0790 -0.0059 -0.0548
 9032W        W24501   8.887   1.144  11.854  0.0089 -0.1166 -0.2762
 9033W        W24502   1.685  10.490   4.740 -0.1762 -0.2504 -0.2058
 9034W        W24503   4.875   8.395   4.437  0.0836  0.1278  0.1805
 9035W        W24504  12.697   9.088   4.933 -0.1300  0.0321 -0.0362
 9036W        W24505  18.103   0.142  10.066 -0.0943  0.1465 -0.3109
 9037W        W24506   0.262  13.299   4.619  0.1502 -0.0950  0.0582
 9038W        W24507  17.330  12.481   1.709 -0.1846 -0.0543  0.2726
 9039W        W24508   2.709   9.395   5.207 -0.0054  0.2838 -0.0866
 9040W        W24509  18.278  16.890   5.107  0.4437 -0.0610 -0.3115
 9041W        W24510   2.867  10.501  12.122 -0.1414 -0.1480 -0.1186
 9042W        W24511  13.317  18.623  11.781  0.0407  0.2484  0.2652
 9043W        W24512   6.997   4.354   1.630 -0.1658  0.2145  0.1434
 9044W        W24513   8.245   7.209   4.828  0.0860  0.1481  0.1893
 9045W        W24514   7.017  14.991  10.351  0.2706  0.0654 -0.0119
 9046W        W24515   2.177  15.168  11.051  0.2568 -0.0604  0.0788
 9047W        W24516   8.786   9.144   4.097 -0.1524  0.2117 -0.2066
 9048W        W24517   5.241   0.609   1.905  0.0015 -0.0137 -0.0229
 9049W        W24518  14.893  13.835  13.688 -0.1251  0.3061  0.1261
 9050W        W24519   2.969   7.679   2.601  0.0238  0.0382  0.1014
 9051W        W24520  13.530   2.430   0.431  0.3483 -0.0975  0.0730
 9052W        W24521   1.389   4.316   3.083  0.0731 -0.2203 -0.0224
 9053W        W24522   1.963   3.780   4.142  0.2177 -0.2547  0.0945
 9054W        W24523  17.237   5.270  13.428 -0.0310 -0.1860 -0.1085
 9055W        W24524   6.953  13.642  13.456  0.1994 -0.0198  0.4667
 9056W        W24525   4.182   3.589   2.618  0.2169  0.2338  0.2111
 9057W        W24526  12.644  12.754  14.396  0.1101  0.2834  0.2031
 9058W        W24527  12.465  11.922   3.534  0.0072 -0.1646 -0.0886
 9059W        W24528  12.733  11.410  13.691 -0.1674  0.1281  0.0450
 9060W        W24529  18.377   7.354  13.294  0.0950 -0.1796  0.2318
 9061W        W24530  10.391   4.054  13.106 -0.0798  0.1355  0.1596
 9062W        W24531  16.704  13.852   1.601  0.1948 -0.1861  0.2243
 9063W        W24532  14.611  18.296  12.058 -0.0134  0.1028  0.2450
 9064W        W24533   9.549   6.937   2.584 -0.0332  0.0394  0.1643
 9065W        W24534   7.372   5.954   5.378  0.0495  0.0896 -0.1367
 9066W        W24535  16.649   9.906  14.907 -0.2719 -0.0641  0.1873
 9067W        W24536   7.285  11.537   1.434  0.2817  0.1152 -0.1850
 9068W        W24537   2.871   0.715   2.026 -0.0175  0.1297  0.0765
 9069W        W24538  14.820   7.541  11.959 -0.2580  0.1412 -0.0986
 9070W        W24539   0.627   7.347  14.373 -0.3497 -0.1627 -0.2345
 9071W        W24540  11.782   0.890  13.329 -0.0355 -0.0318  0.3649
 9072W        W24541   5.604   4.543   5.252  0.0489 -0.1083 -0.1814
 9073W        W24542  11.369  18.110  11.105  0.0692  0.0823  0.2396
 9074W        W24543  12.908  10.217   2.705  0.4603  0.1360 -0.0770
 9075W        W24544  14.092  10.211  10.988 -0.2220 -0.0973 -0.0109
 9076W        W24545   9.350   4.732   1.318 -0.0940 -0.1521  0.0009
 9077W        W24546   9.805  14.186   3.832 -0.2735  0.2651  0.2123
 9078W        W24547   7.512   8.780  12.969  0.3273 -0.1786 -0.3787
 9079W        W24548   6.355  12.381   5.476  0.0449  0.3269 -0.0914
 9080W        W24549   1.943   3.937  12.670  0.0788 -0.0324 -0.1400
 9081W        W24550   9.142   9.186   0.264  0.2124 -0.0440 -0.1017
 9082W        W24551   4.719  16.069   5.671 -0.2767 -0.2247 -0.1757
 9083W        W24552  12.305   0.309  10.962 -0.0758 -0.1401 -0.2785
 9084W        W24553   8.561   7.183  14.330  0.0953  0.0341 -0.0589
 9085W        W24554  16.762   7.371   1.676 -0.0919  0.1743 -0.0582
 9086W        W24555  16.355  10.560  14.759  0.2117 -0.0552 -0.2299
 9087W        W24556   2.855   0.600   4.556 -0.0474 -0.0447  0.4555
 9088W        W24557  17.885  11.483   1.746 -0.1372 -0.3119 -0.2162
 9089W        W24558   6.471   9.298   0.443 -0.0123 -0.2765 -0.0895
 9090W        W24559  10.600  11.899   2.021  0.0051  0.0183  0.3957
 9091W        W24560   3.310  14.044   1.106 -0.1189  0.4956  0.2422
 9092W        W24561   9.518   2.116  13.939  0.0616  0.0065  0.0388
 9093W        W24562  16.547   4.359   5.189  0.2546 -0.1318  0.1002
 9094W        W24563  11.731  17.712   1.860  0.2267  0.0555  0.1702
 9095W        W24564   7.205   4.570   3.768 -0.1911  0.1302 -0.1156
 9096W        W24565  10.785  12.900   3.395 -0.1969  0.0437  0.0184
 9097W        W24566   9.153  15.249   1.364  0.4066 -0.0487 -0.0301
 9098W        W24567  11.889   8.824  11.400 -0.0519 -0.0413  0.1460
 9099W        W24568  16.872   6.575   2.245 -0.0450 -0.0599  0.1699
 9100W        W24569   2.165  16.399   2.090  0.0090 -0.1682 -0.0769
 9101W        W24570   1.527  16.132  14.867  0.3892  0.1681  0.3292
 9102W        W24571   8.383  14.166   1.236 -0.0982 -0.4319  0.2908
 9103W        W24572  10.506  18.031  10.798  0.0292 -0.0889  0.0419
 9104W        W24573   9.072  13.972  15.516 -0.0180 -0.0429 -0.0316
 9105W        W24574   0.633   8.372  15.127 -0.0336 -0.0076 -0.2944
 9106W        W24575  17.872   7.664   9.526 -0.0012  0.1546 -0.0682
 9107W        W24576  10.207  16.110   4.555 -0.0531 -0.4370  0.0948
 9108W        W24577   2.083  10.863  11.971 -0.3054  0.1987 -0.0222
 9109W        W24578  10.338  16.712   3.902  0.2877  0.0920  0.0213
 9110W        W24579   8.491   4.064  14.161  0.0575 -0.2868  0.1347
 9111W        W24580  16.508  10.825   0.801 -0.1566 -0.0451  0.0390
 9112W        W24581  11.154   6.880  12.659  0.1287  0.2892  0.0010
 9113W        W24582  12.518  12.891   1.893 -0.0843 -0.2230 -0.1108
 9114W        W24583  13.651   0.513  10.125  0.2252 -0.2201  0.2341
 9115W        W24584   7.460   5.158   4.566 -0.5540  0.1329 -0.1232
 9116W        W24585   7.195   7.787   1.545  0.1061  0.2847  0.1138
 9117W        W24586  17.566   1.024   2.757  0.1223 -0.1153  0.0408
 9118W        W24587   0.095   5.994  11.229 -0.2443  0.0428 -0.3051
 9119W        W24588  15.240   8.760   3.772  0.0008 -0.3286  0.0735
 9120W        W24589  17.975  16.289  15.774 -0.1413 -0.1316 -0.1529
 9121W        W24590  14.613   8.983  12.345  0.0765  0.2409 -0.0997
 9122W        W24591   2.719  11.648  11.978  0.1509  0.0761  0.0748
 9123W        W24592   7.777   3.381  13.447 -0.1777  0.2094 -0.1368
 9124W        W24593   1.632   1.008   0.111  0.0764  0.0973 -0.1283
 9125W        W24594   7.277   3.049  12.316 -0.3186  0.2160  0.1805
 9126W        W24595  17.397   4.951  13.033 -0.0899 -0.2297 -0.2390
 9127W        W24596   0.370  11.755  13.469  0.1880 -0.1480 -0.0452
 9128W        W24597  12.374  13.220  15.420 -0.2796 -0.0406  0.0749
 9129W        W24598   7.851  14.557  10.659 -0.2850 -0.3415  0.1364
 9130W        W24599  16.045  13.381  15.231 -0.3463 -0.1137 -0.0051
 9131W        W24600   0.177   5.251   3.765 -0.1323 -0.3781 -0.0344
 9132W        W24601   7.648   8.334  13.688  0.0558  0.0262  0.0523
 9133W        W24602   0.405  16.909   3.211 -0.0613  0.1357 -0.1838
 9134W        W24603   8.359  11.937  12.004 -0.0457 -0.3085 -0.1760
 9135W        W24604   9.162  15.397  15.230 -0.1904 -0.1809  0.3828
 9136W        W24605  18.499   4.374  10.545 -0.2466 -0.3269 -0.0261
 9137W        W24606  13.444   8.326   2.717  0.0781  0.3674  0.1961
 9138W        W24607  10.598   3.981  12.105  0.2428  0.0481 -0.3611
 9139W        W24608  16.936  14.172  13.032 -0.3050  0.2097  0.1156
 9140W        W24609   3.067  14.240   5.056  0.1488  0.1538 -0.2839
 9141W        W24610   4.167  11.266   1.945 -0.0271  0.1732  0.0664
 9142W        W24611  17.273   1.539  12.108  0.0871  0.1251  0.0090
 9143W        W24612  10.120   8.281  10.552  0.1631 -0.3317  0.0273
 9144W        W24613   2.295  17.507   2.583 -0.0326  0.1251 -0.0430
 9145W        W24614  13.345   7.382  13.486 -0.1025 -0.3516 -0.0342
 9146W        W24615   1.151   6.341   4.335 -0.1236  0.0112 -0.1023
 9147W        W24616   1.475  17.560   2.408 -0.2647 -0.0328  0.1262
 9148W        W24617  13.084   6.329   5.352  0.0936 -0.1258 -0.1622
 9149W        W24618   6.396   8.718  15.418  0.1045  0.0766 -0.0968
 9150W        W24619   5.062  12.171   0.866 -0.0484 -0.1376  0.1088
 9151W        W24620   0.595  14.677  14.758 -0.0238 -0.1854 -0.1200
 9152W        W24621  13.111  16.677   4.596  0.0959  0.0723 -0.1695
 9153W        W24622  15.283  14.408  13.477  0.0579 -0.2204  0.3955
 9154W        W24623   3.674   0.414  11.961 -0.0988 -0.0237  0.0661
 9155W        W24624   2.817  10.370  11.620  0.2544  0.3657 -0.1361
 9156W        W24625  12.943   6.144  12.575  0.0919 -0.1851 -0.2123
 9157W        W24626   2.839  18.444  11.788  0.2078  0.0169 -0.1350
 9158W        W24627   0.350  10.959  10.352 -0.1082  0.1696  0.1249
 9159W        W24628   3.683  10.157  13.050 -0.0271  0.0352 -0.2537
 9160W        W24629  12.888   2.877  14.381 -0.3161  0.1437 -0.1385
 9161W        W24630   9.581   9.549   0.986 -0.3293 -0.2830 -0.1919
 9162W        W24631  11.747   5.218  13.961 -0.3569 -0.0872 -0.0611
 9163W        W24632  16.066  12.578  13.697  0.0852  0.1403  0.4021
 9164W        W24633   7.521  10.359  15.603 -0.1541  0.0898  0.2036
 9165W        W24634   1.646   2.349  14.534 -0.0740 -0.3620 -0.2267
 9166W        W24635  15.526  13.675  11.599  0.0536  0.2325 -0.2597
 9167W        W24636  17.106  16.340   0.272  0.0929 -0.1812  0.3122
 9168W        W24637  11.265   3.973   2.056  0.0216  0.1521  0.0431
 9169W        W24638   0.929   4.739  13.880  0.3013 -0.2061  0.2450
 9170W        W24639   6.571  16.683   1.454 -0.0113  0.0895 -0.1669
 9171W        W24640   8.353  11.640  15.728  0.1286  0.2311 -0.1059
 9172W        W24641  10.451   7.485  12.170 -0.0462  0.0136 -0.0462
 9173W        W24642   8.167  12.894   0.661 -0.0672  0.0566  0.2549
 9174W        W24643  11.133  11.319   1.695  0.0023 -0.0194  0.0553
 9175W        W24644  11.767   6.398  11.798  0.1436  0.0860 -0.2008
 9176W        W24645  16.194   1.103   5.005 -0.0318  0.2576  0.1848
 9177W        W24646   3.709   2.052  13.128  0.5157  0.1574  0.0545
 9178W        W24647   0.929   2.107   0.155 -0.0491  0.0984  0.1571
 9179W        W24648   8.972   8.017   4.646  0.2854 -0.0378 -0.0485
 9180W        W24649   1.947  14.292   2.440  0.1845 -0.1453  0.1680
 9181W        W24650   3.817   4.764  12.346  0.1113  0.0082 -0.3097
 9182W        W24651   9.906   0.689   4.477 -0.0982  0.2486  0.0233
 9183W        W24652   4.186  11.387  11.898  0.2638 -0.1475  0.0748
 9184W        W24653  10.885  18.295  12.888  0.1218  0.1831  0.1636
 9185W        W24654  16.951  10.092   4.399  0.3079 -0.2135  0.2004
 9186W        W24655  18.447   8.120  11.967  0.1107 -0.4790 -0.1240
 9187W        W24656  16.709   6.670   1.738 -0.3233 -0.1693 -0.3096
 9188W        W24657   1.562  11.792   0.691  0.2394 -0.0596 -0.1715
 9189W        W24658  12.400   5.294  14.003 -0.1024 -0.0608 -0.2141
 9190W        W24659  16.070  10.600   4.797 -0.3663 -0.0270 -0.0983
 9191W        W24660   7.762   7.431  10.906  0.0014 -0.3309 -0.0288
 9192W        W24661  10.913   3.039   1.226  0.0954  0.0568  0.2455
 9193W        W24662   7.017  17.363  10.903 -0.1675 -0.3488  0.0546
 9194W        W24663  15.674   6.533  11.265 -0.3373  0.3111  0.0485
 9195W        W24664   4.261   2.970   3.499 -0.2391 -0.0141  0.1878
 9196W        W24665   1.792   1.679  13.975 -0.0852 -0.0066  0.0510
 9197W        W24666  10.001   7.159  13.139  0.1847  0.1937  0.1266
 9198W        W24667   1.120  11.704  15.523 -0.0813  0.1940 -0.2856
 9199W        W24668   9.948  12.891  14.567 -0.0604 -0.1024  0.1534
 9200W        W24669  12.482   9.515   2.476  0.2027 -0.2979 -0.0603
 9201W        W24670  18.493   3.781   1.520  0.1683  0.3096  0.1282
 9202W        W24671  14.530   7.542   4.704 -0.0104 -0.1407 -0.0440
 9203W        W24672   1.168   4.989   1.617 -0.1100  0.2625  0.0227
 9204W        W24673  12.806  14.215  15.501 -0.1728  0.2443 -0.1352
 9205W        W24674  18.001  15.233   1.716  0.0604  0.2238 -0.1699
 9206W        W24675   0.789  17.450  10.410  0.3333 -0.1709 -0.1143
 9207W        W24676   9.614   5.730   2.775 -0.1520 -0.1559  0.1764
 9208W        W24677  15.286   7.396   2.178  0.3977 -0.1997  0.1745
 9209W        W24678  17.816   7.301  14.253  0.1120 -0.0865  0.0396
 9210W        W24679   8.278   7.634  12.310 -0.2991  0.2299  0.2312
 9211W        W24680   4.585  11.654  14.013  0.0234  0.0319 -0.0512
 9212W        W24681  14.390   9.854   4.232 -0.1426 -0.1133  0.1862
 9213W        W24682   8.105   1.755  12.867  0.1232  0.0447 -0.1815
 9214W        W24683  12.725   2.914  11.736 -0.0591  0.2536  0.1570
 9215W        W24684   3.739   5.111   3.908  0.1653  0.1135  0.0366
 9216W        W24685   9.520   8.980  14.017 -0.0590  0.0546 -0.1332
 9217W        W24686  13.769  11.383   5.993  0.1601  0.2062 -0.0158
 9218W        W24687   8.177  12.886   2.860 -0.1985 -0.0542 -0.1434
 9219W        W24688  18.535   9.208  11.946  0.1280 -0.4139  0.0091
 9220W        W24689  16.994   1.755   3.707  0.0328  0.1296 -0.0937
 9221W        W24690  11.176  10.041   4.247  0.2632  0.1862  0.2948
 9222W        W24691   4.922  10.242   2.523 -0.1493  0.3246  0.1933
 9223W        W24692   1.660  11.021   0.562  0.0433 -0.2100 -0.0083
 9224W        W24693   1.919   4.029  14.104 -0.1235 -0.0633 -0.3296
 9225W        W24694  16.466  10.447   1.569  0.1807  0.0824  0.1114
 9226W        W24695   9.073   6.742   0.833 -0.2963 -0.4789  0.1809
 9227W        W24696  17.115   2.928  11.536  0.0951  0.1571  0.1945
 9228W        W24697   7.451  16.225  13.513  0.0608  0.1263  0.0770
 9229W        W24698  15.699   4.410  13.591 -0.3577  0.1033  0.1938
 9230W        W24699   2.819   4.668  12.174 -0.0960  0.0834  0.1762
 9231W        W24700   6.610   9.685  13.523 -0.4229  0.2395 -0.2404
 9232W        W24701   9.294  10.008  14.092 -0.1292 -0.2881  0.2437
 9233W        W24702  13.654  17.236  15.033  0.2655  0.1923 -0.3214
 9234W        W24703   0.278   8.747   3.218 -0.2472 -0.1976 -0.1201
 9235W        W24704   7.283  13.968  13.371  0.4972 -0.1414 -0.2107
 9236W        W24705  16.937   7.894   9.447  0.3292 -0.0815  0.1872
 9237W        W24706   1.294   9.102   4.783 -0.2192 -0.0426  0.0330
 9238W        W24707  12.509  11.720   5.420 -0.0926  0.3405 -0.2953
 9239W        W24708   0.891   3.773  12.693 -0.0494 -0.0043 -0.2437
 9240W        W24709  15.132  13.518   5.597 -0.0757 -0.3106 -0.1372
 9241W        W24710   1.649  11.493  11.554 -0.2751 -0.1311  0.0766
 9242W        W24711   5.477   7.127   1.472 -0.0173  0.2656  0.2490
 9243W        W24712  11.333  14.119  14.403  0.1853  0.1521 -0.0884
 9244W        W24713  17.841   2.651  14.528 -0.1840  0.0186  0.1211
 9245W        W24714  14.711   9.375   0.397  0.1696  0.0808 -0.0636
 9246W        W24715  10.585  11.727  13.282  0.2922 -0.0611 -0.0204
 9247W        W24716  17.737  17.287   5.018  0.1333 -0.1842  0.0520
 9248W        W24717   2.441  14.985  15.114 -0.2039  0.1546  0.0560
 9249W        W24718  12.239  11.072  11.300  0.0898 -0.2638  0.0022
 9250W        W24719   5.502  12.836   5.569  0.2825 -0.0545 -0.0672
 9251W        W24720  15.853  15.167  14.718  0.1670 -0.0130 -0.0522
 9252W        W24721  16.554   4.646  15.026  0.1185 -0.0682  0.0747
 9253W        W24722  12.472   9.899   5.207  0.1713 -0.0546 -0.1360
 9254W        W24723   9.742  16.372   0.959  0.1929 -0.0201  0.1370
 9255W        W24724  16.266  17.707   4.945  0.2234  0.4376  0.1107
 9256W        W24725  14.402   2.806   4.696 -0.0043 -0.1923  0.0482
 9257W        W24726   0.454   7.084   0.349  0.1573 -0.1034 -0.0451
 9258W        W24727   5.527   8.849   0.050  0.0161 -0.2428  0.0780
 9259W        W24728   9.902   8.006  11.362  0.0646 -0.2116 -0.0504
 9260W        W24729   7.660  18.526  14.139  0.1276 -0.0159 -0.2407
 9261W        W24730  16.007   5.167   9.827 -0.1711 -0.1328  0.0410
 9262W        W24731   6.305   0.180  14.692  0.0108  0.1056 -0.0896
 9263W        W24732  14.594  17.501   1.089  0.1875  0.3374 -0.3161
 9264W        W24733  17.913   8.784  14.357  0.5119  0.0506  0.3059
 9265W        W24734   0.764  14.144  12.497  0.1394 -0.0605 -0.1440
 9266W        W24735   8.150   8.357   6.172 -0.1254 -0.0912 -0.1765
 9267W        W24736  11.649   8.957  13.961  0.0011 -0.2552  0.0068
 9268W        W24737  16.358  13.089  12.693  0.1625 -0.0789 -0.2600
 9269W        W24738  17.001   7.895  13.713 -0.0259  0.0410 -0.0453
 9270W        W24739   9.380  15.559   0.667 -0.1481  0.1983 -0.2561
 9271W        W24740  11.503  15.361  11.609 -0.2319 -0.0380  0.0067
 9272W        W24741   4.570   5.301   2.023  0.0008 -0.0969 -0.2659
 9273W        W24742  13.503  16.283   1.986  0.2829  0.4054  0.2823
 9274W        W24743  14.709   2.151   0.306  0.1026 -0.0862 -0.0541
 9275W        W24744   1.893   6.473  13.453  0.1174 -0.1018 -0.0749
 9276W        W24745   7.052   9.886   0.894  0.0852 -0.1048 -0.0713
 9277W        W24746  12.889   8.005  12.417  0.3947 -0.0217  0.0920
 9278W        W24747  10.074  14.774  12.354 -0.0562 -0.4246  0.1254
 9279W        W24748  15.512   9.496   1.645  0.0648 -0.0190 -0.3614
 9280W        W24749  15.299   1.503   5.269  0.1498 -0.3490 -0.1075
 9281W        W24750  12.852  16.700   2.488 -0.3841  0.3376 -0.0585
 9282W        W24751  14.614  16.746  11.645  0.0451  0.3036  0.0480
 9283W        W24752  17.346   3.644   9.983 -0.0019 -0.0523  0.3416
 9284W        W24753  11.725   9.457  11.341 -0.1860  0.0472  0.2371
 9285W        W24754   5.744   6.987  12.646 -0.1569  0.1525  0.1161
 9286W        W24755  16.421   2.664   1.921 -0.2398  0.0100 -0.0932
 9287W        W24756  10.471   6.768  12.209 -0.2973  0.3106 -0.0477
 9288W        W24757   4.753  11.756   0.081 -0.0152  0.0393 -0.1785
 9289W        W24758  14.913  12.575  15.092 -0.1935 -0.0006 -0.0952
 9290W        W24759   1.665  17.392  14.996 -0.1953 -0.0457  0.1578
 9291W        W24760   7.039  10.212   4.099 -0.1072 -0.3597  0.0849
 9292W        W24761  15.298  18.059   5.001  0.2034  0.0032  0.2559
 9293W        W24762  12.108  14.525  14.495  0.0523 -0.0458 -0.0504
 9294W        W24763  15.471   5.885   3.920 -0.1042  0.0688  0.0523
 9295W        W24764   1.197  10.677   0.261 -0.2900  0.0422  0.2319
 9296W        W24765  18.212   3.766  11.109 -0.0776  0.1873 -0.0516
 9297W        W24766   4.861   1.256   5.375  0.0019 -0.0438 -0.1227
 9298W        W24767   1.508   3.170  15.051  0.2885  0.2359 -0.0293
 9299W        W24768   8.107  17.943   0.033  0.0136 -0.0132  0.0689
 9300W        W24769   5.961   7.316   2.239  0.4100  0.3367  0.0683
 9301W        W24770  10.177   5.473  14.463 -0.1637  0.1048  0.1247
 9302W        W24771   0.416   1.698  11.245  0.0254  0.1105  0.0183
 9303W        W24772  14.316   1.054  13.962 -0.1083  0.1946 -0.0475
 9304W        W24773   3.176   8.865  11.889  0.0757  0.1311  0.1348
 9305W        W24774  15.527  12.778  12.779 -0.2752  0.2397 -0.3696
 9306W        W24775   1.547  16.953  12.826 -0.1366 -0.4773  0.1811
 9307W        W24776   0.830   0.741   3.973  0.1058 -0.0489 -0.0007
 9308W        W24777   9.565  15.685  15.103  0.1229  0.4196  0.1539
 9309W        W24778  15.542  10.517  12.286  0.0531  0.0212  0.0983
 9310W        W24779  11.572  12.580   2.043 -0.0090  0.3164  0.0388
 9311W        W24780   8.663   6.759  11.778  0.0751 -0.0623 -0.0406
 9312W        W24781   4.141  14.538   4.979 -0.2368 -0.3144 -0.3244
 9313W        W24782   8.407  14.353  14.841  0.1842 -0.0228 -0.3556
 9314W        W24783  13.506   4.842  11.300 -0.0984  0.1306 -0.0128
 9315W        W24784   7.848  11.016  13.882  0.1185 -0.1412 -0.2302
 9316W        W24785  10.532   8.911   3.887 -0.1780 -0.1077  0.1157
 9317W        W24786   4.812  15.276   4.632  0.5668 -0.2434 -0.1907
 9318W        W24787  16.655   8.052   0.051  0.0591 -0.4195  0.2529
 9319W        W24788   4.327  12.921   4.529  0.4378 -0.2116 -0.0452
 9320W        W24789  10.733   7.756  14.335 -0.1765 -0.3925 -0.0102
 9321W        W24790  10.960   0.087  13.231 -0.2260  0.0749  0.0156
 9322W        W24791  12.606   8.766   1.932  0.0416 -0.3112 -0.3818
 9323W        W24792   2.025  12.021   0.735  0.0700  0.0654 -0.0897
 9324W        W24793  12.765   1.541  12.157 -0.0310 -0.1174  0.0224
 9325W        W24794  17.828   4.207  13.884  0.1607  0.4127 -0.2877
 9326W        W24795  11.195   0.630  13.140  0.0085 -0.1966  0.0237
 9327W        W24796   1.025  11.503  12.976  0.1321  0.3968  0.0106
 9328W        W24797  12.557   8.892   3.563  0.1115 -0.1922 -0.1428
 9329W        W24798  16.236   3.033   4.954 -0.1693  0.1612 -0.0735
 9330W        W24799  10.712   1.085   3.393 -0.0066 -0.0310 -0.0588
 9331W        W24800   0.334  17.730  11.744  0.0688  0.1180 -0.1383
 9332W        W24801  16.782  16.407   3.495 -0.3443  0.3945  0.4545
 9333W        W24802  13.048  18.460   5.008 -0.1512  0.0002  0.0153
 9334W        W24803   0.395   7.280  13.494  0.0624  0.0485 -0.0311
 9335W        W24804   8.727   8.358  11.896 -0.2582  0.1506  0.1975
 9336W        W24805  11.668   7.613   0.227 -0.2756 -0.0199 -0.2891
 9337W        W24806   7.334   7.157   3.465 -0.1861 -0.1042 -0.3450
 9338W        W24807   7.638  14.440   4.913 -0.0428  0.1898 -0.1850
 9339W        W24808  15.022   2.787   5.625  0.2980 -0.3166 -0.1247
 9340W        W24809  12.711   1.438   4.662  0.0402  0.1383  0.1965
 9341W        W24810   1.466   2.950   1.572  0.2048 -0.3279 -0.2875
 9342W        W24811   0.903   9.632  15.140  0.1304  0.0863  0.2002
 9343W        W24812  11.161  16.999   1.616  0.1406  0.0150  0.0455
 9344W        W24813  11.896  14.587   2.751  0.0309  0.0436  0.1316
 9345W        W24814   4.135  12.802   0.588 -0.1785  0.1677 -0.0136
 9346W        W24815  14.934   3.540   0.387 -0.3061  0.2590 -0.2499
 9347W        W24816  15.875   1.281   4.664  0.0040  0.0159  0.2965
 9348W        W24817   7.519  17.125   5.270 -0.0324 -0.2272  0.1158
 9349W        W24818   1.504   4.932  13.919 -0.1799  0.0121 -0.0095
 9350W        W24819  12.678   4.697   1.759 -0.1298  0.0237  0.1499
 9351W        W24820   6.580  14.201  10.774 -0.1032  0.0285 -0.0157
 9352W        W24821   6.798   9.647   2.791 -0.2733  0.3916 -0.1760
 9353W        W24822   4.528   5.181  10.780 -0.1427  0.0138 -0.0044
 9354W        W24823   1.146  12.440   4.508  0.0184 -0.0684  0.2650
 9355W        W24824  16.485  11.655  11.634  0.1789  0.0600 -0.1284
 9356W        W24825   8.892   0.497   3.548  0.1599 -0.0593 -0.1348
 9357W        W24826   5.847   8.568  11.619 -0.0764 -0.1013 -0.0321
 9358W        W24827   7.853   5.163   2.609 -0.2396 -0.3792  0.2082
 9359W        W24828  17.701  12.036   0.585  0.1018 -0.0556 -0.2273
 9360W        W24829   1.689  15.283  13.826 -0.2510  0.0194  0.6870
 9361W        W24830   3.520   2.193   1.166  0.1444  0.1894 -0.1176
 9362W        W24831  13.895   0.199  11.023  0.1242 -0.2970  0.2561
 9363W        W24832  16.125   5.471  14.738  0.0298 -0.2472  0.0123
 9364W        W24833   7.338   4.078  11.517  0.0944  0.2301  0.2519
 9365W        W24834  13.288  13.740   3.288  0.2691 -0.1429 -0.1426
 9366W        W24835   7.808  16.929   2.588  0.1131  0.2942 -0.4407
 9367W        W24836   6.299  14.787  13.246  0.0398 -0.0284  0.1757
 9368W        W24837   2.397  15.884   1.957  0.0819 -0.0671  0.5746
 9369W        W24838   4.330  16.740  13.122  0.1323 -0.0178  0.1814
 9370W        W24839  17.966  17.297   3.994  0.0733  0.0513  0.0419
 9371W        W24840   8.003   4.278   2.089  0.4177 -0.2119  0.2103
 9372W        W24841  17.194   1.475   1.503  0.0061  0.2787  0.0534
 9373W        W24842  14.030   1.491  11.309  0.2924 -0.0507  0.1035
 9374W        W24843  10.930  17.196   5.077  0.3251  0.0200  0.0874
 9375W        W24844  15.411   7.241  15.205 -0.0880  0.0520 -0.4185
 9376W        W24845   8.541  10.552   2.056 -0.2800 -0.1178  0.1458
 9377W        W24846   5.477   7.226   5.881  0.0237 -0.1261  0.3373
 9378W        W24847  12.651   2.076   4.404  0.1003  0.2594 -0.1599
 9379W        W24848   2.087   4.770   2.400 -0.1648 -0.2610  0.0371
 9380W        W24849  15.037   4.431   4.698  0.1223  0.0801 -0.0194
 9381W        W24850   8.170   9.834   2.474  0.1532  0.3204  0.0226
 9382W        W24851   3.414   7.701   2.895 -0.1469  0.3761  0.1486
 9383W        W24852   3.631   0.207   3.927 -0.2780 -0.1771 -0.0923
 9384W        W24853   5.361  15.547   0.534  0.0487 -0.2885 -0.0801
 9385W        W24854  13.721   0.020   3.965  0.2043  0.1371 -0.4971
 9386W        W24855   7.084   6.312  13.744 -0.0300 -0.0244  0.1454
 9387W        W24856   1.340  14.442   0.019 -0.0514  0.0680 -0.0427
 9388W        W24857   7.010  17.015  15.651 -0.0763  0.3962 -0.0330
 9389W        W24858   4.949  10.590   1.214  0.0180 -0.0839 -0.0294
 9390W        W24859   7.410   7.278   0.359 -0.3675 -0.0101  0.2735
 9391W        W24860   2.733   3.151   2.214  0.0514  0.0438 -0.3624
 9392W        W24861   8.703   7.125   3.545 -0.1774 -0.1733  0.0605
 9393W        W24862  15.259  17.562  15.604 -0.2453 -0.2593  0.0503
 9394W        W24863  10.631   0.126  15.741 -0.2513  0.0915  0.0180
 9395W        W24864   8.109   6.381   3.723 -0.1510 -0.1669  0.0984
 9396W        W24865   1.263   1.769  15.751  0.0136  0.0469 -0.4439
 9397W        W24866  14.447   1.206   3.301 -0.1842  0.0500  0.1962
 9398W        W24867   5.271   5.076  11.885 -0.2747  0.1122 -0.1294
 9399W        W24868  10.131  15.101  14.574 -0.1314 -0.3169  0.3947
 9400W        W24869  16.970  14.478  11.779  0.0553 -0.1193 -0.1012
 9401W        W24870   9.674   4.858   2.758  0.3427 -0.1590  0.1700
 9402W        W24871  16.293   2.072   4.938  0.1320  0.1989 -0.2790
 9403W        W24872   8.845   2.195   1.105 -0.3783  0.0093 -0.1061
 9404W        W24873   5.332   7.100   0.053 -0.1830 -0.0044 -0.0713
 9405W        W24874   1.017   5.763   0.861 -0.1858 -0.0260  0.0127
 9406W        W24875   9.431   0.467   5.628 -0.1957  0.2401 -0.0315
 9407W        W24876  14.464  18.069   2.286  0.3215  0.1308  0.0409
 9408W        W24877  16.233  12.371   3.228 -0.1522 -0.1753  0.1411
 9409W        W24878  11.853   5.837  13.858 -0.2549 -0.0664  0.2297
 9410W        W24879   5.189  15.814  12.462  0.3217  0.0750  0.1746
 9411W        W24880  13.111   6.932  15.496 -0.1601 -0.0991 -0.0561
 9412W        W24881   7.433  10.350  13.936 -0.0869 -0.1155  0.5476
 9413W        W24882   5.144   0.581  13.561 -0.1186 -0.2750 -0.2631
 9414W        W24883   3.449   7.374  15.520 -0.3029  0.2950  0.0441
 9415W        W24884  17.633  10.080  12.301  0.3732  0.0632 -0.2618
 9416W        W24885   5.627   7.267  12.235  0.2928 -0.2286  0.0431
 9417W        W24886   7.715  12.717  14.686 -0.2927 -0.0652  0.0155
 9418W        W24887  10.637  13.573   4.507 -0.0437  0.3544 -0.0659
 9419W        W24888   5.686   8.846   0.682 -0.1761  0.1956  0.2262
 9420W        W24889  13.368  15.503  11.622  0.0475  0.1721  0.0874
 9421W        W24890  10.056   6.057   4.398  0.2126  0.3609  0.0608
 9422W        W24891   1.066  13.842   4.591 -0.1091 -0.0204  0.3459
 9423W        W24892   5.279   5.010   1.385 -0.1208  0.1279  0.2320
 9424W        W24893  10.869   2.793  13.565 -0.3527 -0.1794  0.1107
 9425W        W24894   7.562  13.664   3.732  0.0712  0.5611  0.0548
 9426W        W24895   2.730  14.372   5.410 -0.0041 -0.0716 -0.0019
 9427W        W24896   7.894   1.897   3.939  0.1135  0.2112  0.1418
 9428W        W24897   0.252   9.284  13.526 -0.0533 -0.0624  0.1162
 9429W        W24898  11.470  17.918  13.535  0.3552  0.0154 -0.1292
 9430W        W24899   6.558   1.133  13.265 -0.0895  0.1621  0.0988
 9431W        W24900  15.629   3.137  14.029  0.1356  0.4107  0.0655
 9432W        W24901   5.372  13.104  14.217  0.4915 -0.2370 -0.0725
 9433W        W24902   2.095   8.098   2.039 -0.3815 -0.0733 -0.0471
 9434W        W24903   3.072  12.095   2.625  0.4846  0.0008  0.2044
 9435W        W24904  10.324   3.042  11.246 -0.0879 -0.3926  0.4018
 9436W        W24905   6.903   0.327  12.417  0.1715  0.2324  0.0198
 9437W        W24906   7.389   8.244  12.222  0.0916 -0.0860 -0.1037
 9438W        W24907  11.789  13.921  13.391  0.0564  0.1619  0.1447
 9439W        W24908   5.527   3.473   3.481 -0.1395  0.1283  0.0354
 9440W        W24909   1.249  14.071  14.089  0.0730 -0.1648 -0.1272
 9441W        W24910   9.985  12.822   3.781  0.2121 -0.0173 -0.0497
 9442W        W24911  10.774  15.053  13.690 -0.2053  0.2912 -0.1729
 9443W        W24912  12.916   0.668  12.227 -0.0625  0.2757 -0.1535
 9444W        W24913   8.232   4.434  15.701 -0.0147  0.0406 -0.0989
 9445W        W24914   6.602   3.772  15.265  0.2577 -0.0458  0.1781
 9446W        W24915   9.215   7.138   3.399 -0.0011 -0.0321 -0.0623
 9447W        W24916   0.710  17.990   4.573 -0.1387  0.0046 -0.2504
 9448W        W24917   9.323  11.806   2.605 -0.0146 -0.1218  0.1582
 9449W        W24918  17.096  16.166  14.979 -0.2568  0.2126 -0.0573
 9450W        W24919  18.359   0.446   5.921  0.1783  0.0903 -0.1582
 9451W        W24920  17.500   1.462  11.123 -0.1246  0.2012 -0.1151
 9452W        W24921  12.526  12.931   4.701 -0.3977  0.0087  0.0005
 9453W        W24922  12.099   2.974   2.350 -0.1255 -0.0068  0.0343
 9454W        W24923   7.500  15.909   0.942 -0.3504 -0.2672 -0.2085
 9455W        W24924   7.332  15.615   0.382  0.0515  0.1361 -0.0336
 9456W        W24925   9.518  11.516   3.048  0.2594  0.2546  0.4133
 9457W        W24926  13.624   6.759  12.785  0.0899  0.2338 -0.2045
 9458W        W24927   6.057  12.742  10.424  0.0923 -0.0900  0.2070
 9459W        W24928  15.772   5.141  14.631  0.2436 -0.1032 -0.2782
 9460W        W24929   7.463  12.177  14.501  0.1076  0.0820 -0.1231
 9461W        W24930   8.649   4.709   5.690  0.2527  0.0374  0.0304
 9462W        W24931   3.203  16.965   5.044 -0.0260  0.0427 -0.0500
 9463W        W24932   9.313   7.514   4.140 -0.1666 -0.0317  0.1050
 9464W        W24933   2.269   9.485  13.868 -0.0680 -0.0505  0.1368
 9465W        W24934   2.119   8.998  13.518 -0.1973  0.0866 -0.0849
 9466W        W24935  16.256  17.069   2.846  0.0675 -0.0108  0.0846
 9467W        W24936  14.385   2.377  14.572 -0.2553 -0.0681  0.0471
 9468W        W24937   6.829   9.507   1.882  0.1566  0.0417 -0.0043
 9469W        W24938   9.155  13.453   3.811  0.0398  0.4957 -0.1524
 9470W        W24939   0.580  11.522  14.818  0.4426 -0.1953 -0.2147
 9471W        W24940   0.038   1.543   1.905 -0.0323  0.1305 -0.3755
 9472W        W24941   2.324  11.147   1.696 -0.1401 -0.0099 -0.0728
 9473W        W24942  14.698  15.155  14.714  0.1988 -0.0212  0.1609
 9474W        W24943   7.464  11.952  11.542 -0.1106  0.0432 -0.1188
 9475W        W24944   3.706  11.201  11.827  0.0533  0.2196  0.3272
 9476W        W24945  10.428  14.123  11.525 -0.1037 -0.0534  0.2006
 9477W        W24946  11.109  15.138   1.085  0.0454 -0.0920 -0.0889
 9478W        W24947   7.342   5.875  15.574  0.1137  0.0428  0.0887
 9479W        W24948  10.941   3.434   4.345  0.0163  0.2104 -0.1099
 9480W        W24949   5.662   9.678  15.705  0.4336  0.0253  0.1424
 9481W        W24950  18.565  18.581   2.514 -0.1008  0.0526 -0.0856
 9482W        W24951  16.797  15.371   3.437 -0.0670 -0.6040 -0.0316
 9483W        W24952  13.739  14.133   4.501  0.1072  0.3352 -0.1852
 9484W        W24953  14.528   0.967  10.532  0.2201  0.1383 -0.1767
 9485W        W24954  13.101   0.047  13.542 -0.0713  0.2597  0.1243
 9486W        W24955   1.613   7.077   1.304 -0.0293  0.2552  0.2445
 9487W        W24956   2.276  11.655   0.553  0.2949  0.0987  0.0192
 9488W        W24957   4.248   4.299   3.737 -0.0552 -0.0339  0.4229
 9489W        W24958  18.526   8.305  10.710  0.1357  0.0104 -0.2134
 9490W        W24959   3.607   0.941   4.968 -0.2731 -0.1765  0.1406
 9491W        W24960   4.236   6.206   2.886 -0.0426 -0.2375 -0.1029
 9492W        W24961  14.241   3.262   4.539 -0.3096 -0.0325  0.0058
 9493W        W24962  17.625  13.367  11.910  0.1222  0.0553  0.3082
 9494W        W24963  16.753   8.919   2.703  0.1308 -0.1391  0.1143
 9495W        W24964   0.191   5.849  11.734  0.0898  0.1406  0.5167
 9496W        W24965  10.248   1.355  13.634  0.0629 -0.0188  0.0506
 9497W        W24966   6.382  12.774  13.041 -0.5378  0.0245 -0.0880
 9498W        W24967   0.638   5.156   4.733 -0.2187  0.2253 -0.0649
 9499W        W24968   2.885   4.048   2.585  0.1027  0.1343  0.1774
 9500W        W24969   5.262  14.897  13.194  0.0735  0.2271  0.1442
 9501W        W24970  12.927  17.981   4.853  0.3049 -0.0242 -0.0688
 9502W        W24971  11.602   3.294   3.296  0.0401 -0.0903  0.2870
 9503W        W24972   7.538   9.108  14.305 -0.0042  0.1410  0.0480
 9504W        W24973   5.655  17.570   1.976 -0.1403  0.0118 -0.0103
 9505W        W24974   7.752  15.853   0.330 -0.2665 -0.0931  0.1989
 9506W        W24975   9.119   5.268  10.951 -0.0052  0.2087 -0.0362
 9507W        W24976   4.047  13.028  14.481 -0.2351  0.1404 -0.2447
 9508W        W24977   7.111  16.727   1.534  0.0118 -0.0235 -0.1186
 9509W        W24978   7.281   7.001   0.879  0.3201 -0.1720  0.1544
 9510W        W24979   4.100   3.029  12.849 -0.1371 -0.3917 -0.2389
 9511W        W24980  15.818   9.283  14.925  0.2033 -0.0223  0.1402
 9512W        W24981   5.574  12.335  15.430 -0.1653 -0.1130  0.0809
 9513W        W24982  15.803   8.864   3.630 -0.1686  0.0902  0.1114
 9514W        W24983   5.441  11.635   2.491 -0.2005  0.0397 -0.0428
 9515W        W24984   9.642  14.789   4.554  0.0132  0.2744  0.0864
 9516W        W24985   1.695   0.309   2.705  0.1776 -0.1721 -0.0271
 9517W        W24986   8.277  12.920  10.321 -0.4141 -0.0256 -0.1950
 9518W        W24987  14.376  18.377   1.820  0.1644  0.1899 -0.2670
 9519W        W24988   4.347  17.776  13.876  0.0134  0.0069  0.0061
 9520W        W24989   4.712  10.359  10.505  0.2737 -0.0878  0.1159
 9521W        W24990  17.615  13.477  12.760 -0.2169 -0.0271  0.1656
 9522W        W24991   7.492  16.513   2.403  0.2348  0.1331 -0.2494
 9523W        W24992  13.965  13.429   2.789  0.1174  0.0242 -0.0424
 9524W        W24993  10.758   2.532   0.365 -0.3884 -0.0530  0.0634
 9525W        W24994   3.634  13.860   2.002 -0.2660  0.1794  0.1874
 9526W        W24995   6.563  13.158   2.439  0.1002  0.2745 -0.1593
 9527W        W24996  14.517  13.534  15.133  0.3345 -0.2514 -0.3666
 9528W        W24997  15.430   9.955   3.987  0.2718  0.2305 -0.2954
 9529W        W24998  16.426   8.940  10.801 -0.0742  0.1213  0.3971
 9530W        W24999   1.938   1.814  14.401 -0.3528 -0.2175  0.3328
 9531W        W25000   8.481   9.648   0.385 -0.2598  0.0755  0.0131
 9532W        W25001   9.500  13.089  10.484  0.0492 -0.0138  0.0614
 9533W        W25002   7.857  18.239   5.164 -0.0130 -0.2209  0.4956
 9534W        W25003   7.410   6.172   4.383 -0.3957 -0.3092 -0.2437
 9535W        W25004  13.204  16.152  12.278 -0.1762 -0.0671  0.1750
 9536W        W25005   9.697   0.744  12.776 -0.0647  0.4598  0.0421
 9537W        W25006   1.319  18.507   5.523  0.0840  0.0321  0.1570
 9538W        W25007  17.109   9.300   3.866  0.0319 -0.0159 -0.0048
 9539W        W25008   4.450  11.704   3.274 -0.1193 -0.0072 -0.0045
 9540W        W25009   6.559  18.199   9.616 -0.0441 -0.0657 -0.1201
 9541W        W25010   4.937   6.059   0.000 -0.3368 -0.0636  0.1501
 9542W        W25011   1.825   0.139   2.261  0.2350 -0.3114 -0.0326
 9543W        W25012   6.682  17.914  12.330  0.4286  0.1576  0.0019
 9544W        W25013  12.840   9.637   4.956  0.3617 -0.2468 -0.1745
 9545W        W25014   3.803   6.845   5.007  0.0393 -0.0443 -0.1223
 9546W        W25015  13.008   4.438  11.674  0.0514  0.1860  0.0585
 9547W        W25016  10.798   5.269   4.094  0.3266 -0.0881  0.2546
 9548W        W25017   5.939   2.016  15.541  0.2678  0.2552 -0.4434
 9549W        W25018  13.322   8.711  11.160 -0.1291  0.3107 -0.0195
 9550W        W25019   3.007  18.207   3.517  0.1795 -0.2315 -0.0023
 9551W        W25020  18.035   6.050   0.396  0.0897 -0.0249 -0.1153
 9552W        W25021   8.491  10.848  10.096  0.0741  0.1044 -0.1803
 9553W        W25022  18.234   5.967  14.254 -0.0620  0.0532  0.0175
 9554W        W25023   8.439  14.863  13.173  0.3547  0.0738  0.1457
 9555W        W25024  13.947   2.843   5.006 -0.1821 -0.0399 -0.0511
 9556W        W25025  12.890   4.108  15.231  0.2932 -0.3029 -0.1655
 9557W        W25026  10.687  17.435  13.286 -0.2344 -0.1485  0.0141
 9558W        W25027   1.598   6.808  13.804  0.1951 -0.3096 -0.2490
 9559W        W25028  18.625  14.809  13.069  0.0895  0.2931 -0.0165
 9560W        W25029  17.562  16.089   4.465  0.0629 -0.0235  0.5752
 9561W        W25030  15.297  16.695   2.815  0.2062  0.2802  0.1854
 9562W        W25031   4.420   7.250  12.915  0.2530 -0.0140  0.0529
 9563W        W25032   3.775  14.724  10.897 -0.1246 -0.0940  0.0796
 9564W        W25033   7.618   4.892   3.702  0.1106  0.0216  0.1371
 9565W        W25034   1.866   0.776  14.165 -0.0170  0.3021 -0.0363
 9566W        W25035  11.177   9.040   4.962  0.1036 -0.0988  0.1198
 9567W        W25036  14.294  13.587  15.591  0.0795 -0.0293 -0.1802
 9568W        W25037   4.500  16.752   2.520  0.0462 -0.0944 -0.0416
 9569W        W25038   8.942   0.822  13.423  0.0371  0.2357  0.0921
 9570W        W25039  14.090   7.380   4.787  0.0204  0.0770 -0.3087
 9571W        W25040  10.109  13.742  14.814  0.2298  0.3600  0.1367
 9572W        W25041  15.816  11.982  13.023 -0.0656 -0.1645  0.0988
 9573W        W25042   4.073   1.096   3.878 -0.0375 -0.2707 -0.3949
 9574W        W25043   3.026   3.933  11.647 -0.0811  0.2163 -0.1695
 9575W        W25044   0.873  17.341  15.251  0.1575  0.1636  0.0635
 9576W        W25045   8.054   8.556   1.374  0.0099 -0.0369  0.1125
 9577W        W25046  17.745   2.465  13.641  0.3498  0.1664 -0.0027
 9578W        W25047   6.200   5.387   5.059 -0.0013  0.5093 -0.2440
 9579W        W25048   8.012  16.161  13.496  0.0294 -0.3538  0.0225
 9580W        W25049  14.401   3.146  10.983 -0.1856  0.0181 -0.2024
 9581W        W25050  11.959   8.051   4.541  0.0275  0.0658 -0.0838
 9582W        W25051  17.549  15.339  13.900 -0.1639  0.1220  0.2211
 9583W        W25052   0.063   5.864   1.165  0.1364 -0.2560  0.1764
 9584W        W25053  14.547   1.917   3.494 -0.2189 -0.0289 -0.2719
 9585W        W25054  13.149  18.440  15.014  0.2073 -0.0016 -0.1480
 9586W        W25055  15.574   2.460  15.141  0.2524 -0.0413 -0.1123
 9587W        W25056  12.803   8.109  13.595 -0.0592  0.1628 -0.0552
 9588W        W25057   6.563  13.931  13.512  0.1443  0.2201  0.2469
 9589W        W25058   6.669   6.854   3.147  0.2825  0.0894 -0.1636
 9590W        W25059  15.694   3.936   1.865 -0.3639  0.1503 -0.1941
 9591W        W25060   5.527   0.929   4.181  0.1698  0.1455  0.1066
 9592W        W25061   8.925  10.817  13.001 -0.1334  0.0474 -0.0139
 9593W        W25062   3.631   2.288   1.996 -0.0638 -0.2229  0.1217
 9594W        W25063   3.830   7.894  13.375 -0.1087  0.0306 -0.0761
 9595W        W25064  10.089  16.797  11.465 -0.0314  0.2392 -0.2331
 9596W        W25065  18.306   5.245  12.244  0.3441  0.0245 -0.3887
 9597W        W25066   9.987  10.450  12.152 -0.1231 -0.1919  0.1763
 9598W        W25067   0.472  18.003   5.629  0.0333  0.0621 -0.2589
 9599W        W25068   9.775  10.257   3.282 -0.1668  0.2999  0.0892
 9600W        W25069  16.473  12.776   5.646 -0.1135 -0.1300 -0.3498
 9601W        W25070   8.986   1.110  13.948 -0.3783  0.0662  0.3396
 9602W        W25071  11.814   1.363   5.376  0.3902  0.1088  0.0879
 9603W        W25072  11.262   2.439   6.404  0.4209  0.1240 -0.0522
 9604W        W25073   3.245  18.602  12.105  0.1362 -0.3517  0.2138
 9605W        W25074   4.875  13.182   3.636 -0.3613 -0.1229 -0.0552
 9606W        W25075   1.534   3.187  15.554 -0.0697  0.2561  0.1297
 9607W        W25076   4.623   9.180  11.497 -0.2646 -0.0111  0.0034
 9608W        W25077  12.439   9.628  12.460 -0.0614 -0.1134  0.4059
 9609W        W25078  12.634   7.852  11.186 -0.2491 -0.0816 -0.0903
 9610W        W25079   5.167   0.288   0.272 -0.2633  0.3469 -0.0951
 9611W        W25080  15.460   3.993  13.769  0.0001  0.1391 -0.2534
 9612W        W25081   5.943   0.095   0.507  0.0134 -0.0129  0.1329
 9613W        W25082  10.864  17.347  15.324 -0.2389 -0.0615 -0.1729
 9614W        W25083   9.417  17.133   1.678 -0.1472  0.1093  0.0077
 9615W        W25084   0.687   0.406  11.182  0.1207  0.2590 -0.2590
 9616W        W25085   5.104   8.540   5.347  0.1126  0.2198 -0.2233
 9617W        W25086  15.050   6.458   2.883  0.0672 -0.0137 -0.0238
 9618W        W25087   6.759   9.914   2.267 -0.2074  0.0959  0.0193
 9619W        W25088   0.234   3.459  13.904  0.2007  0.3340  0.2792
 9620W        W25089  10.287   7.410   1.193  0.2652  0.0798  0.0387
 9621W        W25090  18.538   3.051  12.772 -0.2148 -0.2300  0.1128
 9622W        W25091   0.183   0.310   5.786  0.2431 -0.2256 -0.0670
 9623W        W25092   3.668  14.386  11.596  0.2449 -0.1122  0.1834
 9624W        W25093  13.819   1.108   1.237  0.1489  0.3580 -0.0179
 9625W        W25094  18.505   6.833  14.204 -0.1897  0.2066  0.0759
 9626W        W25095   3.338   9.333  11.055 -0.5263  0.0510 -0.2268
 9627W        W25096   9.191   1.684   4.791  0.2409 -0.4361  0.2118
 9628W        W25097  14.456  10.225   0.744  0.1662  0.2233 -0.1040
 9629W        W25098  13.345   5.503   2.622  0.0479 -0.0570 -0.2446
 9630W        W25099  15.344   0.743   3.229 -0.2416  0.0806 -0.0007
 9631W        W25100  12.427   1.102  10.877  0.0354 -0.1435  0.0421
 9632W        W25101  14.727   1.980  10.536  0.0132  0.0044 -0.5475
 9633W        W25102   7.834  17.585   3.549 -0.1255 -0.1760 -0.0636
 9634W        W25103  10.186  15.916  14.257 -0.2005  0.3451 -0.2791
 9635W        W25104   6.196   9.242   2.411 -0.4531 -0.3334 -0.4524
 9636W        W25105   7.935   8.885  11.287  0.5529 -0.4182 -0.0595
 9637W        W25106   7.631  18.239  10.902 -0.0360  0.0099  0.0286
 9638W        W25107  15.280  13.506   4.938  0.3729 -0.0515  0.3271
 9639W        W25108  12.991   5.850  14.570 -0.0814 -0.2154 -0.2273
 9640W        W25109   8.120   4.711  11.661  0.1912 -0.2874  0.0023
 9641W        W25110   3.840   5.042   1.041  0.0131  0.1501 -0.0488
 9642W        W25111  15.754   8.648   0.080  0.1304 -0.1043  0.0238
 9643W        W25112  14.945  11.551   4.188  0.4909 -0.1150 -0.6069
 9644W        W25113   9.812  15.844   1.727  0.0826  0.2004 -0.0596
 9645W        W25114  10.832   0.305  12.510  0.0824 -0.2495  0.1929
 9646W        W25115  17.315   5.578   3.630  0.2287 -0.0144 -0.0730
 9647W        W25116  17.419  18.565  13.748  0.0052  0.0934 -0.0520
 9648W        W25117   0.389  14.123  10.974 -0.0109 -0.0547  0.0408
 9649W        W25118   4.866  14.220  12.942 -0.2294 -0.0498 -0.0433
 9650W        W25119   3.527   4.203  15.501  0.1228  0.1262 -0.1394
 9651W        W25120  15.155   0.515   4.982 -0.1226 -0.1341 -0.1847
 9652W        W25121  17.869  14.946  12.855  0.2272  0.2948  0.3119
 9653W        W25122   6.530  17.129   0.959 -0.1494  0.1369 -0.1474
 9654W        W25123   9.670   3.514   0.778 -0.0356 -0.3029 -0.0537
 9655W        W25124  11.466  18.189   6.347  0.1326 -0.1215  0.1409
 9656W        W25125   0.777  15.387   0.738  0.0989 -0.3508 -0.2151
 9657W        W25126   9.406   0.497  14.107  0.3087 -0.1352 -0.0310
 9658W        W25127   1.002   1.655   0.399 -0.2171 -0.2647  0.1844
 9659W        W25128  14.861  12.264   0.711  0.0348 -0.0187 -0.0824
 9660W        W25129  11.432   8.889  11.554  0.2913 -0.1827 -0.1390
 9661W        W25130   1.991  16.831  12.985  0.1596 -0.1704  0.0818
 9662W        W25131   5.593   0.398   0.581  0.0970  0.1973 -0.0550
 9663W        W25132  11.235  11.364  15.594 -0.1283  0.2632  0.0655
 9664W        W25133   8.192  13.205   4.394  0.1729 -0.0919 -0.1028
 9665W        W25134   3.552   4.345  11.110  0.0803 -0.0385  0.1724
 9666W        W25135   1.776   2.965  12.090  0.1480 -0.0988 -0.0672
 9667W        W25136  15.245  16.065  11.841 -0.1711  0.0827  0.1939
 9668W        W25137   1.935   0.061  12.412  0.1404 -0.2714 -0.1403
 9669W        W25138  18.519   7.336   2.084 -0.1252  0.0047  0.1869
 9670W        W25139   9.919  15.715  12.496 -0.5001 -0.3740  0.1289
 9671W        W25140  16.789  17.585  10.598 -0.0526 -0.1960 -0.0218
 9672W        W25141   7.710  18.013   0.412  0.1666  0.4955 -0.2993
 9673W        W25142  14.246  10.676   0.859  0.1019 -0.1991 -0.0861
 9674W        W25143   8.237  12.110   1.253  0.0289 -0.0861  0.0451
 9675W        W25144   4.285  10.723  13.945  0.0495 -0.1968 -0.0683
 9676W        W25145   0.904   9.186  10.867 -0.0476  0.3355 -0.2810
 9677W        W25146   6.099   4.167   0.258  0.1834 -0.1031 -0.0045
 9678W        W25147   9.252   5.195   2.987  0.3553  0.0975  0.1481
 9679W        W25148   8.012  10.811   2.505  0.0092 -0.0397  0.2293
 9680W        W25149  11.716  15.907   0.121  0.1869  0.1277  0.2396
 9681W        W25150   4.023   6.047   2.498  0.0324 -0.1205  0.2320
 9682W        W25151   3.184  12.478  14.983  0.3219  0.0116  0.1160
 9683W        W25152  17.292   8.774  13.281 -0.0583  0.0933  0.0743
 9684W        W25153   9.343  15.563  11.641  0.2262  0.1437  0.1018
 9685W        W25154  11.382  14.807  14.354 -0.1981  0.1226 -0.1692
 9686W        W25155   6.991   5.041  11.546  0.2911  0.0521  0.0846
 9687W        W25156   8.686   2.589   1.784  0.4163  0.2341 -0.1630
 9688W        W25157  14.316  18.357   5.351  0.3893 -0.0844 -0.0947
 9689W        W25158   0.142  14.298  13.186  0.0239  0.0841  0.0838
 9690W        W25159  17.319   3.403  15.341  0.1113 -0.1304  0.3259
 9691W        W25160   5.462   2.025  15.623  0.1060  0.0231  0.1857
 9692W        W25161  18.107   6.212  11.888  0.2279  0.2305 -0.3263
 9693W        W25162   5.050  14.320   1.866 -0.1228  0.0556  0.0544
 9694W        W25163  16.436   5.477  14.219 -0.4009 -0.2287  0.0068
 9695W        W25164  16.663   0.711   5.425 -0.0006  0.0299 -0.0042
 9696W        W25165  14.021   7.051   1.299  0.0546  0.0713 -0.0210
 9697W        W25166  17.327  12.281   0.859  0.1191 -0.3192  0.1804
 9698W        W25167   3.454  17.102  13.161 -0.0238  0.3713 -0.1367
 9699W        W25168   0.366  14.831   5.857 -0.4332  0.0086  0.1198
 9700W        W25169   9.439   0.700  12.272  0.0411  0.1707 -0.0251
 9701W        W25170  14.572   0.349  11.222 -0.0398 -0.3594  0.0158
 9702W        W25171  11.990  12.359   5.708  0.2658  0.1467  0.2223
 9703W        W25172  10.810   8.911   2.944  0.1670 -0.0092  0.2343
 9704W        W25173  11.386  11.986   4.789  0.2208  0.0833  0.0577
 9705W        W25174  12.937  11.265  11.654 -0.1698  0.1714 -0.0502
 9706W        W25175   2.888   0.348   1.712 -0.1535 -0.1093 -0.1899
 9707W        W25176   5.047  18.260   0.486 -0.0221 -0.2928  0.0004
 9708W        W25177  14.326   7.179   4.405 -0.0227 -0.0043 -0.1422
 9709W        W25178   7.622   2.976   5.384  0.0389  0.0155  0.2989
 9710W        W25179   7.087  16.205  14.969  0.1276 -0.1008  0.1847
 9711W        W25180  18.520   9.932   9.576  0.1639 -0.1378 -0.0929
 9712W        W25181  12.796   5.619  11.841 -0.0629 -0.1245  0.0487
 9713W        W25182   0.980   1.398  15.372  0.1701  0.0170  0.1008
 9714W        W25183  12.753   2.575   4.188 -0.1064  0.0124  0.1910
 9715W        W25184   3.036   6.530   4.571  0.2057  0.0358  0.4584
 9716W        W25185   5.047  11.426  13.607 -0.3448 -0.1275 -0.0255
 9717W        W25186   7.478   1.281   4.562 -0.1002  0.1406  0.3253
 9718W        W25187  16.602  10.606  15.730 -0.1475 -0.2151 -0.0722
 9719W        W25188   1.225  12.470   5.023 -0.0083  0.4013 -0.2517
 9720W        W25189   4.894  11.253  10.216  0.0619  0.0103  0.2984
 9721W        W25190  15.372   3.290  15.413 -0.3125 -0.3843  0.1825
 9722W        W25191  10.692   7.576   5.175 -0.0362  0.1120  0.1411
 9723W        W25192  12.325   1.423   3.086  0.1244 -0.2486 -0.1561
 9724W        W25193  12.952  17.624  12.129 -0.0728  0.3446  0.0044
 9725W        W25194  16.663   3.673   1.041  0.0150  0.0327 -0.1968
 9726W        W25195   5.654   1.940  14.051  0.1853  0.2788 -0.1755
 9727W        W25196  11.799  14.335   1.798 -0.2625  0.1312  0.1565
 9728W        W25197   7.342   8.993   3.124  0.0298 -0.3288 -0.0774
 9729W        W25198   9.517   1.595  13.311 -0.3610  0.0632 -0.1215
 9730W        W25199   0.830   7.466   3.082  0.2549  0.0843 -0.1820
 9731W        W25200   0.467   3.722  14.645  0.0151  0.0352 -0.2364
 9732W        W25201  17.616   0.696  12.589  0.1095 -0.2891 -0.2589
 9733W        W25202   8.328   4.279   5.571  0.0442 -0.2592  0.0527
 9734W        W25203   6.383  16.844  13.091 -0.1381  0.0551 -0.0586
 9735W        W25204   8.425   7.040  15.334 -0.0902 -0.0084  0.4096
 9736W        W25205   5.114  13.944   6.320 -0.0480  0.0487  0.1340
 9737W        W25206   1.536   7.709   3.763  0.0732  0.0425 -0.2430
 9738W        W25207  10.544   0.258  13.494 -0.0727 -0.1927 -0.3064
 9739W        W25208   0.911  18.161  15.733  0.1404 -0.2737 -0.0181
 9740W        W25209   5.704   4.575  13.217  0.2225 -0.0643 -0.1022
 9741W        W25210   8.009   3.796  13.087 -0.1107 -0.4784  0.0658
 9742W        W25211   6.877   7.374   2.507  0.1212 -0.5373 -0.0231
 9743W        W25212   4.098   5.378   3.747  0.1463 -0.1895 -0.6215
 9744W        W25213   0.900  18.487   2.159 -0.0797 -0.1079 -0.1074
 9745W        W25214   6.932  15.403  15.355  0.1050  0.1957  0.0183
 9746W        W25215  10.995  11.295   3.212 -0.1092  0.0291  0.0165
 9747W        W25216  10.017   8.113  15.316 -0.1250  0.2854 -0.0744
 9748W        W25217   2.392   5.774  15.129  0.3444  0.0538 -0.5973
 9749W        W25218   6.793   3.301  15.095 -0.2192  0.1194 -0.1186
 9750W        W25219  16.887  12.822  13.206  0.2468 -0.0326  0.1405
 9751W        W25220   4.413  17.846   2.608 -0.2920  0.1340  0.0490
 9752W        W25221  12.974  11.354   3.074  0.0196 -0.0794 -0.2960
 9753W        W25222   1.239  15.205  14.032 -0.2263 -0.0098  0.0076
 9754W        W25223  17.765  14.753   2.526 -0.1225  0.0237  0.0308
 9755W        W25224  16.910   8.554  11.344  0.1074  0.0706 -0.0928
 9756W        W25225  16.942  11.725  11.683  0.1406 -0.0145  0.2203
 9757W        W25226   1.712  14.071   2.891  0.2300  0.2949 -0.1078
 9758W        W25227  15.485   6.463   3.182  0.1529 -0.1408  0.1324
 9759W        W25228  10.608  14.846   3.948 -0.1659  0.1172 -0.2402
 9760W        W25229  16.045  13.094   1.407 -0.0097 -0.0571 -0.4691
 9761W        W25230   1.496   2.105   2.052  0.1363  0.0058  0.0725
 9762W        W25231   8.420  16.020   5.179 -0.0716  0.1695 -0.1192
 9763W        W25232   7.463   8.736   1.823  0.0416 -0.1042  0.2534
 9764W        W25233   6.910  14.304  14.352 -0.0391  0.0369  0.0004
 9765W        W25234   6.496   9.124   1.995  0.1981 -0.0020  0.1322
 9766W        W25235   6.685  10.821   3.834 -0.0336  0.2831  0.0704
 9767W        W25236  18.196  14.072  12.224  0.0068  0.0776 -0.1020
 9768W        W25237  11.424   7.742  14.894  0.1546  0.3646  0.4071
 9769W        W25238   8.407   2.814  15.181 -0.1214  0.1225 -0.0995
 9770W        W25239   2.194   5.376  14.170 -0.2539  0.1354 -0.1023
 9771W        W25240   3.817   5.674   0.436  0.4640  0.1905  0.0521
 9772W        W25241   4.541   3.830  11.115  0.1384 -0.1467  0.2765
 9773W        W25242  17.405   2.161   0.221 -0.0443 -0.0411 -0.1999
 9774W        W25243  10.732   8.436   4.550 -0.3287 -0.0158 -0.1170
 9775W        W25244   1.257   1.472  14.086 -0.0707 -0.0701 -0.0849
 9776W        W25245  11.808   6.508   1.519 -0.1887 -0.1348 -0.0683
 9777W        W25246  15.692   3.100   0.677 -0.0748  0.0006  0.5212
 9778W        W25247   4.676   6.640  14.348 -0.0454  0.2373  0.0129
 9779W        W25248  12.720   0.457   5.677 -0.0999  0.1882  0.2146
 9780W        W25249   3.439   2.977   9.782  0.2494  0.0189 -0.0766
 9781W        W25250  15.525  17.191   3.545  0.0075  0.1419  0.3257
 9782W        W25251  12.513  12.712  14.900  0.2868  0.0704 -0.0463
 9783W        W25252  10.064   4.823   3.573  0.1094 -0.1269 -0.2602
 9784W        W25253   0.658   7.965  11.317  0.4377 -0.1249 -0.1926
 9785W        W25254   8.067   2.103  11.279 -0.0151 -0.0423  0.0776
 9786W        W25255   2.011  13.309  11.300 -0.1427  0.2713 -0.2602
 9787W        W25256   7.821   1.448  15.005  0.0007 -0.0312 -0.0034
 9788W        W25257  16.377  15.372  15.727  0.2855 -0.2555 -0.2865
 9789W        W25258  11.972   5.485   2.388  0.1567  0.0642  0.0754
 9790W        W25259   8.564   2.543  14.769  0.1768  0.1445 -0.0826
 9791W        W25260   8.145  13.726  12.426  0.1084 -0.1230 -0.0790
 9792W        W25261  11.145  10.024   1.990 -0.0383 -0.1428 -0.0764
 9793W        W25262   6.250  11.671  14.084 -0.1057 -0.1898  0.0865
 9794W        W25263  17.999   1.045  10.264 -0.2134  0.1326  0.0349
 9795W        W25264  18.119  13.211   3.185  0.1023 -0.0094  0.3631
 9796W        W25265   4.382  14.671  15.515  0.2066 -0.0180  0.1195
 9797W        W25266   5.245   0.451   4.838  0.1056  0.2140 -0.2347
 9798W        W25267   7.998   0.802  15.712  0.2369 -0.1116  0.0907
 9799W        W25268   7.276  17.668  13.021  0.0114  0.1636 -0.0939
 9800W        W25269   0.733   2.864   1.068  0.2430  0.0792  0.0682
 9801W        W25270   1.726   3.812  15.703  0.0087 -0.2318  0.0749
 9802W        W25271  15.248   8.909  12.609  0.4382  0.0351 -0.2611
 9803W        W25272   2.457  14.123   0.435 -0.1302  0.2211  0.0579
 9804W        W25273  14.661  10.073  12.161  0.0242  0.0700 -0.2090
 9805W        W25274   8.534  13.868   1.674 -0.3192 -0.1244 -0.0892
 9806W        W25275  14.181  18.559   3.537  0.0957  0.2135 -0.1628
 9807W        W25276   9.697   1.033   3.032  0.3083  0.1982 -0.0717
 9808W        W25277  13.619   9.458  12.940  0.0169 -0.1028  0.1438
 9809W        W25278   9.027  10.786  14.772 -0.4164  0.2666  0.1062
 9810W        W25279   3.190  10.933   4.991 -0.1615 -0.2007 -0.0211
 9811W        W25280   2.235   5.452   3.982 -0.2731 -0.1297 -0.2318
 9812W        W25281   9.094   4.891  12.215 -0.0076 -0.2783  0.2205
 9813W        W25282  12.750  12.171   2.880  0.2659  0.0294 -0.2326
 9814W        W25283  12.676   2.001  14.113  0.0850  0.3616 -0.0594
 9815W        W25284  18.041   0.874  12.934 -0.1349  0.1125 -0.0665
 9816W        W25285  17.139  12.588  14.215 -0.0776 -0.1640  0.1612
 9817W        W25286   9.302   1.744  14.239  0.1695 -0.0967 -0.0412
 9818W        W25287  16.213   3.878  11.179  0.1267  0.3509  0.2767
 9819W        W25288   7.946  13.813   2.772 -0.1836  0.2805 -0.0718
 9820W        W25289   3.070   0.391  11.066  0.0846  0.0585 -0.2984
 9821W        W25290   9.799   6.668   5.434  0.2215  0.3333 -0.1925
 9822W        W25291  13.673  11.749   3.589 -0.1717 -0.0229 -0.3422
 9823W        W25292   2.756  12.549  11.505 -0.2340  0.1499 -0.3473
 9824W        W25293   8.423  13.475   2.779 -0.2936 -0.1356  0.2199
 9825W        W25294  12.063   6.590  12.717  0.1461 -0.0733 -0.0457
 9826W        W25295   5.005   3.739   1.717  0.2965  0.0413  0.3257
 9827W        W25296   5.143   2.348  15.773  0.1280 -0.1170  0.1378
 9828W        W25297   8.685  13.496   1.262 -0.3447 -0.2946 -0.1263
 9829W        W25298   9.810  14.306   5.277  0.0125  0.3394  0.0142
 9830W        W25299   1.367   8.652  14.411  0.2199 -0.1096 -0.0885
 9831W        W25300   0.242   0.668  11.121 -0.2753 -0.2363 -0.3879
 9832W        W25301  13.682   0.451   5.724 -0.0266 -0.0284  0.2610
 9833W        W25302  11.766   0.910  14.608 -0.0625  0.4879 -0.3757
 9834W        W25303  14.672   9.905   0.338 -0.1443  0.2634  0.0949
 9835W        W25304  16.466  14.044   3.110  0.2786  0.4404 -0.1925
 9836W        W25305   7.913  10.277   2.974 -0.1630  0.0693  0.0548
 9837W        W25306  18.528  18.156   0.694  0.1655 -0.2361  0.2266
 9838W        W25307  12.436  15.447   2.908  0.0647  0.0286  0.2564
 9839W        W25308  17.046  15.634  11.579 -0.5801  0.2398  0.0023
 9840W        W25309  10.380   6.040  14.372 -0.1649 -0.1411  0.1849
 9841W        W25310  10.540  15.044  11.386  0.1983  0.2931  0.0552
 9842W        W25311  12.961  15.862   5.299  0.2214  0.1449  0.2309
 9843W        W25312  13.014   4.711   4.259 -0.0937 -0.2521  0.4669
 9844W        W25313  10.866   8.866   4.243  0.0402  0.0476 -0.0963
 9845W        W25314  13.367   0.701   4.522  0.2708  0.5986 -0.1458
 9846W        W25315   8.726  13.968   3.264 -0.1557 -0.0818 -0.0662
 9847W        W25316   9.488   0.014  14.372 -0.0065  0.3687 -0.0158
 9848W        W25317  11.060   1.100  13.837 -0.2064  0.2097  0.2184
 9849W        W25318   9.296   5.368  14.654  0.1694  0.1653  0.0520
 9850W        W25319   7.912   3.626  11.055  0.0772  0.0120  0.1217
 9851W        W25320   5.261   3.311   1.549  0.0201 -0.1314  0.2089
 9852W        W25321   0.638   7.631  10.778 -0.2640 -0.1331 -0.0878
 9853W        W25322   7.331  13.596   5.502  0.0679 -0.0306 -0.2961
 9854W        W25323  16.071   6.515   2.835  0.0521 -0.0426  0.2367
 9855W        W25324  10.940   4.148  13.024 -0.0284 -0.2227 -0.2768
 9856W        W25325  17.966   8.124   4.579  0.0039 -0.3266 -0.2913
 9857W        W25326   6.397   6.266   4.384 -0.0934  0.1105  0.2470
 9858W        W25327  10.632   0.864  14.680 -0.2905 -0.1468 -0.1977
 9859W        W25328   3.185  15.499   3.393 -0.2677  0.1931 -0.2065
 9860W        W25329   8.782  13.441   1.870  0.2069 -0.1621  0.1417
 9861W        W25330   3.102  10.151   2.862  0.0444 -0.0553 -0.4459
 9862W        W25331   1.202   8.419   3.355  0.1843 -0.1272  0.1732
 9863W        W25332  13.289  13.671  15.703  0.4678  0.0742  0.2341
 9864W        W25333  13.129   6.269   4.518 -0.1665  0.0735 -0.1151
 9865W        W25334  12.908   1.282  12.771 -0.0079 -0.1772 -0.2290
 9866W        W25335  10.231  11.827   3.600 -0.0954  0.4541 -0.0192
 9867W        W25336  11.069   1.505   1.610 -0.0404 -0.1553 -0.0964
 9868W        W25337   8.520  12.660  13.792  0.1615 -0.4404 -0.3374
 9869W        W25338  16.537  18.260   5.374  0.1676  0.0766 -0.0357
 9870W        W25339  17.477   2.168  11.639  0.0749  0.0790  0.0034
 9871W        W25340   7.700   0.917   0.349 -0.3951  0.2150 -0.0776
 9872W        W25341   2.955   2.081  11.721 -0.3146 -0.0469 -0.1353
 9873W        W25342  12.330  15.843   6.283 -0.0824 -0.0036 -0.2731
 9874W        W25343   3.817  15.014   5.091  0.1217  0.1161  0.0433
 9875W        W25344   1.319   5.296   0.792  0.3253 -0.1788 -0.0736
 9876W        W25345  15.977   6.722   0.006  0.0963 -0.2528  0.1863
 9877W        W25346   4.910   1.171  11.847  0.1513 -0.0021 -0.0849
 9878W        W25347  17.738   7.625  11.308 -0.1561  0.1042 -0.0684
 9879W        W25348   3.008  17.400   1.875  0.1034 -0.0884 -0.1525
 9880W        W25349  17.679   9.631  11.339 -0.4614 -0.1092  0.2794
 9881W        W25350   4.811  10.447   0.290  0.2008  0.1732 -0.0049
 9882W        W25351   2.995  16.847  13.000  0.2768  0.0716 -0.1478
 9883W        W25352  13.821  12.689   1.044 -0.0220 -0.0869  0.0762
 9884W        W25353  17.132   3.093   3.240  0.4557  0.1261 -0.1879
 9885W        W25354   4.103  16.144  12.955 -0.0588  0.1314  0.0155
 9886W        W25355   9.880   3.675  14.382 -0.2705  0.1629  0.0907
 9887W        W25356   5.450  10.769  13.010  0.1371 -0.1411 -0.0842
 9888W        W25357  11.790   0.908  10.350 -0.2622 -0.0342 -0.1096
 9889W        W25358   4.346  15.513   4.530  0.2634  0.0831 -0.0663
 9890W        W25359   7.332   8.629   5.621 -0.1967 -0.0459 -0.0513
 9891W        W25360   7.913  10.537   1.952  0.0748  0.1254  0.0899
 9892W        W25361   2.350   0.403   1.169 -0.1565 -0.3695  0.0494
 9893W        W25362   1.369  17.213  13.716  0.3189  0.0132  0.0355
 9894W        W25363   8.675   1.532   1.760 -0.1499 -0.3722  0.1024
 9895W        W25364   9.702   2.608   1.758 -0.1119  0.1303  0.4186
 9896W        W25365   8.529  15.887   2.278 -0.2887 -0.1727 -0.1930
 9897W        W25366  15.676   5.679   1.195  0.1226 -0.0580  0.3225
 9898W        W25367  16.329   3.099  15.552  0.1931  0.5358 -0.0306
 9899W        W25368  10.695   0.098   4.411  0.1117 -0.0987  0.0969
 9900W        W25369  13.799   7.226  13.760 -0.2007 -0.1520 -0.1723
 9901W        W25370  16.883  18.035  13.125 -0.2635  0.2120 -0.0127
 9902W        W25371   5.912  11.290   3.193  0.0264  0.0163 -0.0170
 9903W        W25372   4.527   7.272   0.437  0.4365  0.2576  0.0290
 9904W        W25373   9.906  13.418  11.750 -0.3064  0.0516  0.1870
 9905W        W25374   6.035   3.677  11.336  0.2850 -0.1228 -0.0240
 9906W        W25375   1.527   2.887  11.632 -0.2156 -0.2035  0.3162
 9907W        W25376   3.593   6.217  15.405 -0.0832 -0.1117 -0.1387
 9908W        W25377  18.322  15.189   3.542  0.0347  0.0686 -0.1020
 9909W        W25378   1.055   4.293   3.884 -0.0231  0.2712  0.1394
 9910W        W25379  10.407   7.266  13.480  0.1542  0.0650  0.1751
 9911W        W25380  13.967  11.601   1.052  0.0187 -0.0061 -0.0439
 9912W        W25381  16.996  14.882   0.874  0.0883  0.1310  0.1593
 9913W        W25382   8.491   5.819   5.471  0.0580  0.4596  0.0990
 9914W        W25383  13.783   4.161  13.871  0.0778  0.1231 -0.2064
 9915W        W25384  15.391  18.400   5.489 -0.0080  0.1495  0.1171
 9916W        W25385   6.770  10.832  13.777  0.1374  0.1063  0.3634
 9917W        W25386   3.403  16.027  12.457  0.0235  0.2273 -0.1345
 9918W        W25387   2.215   1.704  12.010  0.0678 -0.0194 -0.0634
 9919W        W25388  10.115  11.270   5.159 -0.0986 -0.1672  0.1111
 9920W        W25389  17.707  17.748   5.268 -0.1244  0.2072  0.2130
 9921W        W25390   1.105   9.631  12.625 -0.1414 -0.0132  0.1160
 9922W        W25391   5.125   4.508   5.126  0.0776 -0.1062 -0.1549
 9923W        W25392  14.345  16.435  12.004 -0.1282  0.0181  0.1049
 9924W        W25393   8.293  12.323  13.324  0.2174  0.3787 -0.1891
 9925W        W25394   6.970   2.668  14.984  0.0972 -0.0975  0.0517
 9926W        W25395   1.097   7.837   1.260 -0.2302 -0.1600 -0.0043
 9927W        W25396  10.026  10.026   2.464 -0.1545 -0.0057 -0.1498
 9928W        W25397   8.955  11.405   3.028  0.1295  0.1589 -0.0224
 9929W        W25398   3.797   6.278  13.835  0.0985 -0.1899  0.0769
 9930W        W25399  16.826  15.384  15.548  0.0725  0.4026  0.1298
 9931W        W25400   1.231  16.576   3.673  0.0539 -0.0566 -0.3036
 9932W        W25401   4.806  11.326  14.418  0.3061  0.0725  0.0801
 9933W        W25402  14.615   4.197   4.899 -0.0423 -0.0035 -0.0060
 9934W        W25403   5.009   2.245   2.664 -0.1733  0.0752 -0.3038
 9935W        W25404  17.216  16.695   3.874 -0.1445  0.1528  0.1719
 9936W        W25405  10.766   4.050   3.751  0.0096 -0.3030 -0.1085
 9937W        W25406  17.233  15.557   2.307 -0.3581  0.3032  0.2200
 9938W        W25407  14.150   0.197   4.052  0.2954 -0.2882  0.1242
 9939W        W25408   1.608  11.755  15.603  0.0094  0.0283  0.3432
 9940W        W25409  14.349  15.352   0.714  0.0245  0.2313  0.0216
 9941W        W25410   4.775   3.021   3.039 -0.1253 -0.4191  0.0662
 9942W        W25411  14.038  14.278  11.842  0.2701  0.1761 -0.3162
 9943W        W25412   9.828   2.445   2.334 -0.2118 -0.0707  0.0878
 9944W        W25413   8.913   8.522  14.140 -0.3420 -0.2048 -0.0588
 9945W        W25414  11.447   7.029  11.150  0.0635  0.4319 -0.1377
 9946W        W25415   2.024  12.645  13.239  0.0126 -0.1308 -0.1313
 9947W        W25416  11.723  11.941   1.460 -0.2509  0.0673 -0.3299
 9948W        W25417   4.859   7.554  14.185 -0.0621  0.0867  0.2111
 9949W        W25418  16.649   2.160  14.777  0.1036 -0.0601 -0.1061
 9950W        W25419  11.791  15.262   4.128 -0.1597 -0.0054  0.2024
 9951W        W25420  12.087   0.505   4.160 -0.1852  0.0110 -0.2158
 9952W        W25421  16.299   3.931  14.251 -0.2406  0.1205  0.1716
 9953W        W25422   7.223  10.203  12.452  0.0305 -0.1124 -0.1219
 9954W        W25423   5.317   0.644  10.922  0.2819 -0.2695 -0.0304
 9955W        W25424   4.922   1.878  14.881  0.1024  0.0843 -0.0323
 9956W        W25425   5.781  14.933  15.588  0.1358  0.0944  0.3378
 9957W        W25426  12.987   6.202  11.236 -0.3588  0.0316 -0.1709
 9958W        W25427   7.631  11.701   5.226 -0.2331  0.1476  0.0421
 9959W        W25428   7.854  12.040  14.787 -0.0140 -0.1330 -0.2579
 9960W        W25429   4.028  12.778   4.993  0.1586  0.0236  0.1365
 9961W        W25430   2.088   1.397   2.352  0.0726  0.2202 -0.0864
 9962W        W25431   6.755  14.296   5.174  0.0118 -0.0477 -0.2561
 9963W        W25432  13.070   8.986  12.465  0.0695 -0.3142 -0.1280
 9964W        W25433   9.840  18.253   3.367 -0.1229 -0.0205 -0.0767
 9965W        W25434  10.593   6.159   1.333 -0.0685 -0.2354 -0.2522
 9966W        W25435  13.144   2.314   2.969 -0.1795 -0.1367 -0.0563
 9967W        W25436   6.063   5.493   2.701  0.3113 -0.0997 -0.0777
 9968W        W25437   7.169   4.460   5.272 -0.3654 -0.0373 -0.0798
 9969W        W25438   5.240   2.160   2.235  0.3249  0.2069 -0.0699
 9970W        W25439  13.195   1.726  11.024 -0.2090 -0.2997  0.2143
 9971W        W25440  10.093   3.905   1.745  0.1133  0.1875  0.0531
 9972W        W25441   0.173  16.665  15.471  0.0507 -0.0160  0.0507
 9973W        W25442   7.446   4.213   3.441 -0.2653  0.0155  0.0564
 9974W        W25443   6.139  12.863   4.624  0.1566 -0.2053 -0.1694
 9975W        W25444   1.920   8.882   1.119 -0.1434  0.1892  0.3070
 9976W        W25445   2.586   0.984   5.046  0.1779  0.3291 -0.1483
 9977W        W25446   4.781   1.724  12.032 -0.0255  0.2232 -0.0284
 9978W        W25447   9.147   6.728  11.810 -0.3856  0.1530  0.1863
 9979W        W25448  14.797  13.502   5.174 -0.1722  0.0561  0.0558
 9980W        W25449   6.869  10.064   1.643 -0.1831 -0.1920  0.0684
 9981W        W25450   3.555   5.258  15.333  0.0644 -0.3244  0.0998
 9982W        W25451   9.809  15.382  13.795 -0.0867  0.3663  0.1049
 9983W        W25452   6.420  16.938  13.942  0.1046  0.0424 -0.1682
 9984W        W25453   8.084   9.999   4.889 -0.3011 -0.0110  0.0515
 9985W        W25454   4.512  12.090   9.479 -0.0565  0.1705  0.0080
 9986W        W25455   8.690  17.491  11.662 -0.0880  0.1750  0.0552
 9987W        W25456   4.400   3.416  15.436  0.1923 -0.0333  0.1652
 9988W        W25457  13.930   4.535   0.372 -0.0094  0.1870  0.1148
 9989W        W25458  15.559  14.078  15.731 -0.1680 -0.1873 -0.3800
 9990W        W25459   1.396  11.626  15.110  0.0324  0.3921  0.3245
 9991W        W25460   1.079   3.639  11.492 -0.3156 -0.2203  0.0683
 9992W        W25461   2.780  17.766  14.367 -0.0808  0.1965  0.1849
 9993W        W25462  14.542  16.027   2.777 -0.0996 -0.2113 -0.1642
 9994W        W25463   3.674   5.378  11.106  0.0556  0.0736  0.0500
 9995W        W25464  17.101   6.392   0.424  0.3416  0.1602  0.2568
 9996W        W25465   0.086  18.059   2.514 -0.4800  0.0009  0.1908
 9997W        W25466   7.357  12.510  11.381  0.1412  0.1730 -0.1468
 9998W        W25467  11.555   1.760  11.745 -0.2827 -0.1275  0.0250
 9999W        W25468  14.357   8.592  10.623 -0.2385  0.2497 -0.3051
10000W        W25469  15.599   2.946  11.144 -0.0475 -0.2541  0.2913
10001W        W25470   2.125   1.528   1.891  0.4518 -0.0687  0.5101
10002W        W25471  10.892   8.072  11.669 -0.2694  0.2993  0.2430
10003W        W25472   2.942  14.642   1.687 -0.1025  0.2450  0.3306
10004W        W25473   4.358  16.267   5.324  0.1143  0.1234 -0.0269
10005W        W25474  17.528  15.447   5.115  0.1570 -0.3465 -0.2361
10006W        W25475   1.024   4.540   5.284  0.2208  0.0109  0.0846
10007W        W25476  13.263   6.182   0.867  0.0533  0.1527  0.3059
10008W        W25477   8.652  15.887   5.926 -0.0220 -0.0308 -0.3492
10009W        W25478   2.158   3.620  14.396 -0.0245  0.0876 -0.2691
10010W        W25479  17.774  10.292   0.368  0.0859  0.0116  0.1298
10011W        W25480  16.790   4.220   1.054 -0.2352 -0.0467 -0.2197
10012W        W25481   9.985   0.627   2.010 -0.0381  0.1824 -0.1277
10013W        W25482   1.843   5.987  10.447 -0.1466  0.2856  0.1569
10014W        W25483   5.569   4.549  11.082  0.2560 -0.0285  0.0724
10015W        W25484   9.906  11.019  13.425  0.3407 -0.1596  0.2383
10016W        W25485   6.397   2.816  11.056  0.0197  0.0210  0.1645
10017W        W25486   9.363   2.412  13.574 -0.3878  0.0803  0.0297
10018W        W25487  18.403   7.856  13.162 -0.0298  0.3260 -0.2751
10019W        W25488  10.749   7.260  13.810 -0.0489 -0.1520  0.0969
10020W        W25489   3.110  17.854  15.172 -0.1583  0.3363 -0.1467
10021W        W25490  14.438   4.203  13.834 -0.2203 -0.3933 -0.3125
10022W        W25491   6.810   7.885  14.991 -0.0591  0.2011  0.0990
10023W        W25492   2.036  14.927   1.851 -0.3119  0.1941  0.0598
10024W        W25493  15.054  18.057  13.041  0.0780 -0.1187  0.1995
10025W        W25494   8.229   0.972   2.299  0.1559  0.3228 -0.1743
10026W        W25495   8.056   4.144   3.547 -0.1264  0.4014 -0.3373
10027W        W25496   8.663   2.170   2.098 -0.3096  0.0932  0.0692
10028W        W25497  17.077  14.838   1.423 -0.0646 -0.1021  0.0714
10029W        W25498  13.969   3.628  12.690  0.1011  0.0335 -0.0775
10030W        W25499   1.363  16.943   4.927 -0.0374 -0.1224 -0.2837
10031W        W25500  13.722   2.771   2.147  0.0202  0.2210  0.1861
10032W        W25501  13.226  15.011  15.628  0.0905  0.0528  0.3196
10033W        W25502  13.182  17.520   3.442 -0.0356 -0.2755  0.2460
10034W        W25503   2.148   9.593  12.545  0.1010  0.2019 -0.0723
10035W        W25504   9.136   6.202   4.489  0.2416  0.2364  0.4565
10036W        W25505  12.862  15.060  14.252  0.0390 -0.3671 -0.1051
10037W        W25506   4.778  16.615  14.257  0.1263 -0.0498  0.0945
10038W        W25507  15.705   8.968   2.431  0.1001 -0.2901 -0.0098
10039W        W25508   1.948  16.149  12.377  0.1148  0.0019 -0.1353
10040W        W25509   5.348  10.039  13.713  0.4852 -0.0049  0.2683
10041W        W25510   7.758   1.040   2.080  0.1689 -0.1094 -0.2299
10042W        W25511   8.075  11.993  14.332 -0.0374  0.2827  0.3084
10043W        W25512   4.322   9.479  11.703 -0.1713  0.0840 -0.2206
10044W        W25513  15.909   4.832   3.316 -0.0381 -0.0768 -0.4933
10045W        W25514  13.684   0.591  13.316 -0.2335 -0.0378 -0.2293
10046W        W25515   5.833  16.918  11.093 -0.0208  0.4300 -0.2319
10047W        W25516  10.856   6.874   1.838  0.0995 -0.0575  0.1047
10048W        W25517   4.303   5.753   6.095  0.1606 -0.1215 -0.3808
10049W        W25518  14.397   2.137   4.508  0.0342 -0.1743  0.3032
10050W        W25519   8.842   9.489   0.679  0.0935  0.3210 -0.3264
10051W        W25520  17.444   2.958  14.395  0.1952  0.0444  0.0976
10052W        W25521   6.447   4.077  13.416  0.0309 -0.0387 -0.0384
10053W        W25522   2.394   1.556  14.149 -0.0083  0.5177 -0.0501
10054W        W25523   5.564   0.610  15.687 -0.1672  0.3253 -0.3251
10055W        W25524   4.101   5.286   0.554  0.2804 -0.1054 -0.0445
10056W        W25525   7.994  15.746   4.162 -0.1399 -0.2882 -0.0660
10057W        W25526  18.316   8.407  14.162  0.0520  0.1421  0.3874
10058W        W25527   9.474   5.279   2.519 -0.1272  0.0946 -0.1366
10059W        W25528   0.170   5.400  12.030 -0.1956 -0.0612  0.0218
10060W        W25529  13.619   9.092   0.101 -0.0679 -0.2637 -0.0841
10061W        W25530  15.004  10.875   4.881  0.1828  0.1096  0.2126
10062W        W25531   6.214  16.905  14.975 -0.2014 -0.2363  0.2928
10063W        W25532   1.535  15.869   2.891 -0.3327 -0.1087  0.1863
10064W        W25533   0.963   7.605   3.709 -0.0619  0.1531  0.2297
10065W        W25534  16.632  15.561   4.841  0.0745  0.3589 -0.2670
10066W        W25535   3.361   8.220   2.021 -0.1558 -0.0363  0.3115
10067W        W25536  17.850   9.218   4.433 -0.1658 -0.0491 -0.3186
10068W        W25537   4.041   2.823  11.589 -0.0805 -0.0402 -0.3106
10069W        W25538  12.094  17.973  12.026 -0.1209 -0.0617  0.0783
10070W        W25539  13.300   7.240   0.667  0.0204  0.1327 -0.2909
10071W        W25540   2.302  13.421  14.024  0.0855 -0.0540  0.2574
10072W        W25541  10.185   9.162  11.811 -0.3645 -0.2088  0.0715
10073W        W25542   4.141  18.572   2.638  0.1139  0.0007  0.3088
10074W        W25543   9.358   6.783  10.300  0.0199  0.1487  0.0627
10075W        W25544   6.891  15.337   6.091 -0.4411 -0.1316  0.0734
10076W        W25545   2.891   5.120   2.986 -0.0852  0.2737  0.1362
10077W        W25546  17.614   8.990  14.819  0.1840  0.2963  0.0305
10078W        W25547  12.157  17.020  12.221  0.0532 -0.1386  0.1594
10079W        W25548   0.682   2.816   0.184  0.2193  0.1213 -0.0867
10080W        W25549  15.714  13.098  12.434 -0.3794  0.0472 -0.1489
10081W        W25550   9.737   7.568  11.175 -0.0152  0.4395  0.1633
10082W        W25551   6.000  15.928  13.595 -0.0935 -0.0356  0.2375
10083W        W25552   5.979   1.359  12.371 -0.0865 -0.1232  0.0769
10084W        W25553  15.196   3.617  12.443  0.1444  0.2000 -0.1199
10085W        W25554  12.832  11.435  14.544  0.0436  0.0157  0.1898
10086W        W25555  13.072  11.345   1.101 -0.0668  0.1690 -0.4124
10087W        W25556   2.579  11.564  11.390 -0.0421 -0.1226 -0.0803
10088W        W25557  12.382   7.831   1.720 -0.1730  0.0527 -0.0684
10089W        W25558   4.055  12.620   2.493 -0.5314 -0.2287 -0.2073
10090W        W25559   8.820   4.717   2.280  0.3768 -0.0686 -0.1852
10091W        W25560   3.585  18.565   0.359 -0.1369  0.0041 -0.0205
10092W        W25561   4.878  16.058   3.260  0.1952 -0.1533  0.2551
10093W        W25562  15.208   1.120   5.571 -0.0147  0.0344  0.0982
10094W        W25563   4.339   5.776   4.085  0.0167  0.0322 -0.0031
10095W        W25564   6.944   4.012  13.535 -0.0710 -0.2688 -0.0312
10096W        W25565   3.871   3.277  11.598  0.0548 -0.0449 -0.1863
10097W        W25566   5.262   7.187  12.701 -0.2005 -0.1887 -0.2634
10098W        W25567  14.913  12.966   3.018  0.0922 -0.0869  0.0981
10099W        W25568   0.477  16.515   4.974  0.2321  0.1560 -0.0275
10100W        W25569   4.795  12.423   4.321  0.1524 -0.1902 -0.0987
10101W        W25570  10.589   1.777   0.815 -0.1999 -0.0745 -0.1725
10102W        W25571   3.737  14.226   5.029 -0.1771  0.1753  0.0660
10103W        W25572  10.143   1.866  11.992  0.0374 -0.0265  0.0393
10104W        W25573   6.362   0.922  15.405  0.2312 -0.1650 -0.1581
10105W        W25574   8.090  14.253   5.810 -0.1476 -0.1463 -0.0610
10106W        W25575  17.662   4.424  12.067  0.1328  0.0051 -0.2529
10107W        W25576  14.419   0.037   0.377 -0.3640  0.2872 -0.0446
10108W        W25577   4.026   5.169   1.546 -0.1078 -0.0966  0.1948
10109W        W25578  16.944   1.027  11.014  0.1599  0.0943  0.0569
10110W        W25579   2.356   4.422   0.836 -0.4570 -0.1973  0.1083
10111W        W25580   3.154   1.173  10.562  0.0082 -0.1634  0.0811
10112W        W25581  14.917   3.374   2.767 -0.1556 -0.2003  0.0580
10113W        W25582   0.009  10.175   0.718  0.0686  0.1056  0.3440
10114W        W25583   9.031  13.224  15.062 -0.1711 -0.3266 -0.1665
10115W        W25584   2.131   7.630   2.234 -0.0266 -0.2105 -0.0807
10116W        W25585   7.239  13.207  10.706  0.0349 -0.2675  0.2075
10117W        W25586   2.736   0.856  14.079  0.0474 -0.1925  0.0581
10118W        W25587   2.767   5.946  10.179  0.2352 -0.2498 -0.2103
10119W        W25588   8.416  15.238  11.869 -0.1631 -0.0069  0.0136
10120W        W25589   3.725  14.197  11.035 -0.0955  0.1072 -0.1302
10121W        W25590   7.345   7.314   2.943 -0.1821  0.4933  0.1706
10122W        W25591  16.459   4.246  11.462  0.1131 -0.1808  0.1832
10123W        W25592  12.343  18.117  11.537  0.0137 -0.1665 -0.1602
10124W        W25593  10.782   4.742   2.115  0.0260 -0.0642  0.1342
10125W        W25594  11.173   4.657  13.049 -0.1458 -0.1418 -0.0611
10126W        W25595  10.794  11.352   0.665 -0.2660  0.0272  0.1839
10127W        W25596  10.047   8.162  12.219 -0.2248 -0.2994  0.0147
10128W        W25597   4.085   4.170   0.197  0.1986 -0.0363 -0.1014
10129W        W25598  17.867   9.299   3.193  0.0005 -0.2747  0.0609
10130W        W25599  10.783   9.503  11.261 -0.0175 -0.1287 -0.2105
10131W        W25600   4.674   4.680  13.514 -0.1701  0.0875  0.0051
10132W        W25601   7.479   3.248  15.729  0.1080  0.0251  0.1592
10133W        W25602   0.754   9.449  12.376  0.0522  0.0532  0.1272
10134W        W25603   2.370   7.999  12.584  0.2006  0.0521  0.0699
10135W        W25604  16.289   5.446   2.634  0.2522 -0.5703 -0.0630
10136W        W25605  16.549  12.362   2.071 -0.0142 -0.0004 -0.0931
10137W        W25606  16.961   1.895   1.109  0.1344  0.0797 -0.0565
10138W        W25607  14.855   9.793  10.627  0.1466 -0.0634  0.1189
10139W        W25608  17.583  11.779  13.215  0.0509  0.2036 -0.2911
10140W        W25609   2.434   2.261   2.494 -0.1478  0.2183 -0.0501
10141W        W25610  16.734  17.747   0.209  0.2983 -0.0592 -0.3942
10142W        W25611  15.180   2.685   1.574 -0.2951  0.1111  0.1393
10143W        W25612  15.786   4.522   2.075  0.1886 -0.1287  0.4084
10144W        W25613   7.402   2.688   3.463 -0.1768 -0.2651  0.2896
10145W        W25614  10.689   7.661   2.242 -0.0330 -0.0628 -0.0189
10146W        W25615   2.595  13.470   2.893 -0.2199 -0.1503  0.2685
10147W        W25616   2.949   2.346  14.220 -0.1874 -0.1304 -0.0629
10148W        W25617  16.180  16.543   0.837  0.2263  0.3052 -0.1412
10149W        W25618   4.689  11.446   0.534 -0.1053 -0.0712 -0.2263
10150W        W25619  13.933   7.456  15.243 -0.0842  0.0383  0.2840
10151W        W25620   1.395  15.475   5.131 -0.0672 -0.1407 -0.2911
10152W        W25621   1.400  11.962  11.797  0.0638  0.0228 -0.0616
10153W        W25622  13.779   8.116  11.115  0.2177 -0.0346  0.3458
10154W        W25623   7.734  15.987  13.173 -0.0725  0.1494  0.2283
10155W        W25624   8.565   8.683   1.082 -0.1472 -0.1835 -0.0647
10156W        W25625   5.979  14.820  11.001  0.0355  0.0584  0.0040
10157W        W25626   5.429   4.178  10.758  0.1857 -0.2526 -0.2494
10158W        W25627  11.871  11.333   3.033 -0.2406  0.0273 -0.0084
10159W        W25628   2.579  17.804  11.791  0.0540 -0.1491 -0.0689
10160W        W25629   6.976  13.134  11.993 -0.1045  0.0869 -0.2552
10161W        W25630  13.519   3.906   1.472  0.1200 -0.1266 -0.0450
10162W        W25631   1.864  13.713   3.806 -0.1022  0.0532 -0.3621
10163W        W25632   0.296   0.472  12.697 -0.3506  0.2262 -0.2404
10164W        W25633   0.879   4.987  13.387  0.1205 -0.2278  0.0868
10165W        W25634   7.781  18.361  13.630 -0.0824  0.0481 -0.1825
10166W        W25635   1.996   5.360   1.202  0.0915  0.1391 -0.2936
10167W        W25636   0.269  12.530  11.462 -0.2827  0.0875 -0.2032
10168W        W25637  17.825  14.021   5.628 -0.2843 -0.0695  0.1776
10169W        W25638  14.272   1.325  11.738  0.1844 -0.1016 -0.0316
10170W        W25639   7.539  13.810   2.285 -0.0710 -0.3050  0.2729
10171W        W25640   4.945  10.883  11.515 -0.3051 -0.0160  0.1023
10172W        W25641  14.903   4.942  11.641  0.3441 -0.1521  0.0724
10173W        W25642  15.149   0.928   2.451  0.1255  0.0704  0.1393
10174W        W25643  11.588  11.802  14.884 -0.0780 -0.0703 -0.1951
10175W        W25644  16.144   8.938  13.740  0.1408 -0.0778 -0.0015
10176W        W25645  14.283  17.723  13.715 -0.2330 -0.0925 -0.0622
10177W        W25646  11.568  13.867  12.809 -0.3073 -0.1206 -0.0843
10178W        W25647  11.329  12.513   0.388  0.1031  0.0602  0.1478
10179W        W25648   9.612  17.595  13.004  0.2138 -0.0673 -0.1677
10180W        W25649   4.228   9.010   3.840 -0.0820  0.0621  0.1082
10181W        W25650   3.440  12.236   1.822 -0.3540 -0.0265 -0.2549
10182W        W25651   0.076   4.171   3.521  0.3257  0.4136  0.2206
10183W        W25652   6.796   3.384  11.318 -0.0275 -0.0045 -0.1850
10184W        W25653   6.213  11.709   4.074 -0.1880 -0.3653  0.0215
10185W        W25654   3.149   3.255   3.983  0.1451  0.0099 -0.1092
10186W        W25655   3.670   8.390  13.584 -0.1016 -0.2094 -0.2062
10187W        W25656  18.116   9.839   2.968 -0.1078  0.1853 -0.1424
10188W        W25657  16.691  15.180   5.196 -0.0101 -0.2046 -0.0272
10189W        W25658   3.883   4.001   3.576  0.0039  0.1271  0.0158
10190W        W25659   0.480   4.514  15.587  0.1840 -0.0463  0.3563
10191W        W25660   9.242  18.101  15.004  0.0035  0.0030  0.0109
10192W        W25661   5.538  15.505   4.330  0.1565 -0.0009 -0.0730
10193W        W25662  11.783   1.526   0.212  0.3648 -0.2065  0.0284
10194W        W25663   0.296   2.959  11.000  0.1500 -0.5275 -0.2035
10195W        W25664   0.251   0.967   4.178 -0.4168 -0.0597  0.0163
10196W        W25665  15.098   0.618  15.508 -0.3137 -0.3505 -0.2682
10197W        W25666   9.089   8.489   0.348 -0.0454  0.0724  0.2965
10198W        W25667   7.445   3.877   2.624 -0.1819 -0.1241  0.0758
10199W        W25668  10.179  16.442  13.115 -0.1205 -0.1618  0.0658
10200W        W25669   5.095  17.940  10.880 -0.1430 -0.0810  0.0964
10201W        W25670   3.692   4.075   1.104 -0.1852 -0.2557 -0.2364
10202W        W25671  11.092  17.825   0.286  0.1275  0.0124  0.0531
10203W        W25672   7.858   6.088   5.417 -0.2180 -0.7195  0.1051
10204W        W25673  10.325  12.695   4.904  0.2968 -0.0359 -0.2306
10205W        W25674  11.764  10.228  14.913 -0.3233  0.0787  0.1678
10206W        W25675  16.424   7.487   1.345  0.1803  0.2002 -0.2118
10207W        W25676   1.481   1.238   2.819  0.2248 -0.2737  0.0692
10208W        W25677  12.135  12.931   4.446  0.1506  0.1581 -0.1790
10209W        W25678  10.518   7.912   1.099  0.1522  0.2317 -0.0606
10210W        W25679  14.470  10.122  14.731 -0.0046  0.1684 -0.1763
10211W        W25680  14.758  12.470   0.301  0.5066 -0.2119  0.2106
10212W        W25681   9.983  14.801  13.272  0.1908 -0.1621  0.0745
10213W        W25682   9.959   2.034  15.147 -0.1372  0.0015 -0.0869
10214W        W25683   2.759   3.545   4.046  0.2697  0.2946 -0.0356
10215W        W25684  16.323  13.175   4.779 -0.0896  0.3051  0.0805
10216W        W25685  15.991  17.920   4.018  0.3432 -0.0309 -0.0094
10217W        W25686  13.701   9.765  11.124  0.0295 -0.0865 -0.0482
10218W        W25687   9.101   1.917  12.277 -0.3361 -0.1110  0.2646
10219W        W25688   6.515  12.408  11.731  0.1496 -0.0515 -0.1553
10220W        W25689  11.244   4.925   4.255 -0.2984 -0.0354 -0.1803
10221W        W25690  11.556   9.788   5.463 -0.1917 -0.0468  0.1134
10222W        W25691   0.524  15.285  14.011 -0.1874 -0.2572  0.3148
10223W        W25692   9.311   3.590  14.463  0.1438 -0.4639  0.0113
10224W        W25693   3.900  13.180  13.344 -0.0458 -0.0158  0.2404
10225W        W25694   6.671   4.633   3.359 -0.1046  0.0234  0.2319
10226W        W25695   6.822   5.790   3.018  0.2852 -0.0093 -0.1287
10227W        W25696  17.669  11.175  11.788  0.0904 -0.3057  0.4574
10228W        W25697   8.823   4.500   0.504  0.0149  0.3708 -0.2518
10229W        W25698   6.655  18.623  15.580  0.2199 -0.1543 -0.0600
10230W        W25699   7.982   1.915  12.373 -0.2827  0.0256  0.2744
10231W        W25700  14.197   4.781   4.338 -0.3401 -0.1229 -0.0986
10232W        W25701   9.585  17.197   0.703  0.0809  0.1109 -0.0998
10233W        W25702   2.234   7.052  14.609  0.1583 -0.2150  0.3131
10234W        W25703   8.350  14.197  12.280  0.1656 -0.0433  0.0461
10235W        W25704  12.413   1.254  11.924  0.2836  0.2028  0.1953
10236W        W25705  14.650   5.552   3.410  0.0654 -0.2199  0.1434
10237W        W25706   0.487  12.010  10.477  0.0342 -0.0190 -0.2312
10238W        W25707   0.600  16.673   5.556 -0.0227 -0.1444  0.1869
10239W        W25708  11.683   5.998  14.435  0.1723 -0.2034  0.2266
10240W        W25709  13.899   1.912  12.076  0.0090 -0.2380 -0.5061
10241W        W25710   5.779   8.685   2.032  0.2488  0.0569  0.5560
10242W        W25711  15.618   4.948   4.320  0.1362 -0.1527  0.0540
10243W        W25712   0.683  12.608   3.813 -0.0307  0.0048 -0.1674
10244W        W25713   5.636  14.946   0.473  0.1013  0.0331 -0.1585
10245W        W25714   4.243   6.000   2.047 -0.0752  0.0802 -0.3272
10246W        W25715   0.783  14.720   2.261  0.2388 -0.0344  0.3210
10247W        W25716   8.063   8.843  12.616 -0.0884 -0.0381 -0.1809
10248W        W25717   1.157   9.702   3.592  0.1833 -0.0173 -0.4175
10249W        W25718  13.764  12.282   2.369  0.0289 -0.2438 -0.1300
10250W        W25719  17.156   2.327  12.455  0.0299  0.2119  0.0600
10251W        W25720   6.838   3.178  14.627 -0.0756 -0.0226 -0.2267
10252W        W25721  16.854   1.519  11.721  0.3678  0.1310 -0.3241
10253W        W25722   8.726   3.954   2.243  0.0130 -0.0787 -0.1061
10254W        W25723  17.323  16.436  13.169  0.0818  0.2916  0.0535
10255W        W25724  11.226  15.414   1.472 -0.2809 -0.2793  0.0204
10256W        W25725   6.720   2.813  11.487 -0.0952 -0.3899  0.0852
10257W        W25726   5.251   7.842  11.417  0.1594  0.1373  0.1618
10258W        W25727   7.648   9.378  11.366  0.2029 -0.1654 -0.1581
10259W        W25728  11.713  10.244   0.097  0.0192 -0.3335  0.2185
10260W        W25729   3.162  14.182   3.020 -0.2134  0.0030  0.0682
10261W        W25730   2.803  15.730   2.653  0.2580 -0.1407  0.0046
10262W        W25731   7.278   1.161  12.182 -0.1562 -0.1175 -0.1623
10263W        W25732  16.615  10.577  15.187  0.2011  0.0830  0.0080
10264W        W25733   8.803  10.184   3.513 -0.1589  0.1950 -0.7565
10265W        W25734   6.561   6.749  12.514  0.0053 -0.0106  0.1504
10266W        W25735   0.068   0.183  14.207 -0.2385 -0.1752 -0.0011
10267W        W25736   2.003   3.489  11.858  0.0242  0.1104 -0.1538
10268W        W25737   7.237   1.995   0.662 -0.0182 -0.0603 -0.0756
10269W        W25738   7.026  15.677  11.504 -0.0863  0.0241  0.1253
10270W        W25739  11.563  11.385   1.429 -0.0348 -0.0554  0.1891
10271W        W25740   7.716   3.659  14.827 -0.1604  0.3456  0.0636
10272W        W25741  14.509  10.300  11.723  0.2838  0.0383  0.0481
10273W        W25742   4.016  15.747  10.734  0.0678 -0.0620  0.1865
10274W        W25743  11.571   5.588   4.397  0.0880 -0.3619 -0.1203
10275W        W25744   8.789   5.360   2.929 -0.1286  0.1534 -0.0300
10276W        W25745   5.631  14.491  15.340 -0.1190  0.0877 -0.0593
10277W        W25746   4.994   2.939   1.781  0.1182  0.1306  0.0554
10278W        W25747  18.608   8.340   2.030 -0.1621 -0.0834  0.2498
10279W        W25748   8.009  18.221  10.493 -0.2412  0.2140  0.2615
10280W        W25749  10.747  11.121   2.786 -0.2009 -0.1082 -0.3395
10281W        W25750  11.657   9.994  11.539 -0.2030 -0.0181  0.0393
10282W        W25751   0.742  12.707  11.677  0.1134 -0.2182 -0.0091
10283W        W25752  13.082  18.318  12.633  0.0452 -0.0314  0.1245
10284W        W25753  12.025  17.217  11.784  0.0093  0.0543 -0.1445
10285W        W25754   1.621  12.981  15.054  0.1477  0.0996  0.0321
10286W        W25755   1.843  10.119   3.886 -0.0034 -0.2067 -0.1649
10287W        W25756   7.920  15.311   4.431  0.0570  0.1688 -0.3494
10288W        W25757  14.682   2.787  10.753  0.1150  0.0040 -0.0640
10289W        W25758   2.918  11.738   0.323 -0.3772 -0.2358  0.0914
10290W        W25759   5.828   3.262   2.418 -0.2287 -0.0822  0.0543
10291W        W25760   7.059  17.887   3.990  0.1955 -0.2284 -0.0966
10292W        W25761  16.635   4.083  10.997 -0.1483  0.0539 -0.1963
10293W        W25762   2.660  12.780   1.760 -0.0970 -0.0849  0.1154
10294W        W25763  18.568   0.166   1.921 -0.0317 -0.0675  0.2823
10295W        W25764   3.020   8.008  11.703  0.1898  0.2135  0.0557
10296W        W25765  11.730   0.064   0.709 -0.3589  0.2934  0.0543
10297W        W25766  13.308   1.353   1.843  0.2340  0.1011  0.3449
10298W        W25767  14.814  14.451   1.994 -0.1876 -0.2431  0.4815
10299W        W25768   4.885   3.968  14.860  0.2846 -0.1643 -0.0219
10300W        W25769  14.653   6.529  14.161  0.0174 -0.3732  0.0535
10301W        W25770   4.123   0.014   5.152  0.1050  0.1392 -0.0412
10302W        W25771  16.158   4.444   3.639 -0.2073 -0.0930  0.2300
10303W        W25772  10.572   2.537   2.586 -0.2974 -0.2526 -0.1393
10304W        W25773   0.736   8.534   1.531 -0.0524 -0.1884 -0.0668
10305W        W25774  15.771  17.467   2.771 -0.0757 -0.1222 -0.2575
10306W        W25775  17.641  18.216   4.099 -0.0906  0.2320  0.2909
10307W        W25776  13.830  12.012  14.234  0.1358  0.0044 -0.2377
10308W        W25777  16.346  15.210  12.211  0.1375  0.1836 -0.0816
10309W        W25778   0.365  10.557  15.496 -0.0205 -0.1543 -0.3597
10310W        W25779   0.328   4.051  15.428  0.4006  0.0123  0.0711
10311W        W25780  13.784   7.874  14.977 -0.2329  0.4905  0.1647
10312W        W25781   2.124  15.119   1.373 -0.2264  0.5411 -0.0783
10313W        W25782  12.879   8.905   1.538 -0.3628  0.0652  0.2129
10314W        W25783   3.566   0.296  10.697 -0.1282 -0.1670  0.0368
10315W        W25784   6.692  12.507  11.274 -0.2434 -0.1960 -0.2024
10316W        W25785   6.029  10.305  13.454 -0.0701  0.1263  0.0939
10317W        W25786   2.633   9.183  14.146  0.0757  0.2699  0.0125
10318W        W25787   5.036  16.254  12.738 -0.3184  0.1717  0.1299
10319W        W25788  14.176  16.005  12.635 -0.0816  0.2083 -0.1644
10320W        W25789   9.548  11.148   0.281 -0.0461  0.2209 -0.2653
10321W        W25790  14.498  15.437  15.158 -0.0056  0.1482  0.2016
10322W        W25791   9.540   5.787   3.243 -0.1991  0.0657  0.0952
10323W        W25792  10.396   7.140  11.702 -0.0108 -0.3261 -0.2418
10324W        W25793   9.475   9.488   1.970 -0.0985 -0.1992  0.3584
10325W        W25794   3.503  18.575  13.895  0.1035 -0.1385 -0.0869
10326W        W25795   2.436  12.494  15.402  0.0123 -0.0106  0.2566
10327W        W25796   3.857   2.161  15.261 -0.3863 -0.1042  0.0857
10328W        W25797  13.792  14.490  11.322 -0.3361 -0.0980 -0.3188
10329W        W25798   5.540   3.761  11.455 -0.1714 -0.0000 -0.0187
10330W        W25799  16.462   9.248   1.233  0.2091  0.0183  0.2880
10331W        W25800  14.186   5.628  13.377  0.1856  0.0147 -0.0393
10332W        W25801  11.237   7.044  10.655 -0.0043  0.0489 -0.0070
10333W        W25802   0.594   7.072  11.024 -0.0397 -0.0414  0.0704
10334W        W25803  16.868   9.130  10.871 -0.1216  0.2339 -0.0400
10335W        W25804   0.013  16.895  11.865  0.1873  0.0802 -0.3181
10336W        W25805  13.840   7.864   0.240  0.1221  0.1239  0.1852
10337W        W25806  17.187   5.278   5.102  0.3861  0.0595 -0.6652
10338W        W25807   5.594   7.607  15.548  0.0033  0.5242  0.0288
10339W        W25808   0.910   1.547   1.155 -0.0601  0.3089  0.2208
10340W        W25809   0.040   4.297  14.446 -0.2330  0.0860 -0.0303
10341W        W25810   9.242   9.746   1.596  0.3127 -0.0019  0.2360
10342W        W25811   2.118  12.812  15.642  0.2529  0.2058  0.0928
10343W        W25812  16.242  14.571   2.467 -0.2025  0.0326 -0.0854
10344W        W25813  15.826   6.913  13.468 -0.3036 -0.0970 -0.2717
10345W        W25814  16.199  10.367  13.591 -0.0194 -0.1734  0.2225
10346W        W25815   7.005  14.726  13.627 -0.1645 -0.2293  0.1611
10347W        W25816   9.121   1.316  15.075 -0.0006  0.2331  0.1070
10348W        W25817  13.957  17.090   6.371  0.2403  0.1505  0.2374
10349W        W25818  18.012  10.944   5.687 -0.1502 -0.2088 -0.3374
10350W        W25819  16.854   8.958   5.060 -0.2882  0.1348  0.2294
10351W        W25820   9.797  10.812   2.307 -0.0358 -0.1534 -0.0110
10352W        W25821  14.279  15.559  12.395  0.3356 -0.0700  0.3966
10353W        W25822  17.125   5.195   5.583  0.1230 -0.2693  0.2031
10354W        W25823   9.832  12.945   1.339  0.1934 -0.1805 -0.5436
10355W        W25824  11.516  16.359   3.391 -0.0929 -0.1819 -0.0204
10356W        W25825  15.885  17.363   1.775  0.1779 -0.2972  0.0712
10357W        W25826   6.046   5.218   0.351  0.2370  0.2300  0.1842
10358W        W25827   6.823   0.292  11.819  0.1236  0.1326  0.3193
10359W        W25828  17.335   1.726   4.124  0.0976  0.1522  0.1478
10360W        W25829  14.882  18.612  12.896  0.1230  0.0315  0.2155
10361W        W25830   6.296  15.019   1.060 -0.0470  0.1679 -0.1232
10362W        W25831  12.628   0.694   2.452  0.0088 -0.0196 -0.1489
10363W        W25832  15.692   4.650  15.305  0.3599 -0.1545 -0.0262
10364W        W25833  11.898  16.164  12.540  0.2526 -0.2243 -0.1299
10365W        W25834  13.784  17.698   0.797  0.2181 -0.1748 -0.1396
10366W        W25835   9.062   0.415   1.544  0.2580  0.1565 -0.1420
10367W        W25836   6.593   8.972  13.009  0.2542  0.0140 -0.2118
10368W        W25837   3.798  18.177   3.828  0.2518 -0.1329  0.1164
10369W        W25838   6.220   6.209   2.900  0.2360  0.0747 -0.1371
10370W        W25839   0.580  10.124  13.881 -0.1717  0.0695 -0.2683
10371W        W25840   3.250  14.688   2.798  0.1135  0.2515 -0.2113
10372W        W25841  13.037  18.144  12.091 -0.2322 -0.0028 -0.0549
10373W        W25842   5.545  15.317   0.002 -0.0223 -0.0551 -0.0989
10374W        W25843   0.453  17.030   5.111  0.3356  0.1035  0.2771
10375W        W25844  18.086  12.100   1.005  0.3253  0.1350  0.1501
10376W        W25845   0.949   9.789  10.543  0.1848 -0.0323  0.0267
10377W        W25846   8.214   9.955   1.935 -0.0051 -0.1259 -0.1662
10378W        W25847  17.251   1.672  10.759  0.0399 -0.2513  0.1394
10379W        W25848   1.758  16.558   4.471  0.0644 -0.4831 -0.0350
10380W        W25849  11.996   8.321   3.044  0.0065  0.0483  0.4205
10381W        W25850   9.218  15.476  13.707  0.0301  0.0470  0.2933
10382W        W25851  10.047  13.537  12.799  0.1790 -0.0652  0.4362
10383W        W25852  13.504  17.233   6.144  0.2165  0.1762  0.2336
10384W        W25853  17.316  14.458   0.036 -0.2696  0.0358 -0.1038
10385W        W25854  12.959   4.904   4.719  0.2307  0.0021 -0.0106
10386W        W25855   3.721   2.785  15.057  0.2306 -0.1024  0.1417
10387W        W25856  13.020  11.707  10.532  0.4034 -0.1796 -0.0594
10388W        W25857   7.300  10.018   4.995 -0.2030 -0.0285  0.0577
10389W        W25858  18.365  12.186  13.087  0.0185  0.0224 -0.3094
10390W        W25859   9.243  11.520  13.632 -0.1454  0.1934 -0.2203
10391W        W25860  13.431   4.076   4.787  0.0742 -0.0366  0.1110
10392W        W25861   3.596  12.804   0.518 -0.2374 -0.1549  0.3043
10393W        W25862  10.631   9.910  12.749  0.6209 -0.0413  0.0115
10394W        W25863   6.837  16.974  11.648 -0.0824 -0.1903  0.1163
10395W        W25864  16.177  16.401  14.557 -0.0054  0.1210 -0.0304
10396W        W25865  12.154  15.075  11.113 -0.1628 -0.0203 -0.1185
10397W        W25866   6.340  13.840   4.541 -0.3365 -0.1240  0.1164
10398W        W25867   8.180   2.729   1.530  0.0968  0.1464 -0.0266
10399W        W25868   9.509  11.118  13.774  0.0284  0.0279 -0.1250
10400W        W25869   7.031   1.602   2.938 -0.1691 -0.1118 -0.3038
10401W        W25870  11.710   3.223  13.658 -0.0852 -0.2042  0.1344
10402W        W25871  18.428  16.909   0.260 -0.3769 -0.0098  0.0830
10403W        W25872   1.986   3.993  13.640 -0.1175 -0.0691 -0.0432
10404W        W25873  13.220   9.661  13.258  0.1223  0.1098 -0.2908
10405W        W25874  11.140   2.545  14.581 -0.0203 -0.0869  0.0272
10406W        W25875   2.192   5.715   0.436 -0.0768  0.0145  0.2439
10407W        W25876   9.612   2.972   2.204  0.2716 -0.0690  0.1307
10408W        W25877   0.828  11.664  10.649  0.0431 -0.0512  0.0538
10409W        W25878  17.708  11.368   1.290 -0.0867 -0.0719 -0.2368
10410W        W25879  10.699   9.231   4.632  0.3190 -0.1928  0.0730
10411W        W25880   4.365   9.759   1.141 -0.1232 -0.1392 -0.0822
10412W        W25881   9.405  16.108   1.919 -0.2149  0.4354 -0.0132
10413W        W25882   7.253  16.711  13.615  0.2892  0.1466 -0.0916
10414W        W25883  11.903   6.238  15.426  0.1183 -0.2339  0.0181
10415W        W25884   0.406   3.021  13.566 -0.1093  0.0593  0.2059
10416W        W25885  16.039   0.573  13.318  0.0908 -0.2792  0.2448
10417W        W25886   0.412   8.461  12.469 -0.3459 -0.3603  0.0660
10418W        W25887   7.726  13.256   0.314  0.1779 -0.0592  0.1596
10419W        W25888   1.173   8.958  13.572 -0.3034 -0.0860 -0.0882
10420W        W25889   0.474   0.260   3.759 -0.0803 -0.2397 -0.2013
10421W        W25890  10.448   2.229   5.912  0.1563  0.0810 -0.2328
10422W        W25891  16.697   2.926  13.246 -0.1591 -0.1239  0.0820
10423W        W25892  16.189   6.617  12.019  0.0732  0.1169  0.3157
10424W        W25893  17.514  13.606   3.625 -0.0575 -0.2837 -0.1265
10425W        W25894   8.412  10.335  11.439 -0.0052 -0.2030  0.0954
10426W        W25895   9.669  18.099   1.476 -0.2020 -0.3300 -0.2662
10427W        W25896  15.331  16.261   0.346  0.3830  0.0662  0.0512
10428W        W25897  13.548   1.571   2.871 -0.2883 -0.1617 -0.2664
10429W        W25898  14.632  13.903  11.315 -0.0317 -0.2848 -0.0943
10430W        W25899   4.478   8.872   3.051 -0.1027 -0.0275  0.0150
10431W        W25900   6.447  11.873  11.688 -0.2941 -0.5569 -0.0872
10432W        W25901  11.091   2.842  15.741  0.1004  0.2064 -0.1258
10433W        W25902  13.055  15.126   1.623 -0.1541 -0.0221  0.0347
10434W        W25903   8.272  12.435   0.316  0.2841 -0.1988  0.0898
10435W        W25904   3.944   6.357  13.258 -0.0141  0.4266  0.0139
10436W        W25905  14.764   0.289   4.221  0.0828  0.0465 -0.0602
10437W        W25906  17.156  10.111   3.167  0.0052 -0.1370  0.1052
10438W        W25907   7.830  16.895  14.701 -0.0993 -0.0648  0.0094
10439W        W25908  15.853  11.747   1.500 -0.2509  0.1726 -0.0454
10440W        W25909   9.914   6.289  11.746  0.2910 -0.2481  0.1184
10441W        W25910  14.257  13.275   4.739 -0.0767  0.0057 -0.1242
10442W        W25911  18.322   8.942   4.517 -0.0124 -0.0722 -0.0450
10443W        W25912  13.179  15.334   3.923 -0.2868 -0.1437 -0.0409
10444W        W25913  15.572   7.698  15.158 -0.0623  0.0155  0.1371
10445W        W25914  12.612  17.604  14.019  0.2741 -0.3008  0.0443
10446W        W25915  13.684  16.647   2.764  0.0882 -0.1295 -0.1164
10447W        W25916  13.221  13.683   1.911  0.1477 -0.2856  0.2276
10448W        W25917  10.763   0.326   0.941 -0.0073 -0.0910  0.0322
10449W        W25918  17.066   0.250   1.435 -0.1040 -0.0616  0.1171
10450W        W25919   1.882   4.129   3.570  0.0589 -0.0967  0.1196
10451W        W25920   8.140   6.092   1.454  0.0025 -0.1888  0.0342
10452W        W25921  15.497  14.257  11.480  0.0927  0.0363  0.2697
10453W        W25922  17.478  14.086  13.884 -0.3187  0.0958 -0.0315
10454W        W25923  10.652   7.142   5.483 -0.2631 -0.2857 -0.2151
10455W        W25924  14.957  14.556   1.446  0.2208  0.2176 -0.2719
10456W        W25925  13.909   9.945  15.368 -0.0094  0.2970 -0.3087
10457W        W25926   2.694  17.356  15.291 -0.2757 -0.1414  0.2751
10458W        W25927   0.001   1.448   5.164  0.2310  0.2089  0.1462
10459W        W25928   7.442   7.416  12.777  0.0095 -0.0982 -0.0336
10460W        W25929   3.167  14.178  11.796  0.2174 -0.1020  0.1203
10461W        W25930  10.619  16.106  15.079  0.1927  0.1572 -0.2954
10462W        W25931  18.474  13.901   4.715  0.4377  0.0793 -0.0212
10463W        W25932  14.946   9.406  15.283  0.0379  0.4213 -0.0298
10464W        W25933   1.411  18.130   3.150 -0.3367 -0.1947 -0.0399
10465W        W25934   6.224   4.667   2.618 -0.0248 -0.0649 -0.0079
10466W        W25935   5.355   9.622  11.555 -0.0500  0.0079 -0.1794
10467W        W25936   3.535  13.112  13.640 -0.0320 -0.5533  0.2012
10468W        W25937   4.799  17.464   2.077  0.1578 -0.2871 -0.1819
10469W        W25938  13.026   3.706  12.812  0.2197 -0.3332  0.3857
10470W        W25939   7.375   4.308  13.192  0.1020 -0.0194  0.4508
10471W        W25940  11.530   5.393   4.941  0.0354 -0.1857 -0.0329
10472W        W25941  15.817  17.210  14.189  0.1455  0.2268 -0.1022
10473W        W25942  12.027   5.492  14.278 -0.0652  0.2306 -0.2266
10474W        W25943  15.202   9.778  15.574 -0.0528  0.1701  0.2380
10475W        W25944  15.966   4.384   4.926  0.0748 -0.1429  0.2377
10476W        W25945  13.035   5.117  15.027  0.1081  0.2691 -0.1433
10477W        W25946  17.180  12.394   0.365 -0.3221  0.1234  0.0347
10478W        W25947   9.625   7.522  10.711 -0.0998 -0.2251 -0.0072
10479W        W25948  15.010  12.158   4.595  0.1375 -0.0272  0.0638
10480W        W25949   6.702  14.805  11.575  0.0965 -0.2654  0.2295
10481W        W25950  14.723   1.273  13.160  0.0780  0.0212 -0.0076
10482W        W25951   4.493   8.837  15.433 -0.0311 -0.8366 -0.1339
10483W        W25952  14.089   1.736   4.647 -0.1624 -0.2205  0.0036
10484W        W25953  13.353   1.069  11.589  0.2511 -0.0273 -0.4092
10485W        W25954   0.547   7.598  11.592  0.1164  0.0199 -0.0029
10486W        W25955  11.846  14.417  10.356 -0.2689 -0.0814  0.3221
10487W        W25956   6.932   3.550   1.028 -0.0720 -0.0316  0.0219
10488W        W25957   8.258   6.889   3.565 -0.2165  0.0637 -0.0922
10489W        W25958  16.743   6.406  10.270 -0.0360 -0.0278 -0.1121
10490W        W25959  12.039  12.868  11.780 -0.0577  0.0952 -0.1921
10491W        W25960   1.356   3.263   4.374  0.0622  0.0013 -0.1340
10492W        W25961  16.313   0.986  12.995  0.0485 -0.1423 -0.0969
10493W        W25962  14.498  17.247  13.597 -0.2742  0.0105 -0.0050
10494W        W25963  12.529  15.549   0.563 -0.2938 -0.1132  0.0210
10495W        W25964   0.761   7.222   2.168  0.1592 -0.0510 -0.1679
10496W        W25965  13.766  16.952   5.816 -0.1787 -0.0805  0.1818
10497W        W25966   7.554   4.372   1.286  0.1713  0.0779  0.1469
10498W        W25967  16.639   3.016   4.698  0.1372  0.2882  0.1088
10499W        W25968   9.702  15.415   4.904  0.1784  0.5524 -0.2552
10500W        W25969  13.780   5.421   3.008  0.0373  0.0792 -0.0788
10501W        W25970  10.280   9.928   5.286 -0.0287 -0.1344  0.0781
10502W        W25971  17.136  18.308   5.109  0.2657  0.1816  0.0190
10503W        W25972   7.823   5.474  14.385  0.2381  0.1755  0.1412
10504W        W25973  17.063   0.734   1.573 -0.1326 -0.1471  0.2342
10505W        W25974  15.280  16.273   3.062  0.1184  0.4009 -0.0957
10506W        W25975  12.380  12.188   5.263 -0.0896 -0.0011  0.0020
10507W        W25976   0.128   8.747   4.211  0.1441 -0.2254 -0.4303
10508W        W25977   7.125  12.488  14.906 -0.2882  0.2138 -0.2790
10509W        W25978  18.367   1.983  14.081  0.0610 -0.0162 -0.1073
10510W        W25979  18.175  14.507  14.684 -0.3702 -0.0061 -0.1191
10511W        W25980  18.395   1.057   4.359  0.1208 -0.0308  0.2779
10512W        W25981   3.955   9.513   1.524 -0.1853 -0.1646  0.0549
10513W        W25982  10.169   7.361  12.666  0.0532  0.1151  0.2260
10514W        W25983  13.039  12.686  15.605  0.0029  0.1409 -0.3110
10515W        W25984   8.333  18.489   4.364  0.0405 -0.0411  0.0083
10516W        W25985  17.817   7.394  13.445 -0.0226  0.1260 -0.0798
10517W        W25986  12.184   6.189   3.117  0.0380 -0.3065 -0.0582
10518W        W25987  15.148  16.699  14.186  0.0966  0.0749  0.1491
10519W        W25988  14.446   1.394  13.646 -0.4496  0.0833  0.2507
10520W        W25989   9.580  18.370   0.467 -0.1869 -0.1146 -0.0762
10521W        W25990   8.003  17.475   4.055 -0.2812 -0.0918 -0.0416
10522W        W25991  13.937   8.128  12.696 -0.0178 -0.0285 -0.1344
10523W        W25992  16.723  11.683   1.372  0.0953 -0.0596  0.1572
10524W        W25993   3.055  16.300  11.228  0.1453  0.0243  0.0268
10525W        W25994  15.061  11.276   2.263 -0.2006 -0.0571  0.2335
10526W        W25995   6.487   3.741   5.210  0.1361  0.1271  0.1449
10527W        W25996   7.502  15.357   9.800  0.1820 -0.0574 -0.2470
10528W        W25997  13.086   4.461  12.162  0.0105 -0.3059  0.0630
10529W        W25998  12.870   3.522  15.468  0.1473 -0.0792 -0.0772
10530W        W25999   3.526  15.236   1.956  0.0469  0.0683  0.1151
10531W        W26000  14.594   5.830  15.266  0.1160 -0.3213  0.1039
10532W        W26001  17.891  11.934   2.665 -0.0486  0.5381  0.1482
10533W        W26002   7.384  17.495   3.868 -0.2026 -0.2810 -0.2597
10534W        W26003  10.987  15.414  12.094  0.0612  0.1948  0.1320
10535W        W26004   0.014   0.889  13.350 -0.1446 -0.1031  0.0267
10536W        W26005  15.262   9.708   4.380 -0.0464  0.1719  0.1990
10537W        W26006  15.984  15.527   2.806  0.0752 -0.3020  0.0386
10538W        W26007  17.068   0.575   3.527  0.0651  0.3050 -0.2767
10539W        W26008   9.204  14.115   2.936 -0.2984  0.0012  0.0643
10540W        W26009   8.517   7.325   2.632  0.0468  0.0461 -0.1480
10541W        W26010  12.745   4.892  11.927  0.1655  0.1452  0.1917
10542W        W26011   4.147  15.084   1.774 -0.0211 -0.4148  0.0054
10543W        W26012  11.647   3.154  13.132  0.0638 -0.1758 -0.0887
10544W        W26013  15.437  16.041   0.988  0.0746 -0.1441 -0.3350
10545W        W26014  17.281   3.623   3.768  0.1976 -0.2035  0.0466
10546W        W26015   8.643  18.167  15.705  0.0849 -0.0136 -0.4301
10547W        W26016   4.591   5.880   3.064 -0.1190  0.1025 -0.1553
10548W        W26017  12.174  12.656   0.633  0.1427  0.3277  0.3654
10549W        W26018   8.254  10.379  15.137  0.0228 -0.1725 -0.0304
10550W        W26019  12.704   3.286  14.551  0.1938  0.1779  0.2080
10551W        W26020  14.762  10.035   2.157  0.3410  0.2863 -0.1639
10552W        W26021   7.179  15.540  11.958  0.0628  0.0037  0.4753
10553W        W26022   5.378  14.970  12.269  0.1523 -0.0117 -0.0577
10554W        W26023   9.028  18.145  11.472 -0.0879  0.0883 -0.2220
10555W        W26024  14.819  12.957   0.143  0.1029  0.2099  0.0164
10556W        W26025   0.150  15.551  12.824 -0.1886  0.3116  0.0761
10557W        W26026   8.556   3.546   4.693 -0.2907  0.1180 -0.1756
10558W        W26027   3.218  12.993  15.102  0.0616  0.2571  0.1549
10559W        W26028   8.842   1.558  11.567 -0.1140  0.1075 -0.0077
10560W        W26029  12.530   0.393   2.062  0.1277 -0.1466 -0.0262
10561W        W26030  18.246   2.442  14.217 -0.0825 -0.1062  0.1425
10562W        W26031  16.174  17.601  15.107  0.0630 -0.1010  0.3578
10563W        W26032   4.228   3.273   0.583 -0.0629 -0.0269 -0.0709
10564W        W26033  14.534  11.103  10.222 -0.0583 -0.0557 -0.0700
10565W        W26034  13.839  12.314   1.491 -0.3678 -0.2788  0.4442
10566W        W26035   6.123  14.949   4.245  0.4443 -0.0704 -0.1532
10567W        W26036   2.146  11.681   0.056  0.0693  0.0146 -0.0594
10568W        W26037   5.049  15.473  13.863 -0.2815  0.0174  0.4477
10569W        W26038   6.373  14.540   0.900 -0.0298  0.0009 -0.1354
10570W        W26039  10.141   0.530  12.934 -0.1196 -0.2735  0.3175
10571W        W26040   6.124  10.175  14.292  0.4616 -0.2742  0.1852
10572W        W26041  16.324  12.218  10.508 -0.0691 -0.2079 -0.0625
10573W        W26042  13.589   7.474   3.397  0.2700 -0.1118 -0.1086
10574W        W26043   2.672   8.498  15.683  0.6238 -0.0660 -0.1785
10575W        W26044   3.449  16.861  14.160  0.0933  0.2574  0.1716
10576W        W26045   1.149  12.029  12.257 -0.2799  0.0020  0.0014
10577W        W26046   6.366  16.035  11.960  0.2154 -0.0745  0.1009
10578W        W26047   2.077  12.440   3.993 -0.0990 -0.1282  0.1811
10579W        W26048   9.941   5.233  15.763  0.1720  0.0471 -0.4677
10580W        W26049  15.384   0.236   2.983  0.0420  0.0322 -0.1535
10581W        W26050  12.536  10.034   3.729  0.1036  0.1506  0.0636
10582W        W26051   2.423   4.804  14.030  0.1585  0.1310 -0.4054
10583W        W26052   0.822  17.506   4.488 -0.0819  0.1124  0.0523
10584W        W26053  11.876  11.978   0.012  0.1257 -0.0695  0.2136
10585W        W26054   9.750  11.800   2.315 -0.0231  0.1722 -0.1196
10586W        W26055  16.623   0.762   0.425  0.0473  0.0178  0.0610
10587W        W26056  17.530   2.472   1.701 -0.2794 -0.0957 -0.1869
10588W        W26057  16.767   1.184  15.653  0.2670 -0.1260  0.4402
10589W        W26058  15.677   7.803   0.969  0.0251  0.1137  0.0473
10590W        W26059  10.732  11.559  14.734  0.1717 -0.2073  0.2199
10591W        W26060   8.234   0.564  12.291 -0.1494  0.3434 -0.0296
10592W        W26061   1.772  13.077  10.843  0.4236 -0.1636 -0.1777
10593W        W26062  13.932   7.954   2.562  0.3873 -0.0348  0.1887
10594W        W26063   2.257  17.981  10.831  0.3553  0.0136 -0.0667
10595W        W26064  11.360  10.450   2.993  0.0229  0.1178 -0.1440
10596W        W26065   8.535  16.899  12.708  0.2662 -0.0505  0.1704
10597W        W26066  13.355  10.391   1.365 -0.2209 -0.1539 -0.0351
10598W        W26067   2.901  14.489   4.146 -0.0103  0.0110  0.0511
10599W        W26068   2.165  13.922  15.106 -0.1011  0.0455 -0.1862
10600W        W26069  13.070  13.556   9.791  0.0638  0.1722  0.2808
10601W        W26070  13.000  18.136   1.371 -0.0089  0.1022 -0.2087
10602W        W26071  15.791   4.171  15.512 -0.3274  0.1358  0.1214
10603W        W26072   8.543  12.710   1.989 -0.0663 -0.0511 -0.0623
10604W        W26073  18.210  11.863   2.002  0.0389  0.0980 -0.0304
10605W        W26074   7.002  14.529  14.840  0.0476  0.0054  0.1610
10606W        W26075   6.889  10.371   2.106  0.0101 -0.1371  0.1661
10607W        W26076   6.634   8.082  13.715 -0.0361 -0.1420 -0.0048
10608W        W26077   2.748  10.504  13.962  0.0218 -0.3199 -0.1540
10609W        W26078  13.512   0.778  11.110  0.2156 -0.3205 -0.1115
10610W        W26079   7.973  16.680   2.162  0.2557 -0.0522  0.1564
10611W        W26080   8.193   2.422   3.687  0.0154  0.0575  0.1306
10612W        W26081   7.487   2.521  11.172 -0.0795 -0.2025 -0.0690
10613W        W26082  11.896  12.857   3.951 -0.0695  0.0558  0.1669
10614W        W26083   7.226  17.189  12.554 -0.1416 -0.0002 -0.1194
10615W        W26084  12.989   9.459  15.600  0.0507 -0.0894  0.4895
10616W        W26085  12.644  13.915   3.738  0.0827  0.4258 -0.0212
10617W        W26086   2.177   6.368   3.461 -0.0071 -0.1496 -0.1903
10618W        W26087  11.901   7.226   2.231  0.0439  0.0254 -0.2311
10619W        W26088   5.697   3.133   5.667  0.0283 -0.0058 -0.3191
10620W        W26089   1.971  10.077  14.410 -0.1438  0.1047  0.0428
10621W        W26090   0.166  10.862  13.007 -0.1271  0.0686 -0.2838
10622W        W26091   4.994  15.686   4.397 -0.2105 -0.4059 -0.0015
10623W        W26092   3.928  11.290  12.306  0.1164 -0.0412 -0.1785
10624W        W26093   1.762  10.780   4.343  0.0304 -0.2660 -0.3949
10625W        W26094  16.436   0.412  12.188 -0.0986  0.0709 -0.0688
10626W        W26095  15.894   2.886   5.297 -0.0130 -0.3301 -0.1614
10627W        W26096   7.539   2.949  13.650  0.1175  0.1886  0.0169
10628W        W26097  10.024  10.120   4.909  0.2267 -0.0260  0.0313
10629W        W26098   7.683   0.511  10.936  0.2983 -0.0687 -0.0924
10630W        W26099  16.347  12.164  11.089  0.0439 -0.0564 -0.0386
10631W        W26100  13.300  18.396   3.766  0.1695 -0.1528  0.1494
10632W        W26101  10.094  17.962  12.793  0.1618  0.1395 -0.2243
10633W        W26102   0.973   4.153   3.270 -0.1166  0.0898  0.3645
10634W        W26103  11.222  14.380   4.674 -0.1987 -0.1151 -0.0228
10635W        W26104  10.944   3.192   5.925 -0.0624 -0.0263  0.0171
10636W        W26105  13.606   4.608  12.059 -0.0540  0.0581 -0.2046
10637W        W26106   3.099   1.127  12.947  0.3488 -0.1531  0.0318
10638W        W26107  13.179  15.123  10.805  0.3958  0.1112 -0.2127
10639W        W26108  17.745   1.450  13.700  0.0904 -0.1345 -0.1801
10640W        W26109   4.470  12.663  12.606  0.1157  0.3602  0.0732
10641W        W26110   9.020  18.010   4.740 -0.0147  0.0512 -0.2214
10642W        W26111  16.029   1.115  14.455  0.0455  0.0333 -0.0050
10643W        W26112  12.974   2.356  11.256  0.1407 -0.0481 -0.2924
10644W        W26113   3.797   8.254   2.767 -0.2614  0.0927 -0.3637
10645W        W26114  14.034   6.193   1.721  0.2617 -0.2299 -0.1135
10646W        W26115  16.486  15.450   1.854 -0.0356  0.0064  0.0254
10647W        W26116  13.221   5.244   0.516  0.2119  0.2762 -0.1855
10648W        W26117   1.074   4.952   4.591 -0.2589 -0.0369  0.1131
10649W        W26118   8.729   4.257   3.920  0.1338  0.0138  0.0768
10650W        W26119   7.910  16.457  13.101 -0.0333  0.0163  0.1416
10651W        W26120  17.958  18.551   1.359 -0.1262  0.2075 -0.1198
10652W        W26121  13.776  16.055  15.395 -0.0705 -0.0652  0.0367
10653W        W26122   0.098   9.180   1.805  0.0813 -0.0182 -0.1622
10654W        W26123  13.306  18.016  15.276  0.1040  0.1130 -0.1026
10655W        W26124   6.900  10.754   4.802 -0.0393 -0.0209  0.1061
10656W        W26125   6.170   2.060  12.629 -0.0308  0.0946 -0.3565
10657W        W26126  15.565   3.823  11.973 -0.0212 -0.2801  0.1835
10658W        W26127   8.653  12.325  11.730 -0.2943  0.1366  0.3121
10659W        W26128  10.904   3.299  14.048  0.0391  0.2368  0.1774
10660W        W26129   0.815   8.324   3.802  0.1804  0.1562 -0.1902
10661W        W26130  17.716   7.332   4.046  0.2046 -0.1432  0.2874
10662W        W26131  12.930   3.785   4.740  0.1098  0.0513 -0.4272
10663W        W26132   9.362   8.688  12.914 -0.4427 -0.0762  0.1569
10664W        W26133   2.998  15.230  11.424 -0.2816  0.0635  0.1965
10665W        W26134   6.969  11.599  11.785  0.2525  0.2003  0.1667
10666W        W26135  13.105  17.517   1.545 -0.0113  0.3463  0.3193
10667W        W26136   6.287   2.897   4.855  0.1596  0.3879 -0.0634
10668W        W26137   9.213   8.883   3.900 -0.2579  0.0750 -0.3702
10669W        W26138   3.331  16.835  15.584 -0.0908 -0.1919 -0.0677
10670W        W26139  13.884   5.180   5.494 -0.1461 -0.2104 -0.0411
10671W        W26140   2.776   5.783   5.627  0.2174  0.2015  0.2331
10672W        W26141  18.417   4.987  12.945  0.1487  0.2961 -0.3514
10673W        W26142   4.602   6.448   1.272 -0.1158 -0.0153  0.0497
10674W        W26143   6.031  17.118   4.339 -0.3281 -0.2354 -0.2072
10675W        W26144   7.171  18.595  15.726 -0.2957  0.2031  0.0625
10676W        W26145  14.305   5.385   0.647  0.1364  0.1389 -0.1388
10677W        W26146   3.289  14.859   6.337 -0.1983 -0.2027  0.0720
10678W        W26147   4.838   8.278  14.063 -0.0265 -0.1338  0.1074
10679W        W26148  12.883  13.896   4.184 -0.2756 -0.1787  0.3565
10680W        W26149  15.413   4.482   4.306  0.5343  0.1729  0.0715
10681W        W26150   0.808  12.940   0.360  0.1440  0.0548  0.1609
10682W        W26151   3.521  14.010  10.644 -0.0465  0.0365 -0.0314
10683W        W26152   2.440  16.833   3.153 -0.1612  0.0098 -0.1364
10684W        W26153  15.227   3.925  12.869  0.1624 -0.0504  0.1653
10685W        W26154  11.768  17.788   1.351 -0.0405 -0.0870  0.0581
10686W        W26155  18.166   7.544  11.795  0.3156 -0.1867 -0.0183
10687W        W26156   0.506  15.303   1.690  0.1054  0.3303 -0.1321
10688W        W26157   8.339   9.307  12.008  0.3242  0.0550  0.1759
10689W        W26158  18.151   6.069   3.387  0.2042  0.2238 -0.0309
10690W        W26159   0.958   1.322   4.937  0.1837 -0.1614 -0.1852
10691W        W26160  16.348   4.872  10.022  0.0313 -0.0072  0.0128
10692W        W26161  15.759   4.237  10.940 -0.3183  0.4622  0.0620
10693W        W26162  14.716   1.177   2.111  0.0623 -0.2204  0.0702
10694W        W26163   6.489  17.483  14.066  0.0358 -0.4619  0.1177
10695W        W26164  12.953  12.246   1.229  0.1176  0.2294  0.1905
10696W        W26165   4.983   4.980   3.766  0.2014 -0.1836 -0.0544
10697W        W26166   6.859   2.504   2.214 -0.2657 -0.1829  0.0904
10698W        W26167  15.764   8.984  13.032  0.1989  0.0062  0.4088
10699W        W26168  10.689   2.997   3.662  0.2186 -0.1764  0.0075
10700W        W26169  13.379  11.211   4.402 -0.0129  0.0404  0.2301
10701W        W26170  13.719  17.291  15.703  0.1592  0.0574  0.0603
10702W        W26171   1.908  13.802   5.768 -0.1698 -0.2968  0.1322
10703W        W26172  13.734   7.378   2.277 -0.1687 -0.2901  0.0886
10704W        W26173   3.909   6.537   4.104 -0.0007  0.1946  0.1305
10705W        W26174  11.699   8.777   1.865  0.3230 -0.0196 -0.0296
10706W        W26175   1.775  13.294   4.040 -0.0893 -0.1077 -0.2177
10707W        W26176   3.088  11.920  12.237 -0.2697 -0.0317 -0.0795
10708W        W26177   1.120   1.991  10.447 -0.2424  0.1022  0.1350
10709W        W26178   9.572  14.255  11.953  0.0332 -0.1044 -0.2709
10710W        W26179  17.787  11.868  14.230 -0.2478  0.2129 -0.0901
10711W        W26180   3.466  14.826  14.171 -0.1444  0.3204 -0.4063
10712W        W26181   9.700  15.176  11.765 -0.0892 -0.3097  0.1784
10713W        W26182   9.697  16.404   3.148  0.1320 -0.1048 -0.0245
10714W        W26183  10.616  10.379  14.364  0.1888 -0.1478  0.2523
10715W        W26184   9.466   8.912   1.144 -0.0831 -0.0924  0.1046
10716W        W26185   0.179   3.566  12.576  0.0582 -0.0542 -0.1923
10717W        W26186   8.811  12.558   2.657 -0.1249  0.0500  0.0696
10718W        W26187  18.150   6.971  14.496  0.3511  0.0470  0.3223
10719W        W26188   4.942  11.965  12.507 -0.0613  0.2366 -0.0842
10720W        W26189   8.715   8.910  14.351  0.2620 -0.2006  0.0260
10721W        W26190  11.363   4.640  14.651  0.4012  0.0687 -0.0505
10722W        W26191  12.998   0.244  14.403  0.1071 -0.1804 -0.5693
10723W        W26192  13.270   1.149   2.654  0.0627  0.1077 -0.1760
10724W        W26193   3.461   4.332   5.806 -0.2422 -0.2541 -0.1739
10725W        W26194   0.887   6.728  13.160 -0.1148  0.0363 -0.0046
10726W        W26195  15.855  10.289  11.346  0.3291 -0.1619  0.0401
10727W        W26196   6.918  12.706   3.605  0.0007  0.0570 -0.0283
10728W        W26197  14.889   8.568   0.068 -0.0560  0.3598 -0.0551
10729W        W26198   5.317  11.342   3.026  0.1596  0.3134  0.0498
10730W        W26199  15.376   6.884   4.482 -0.1032  0.1797 -0.2663
10731W        W26200  11.276  16.824   5.140  0.1802  0.1507  0.0327
10732W        W26201   6.113   6.032  12.545  0.1566  0.1534  0.0615
10733W        W26202  14.895   7.997   1.600  0.3813  0.1028  0.0703
10734W        W26203  12.058   2.869  14.566  0.1041 -0.0759 -0.0137
10735W        W26204  16.266  16.846   0.015  0.0096 -0.2407  0.2080
10736W        W26205   6.045  10.165  15.127  0.2475 -0.1511 -0.3723
10737W        W26206  11.117  10.840  12.958 -0.1075  0.2994  0.3119
10738W        W26207   1.043   3.554   5.196 -0.0615 -0.1189 -0.2529
10739W        W26208  15.305  17.659  13.898  0.0768  0.2129 -0.2056
10740W        W26209  17.808   8.345  14.225  0.3157 -0.1012  0.2583
10741W        W26210   5.616  12.182  12.062  0.1006 -0.1697  0.2070
10742W        W26211  12.409   9.590  14.444 -0.0889  0.3741  0.1448
10743W        W26212   5.598   5.869  12.854 -0.0203 -0.2486  0.0486
10744W        W26213   5.707   8.125  13.992 -0.0199  0.1029 -0.3130
10745W        W26214   2.977   2.830   3.555  0.1348  0.0543  0.2525
10746W        W26215   0.149   2.422   3.979 -0.0365  0.1673  0.1347
10747W        W26216   9.292   5.378  15.162  0.1446  0.1981  0.3029
10748W        W26217   4.970  11.465  11.195 -0.2788 -0.0158 -0.0022
10749W        W26218  17.279   9.260  15.125 -0.1892  0.0018  0.0393
10750W        W26219  17.960   6.190   4.347  0.1301  0.1806 -0.1583
10751W        W26220   4.233   2.560  14.465  0.0150 -0.3848 -0.0426
10752W        W26221  14.458   0.907  12.875  0.3811  0.1339 -0.2446
10753W        W26222  11.586   2.844   2.447 -0.4811 -0.1307  0.0899
10754W        W26223   2.956  15.729   5.087 -0.0371  0.2699  0.1772
10755W        W26224   9.048   6.799  14.383  0.1334 -0.2430 -0.3305
10756W        W26225   5.129  12.525   2.700  0.2088  0.1960  0.1334
10757W        W26226  13.190   5.823  11.510 -0.2233  0.3728 -0.0491
10758W        W26227  15.708   7.127  12.878  0.1136 -0.1559 -0.2194
10759W        W26228   2.495  11.976  14.078 -0.0819 -0.1475 -0.0607
10760W        W26229  16.428   2.731   4.308  0.0431 -0.2699  0.0520
10761W        W26230  10.088  17.144   5.305 -0.1219 -0.3897  0.0240
10762W        W26231   1.859   1.293  11.992 -0.2917  0.1410 -0.0721
10763W        W26232  10.248  10.729   0.185 -0.2359 -0.1703 -0.0945
10764W        W26233  14.036   0.214   5.412  0.1053 -0.1576 -0.0220
10765W        W26234   5.651   8.150   2.924 -0.2841  0.1683 -0.0422
10766W        W26235  10.001  18.326   6.832 -0.1465  0.1048 -0.1443
10767W        W26236  11.433   9.620  13.482  0.3317 -0.0707 -0.1146
10768W        W26237   5.479   0.680   3.687 -0.2345 -0.0387 -0.3491
10769W        W26238   9.969  16.263  10.612 -0.1868  0.0402 -0.2176
10770W        W26239   4.528  18.377   5.025  0.2403 -0.2000  0.2600
10771W        W26240   6.861   2.792  10.512  0.1274  0.0575 -0.1798
10772W        W26241   4.059   8.526  11.219 -0.2842 -0.1574 -0.0143
10773W        W26242  14.088   3.596  13.196 -0.0798  0.0789 -0.2452
10774W        W26243   8.958   9.533  14.298 -0.1439  0.1535 -0.3709
10775W        W26244   8.491  13.935  12.725 -0.0366 -0.2084  0.1019
10776W        W26245  15.593   8.662  11.737 -0.2830 -0.0960 -0.2113
10777W        W26246  15.702   7.592   3.119  0.0067  0.1225  0.0212
10778W        W26247   3.282  14.750  13.628 -0.3452 -0.2866  0.1434
10779W        W26248   7.897  11.065   2.039  0.2581  0.0468 -0.3924
10780W        W26249   1.967  15.648  11.582  0.0068 -0.0058  0.1251
10781W        W26250   1.251  18.179   1.331  0.2078  0.0097 -0.0309
10782W        W26251   3.957   8.144  15.210 -0.3335  0.2373 -0.1301
10783W        W26252   3.287  10.257   0.306 -0.0218 -0.0570 -0.1693
10784W        W26253  15.771  11.086   5.411  0.1565 -0.1034 -0.2855
10785W        W26254   2.260   2.745   2.312  0.0146 -0.2585 -0.0990
10786W        W26255   3.457   6.980   5.865  0.0864  0.0135 -0.3154
10787W        W26256   3.426  10.383  11.257  0.1823 -0.2021 -0.0549
10788W        W26257   2.478   1.822   2.724 -0.0481  0.1566  0.0582
10789W        W26258  15.203  16.539  13.732  0.3457 -0.0724  0.3455
10790W        W26259   1.504   2.700  15.355  0.2712  0.0362 -0.1204
10791W        W26260   6.807  13.168   3.430 -0.0186 -0.0452  0.2013
10792W        W26261  17.304   6.077  10.646  0.1175  0.4310 -0.2445
10793W        W26262   4.175   6.487   0.273 -0.3539 -0.1122  0.0639
10794W        W26263   0.286  10.270   4.909 -0.1257  0.2722  0.1373
10795W        W26264   5.596   3.329  11.997  0.2732 -0.0992  0.2481
10796W        W26265  16.471  13.115   0.416 -0.0654 -0.1940  0.1930
10797W        W26266  10.579   9.937   2.117 -0.0325 -0.0965 -0.0355
10798W        W26267  11.530   9.604  12.805 -0.0969  0.0350 -0.0896
10799W        W26268   3.499   3.423   2.405 -0.0824 -0.1173 -0.3514
10800W        W26269   9.967   9.232   1.715 -0.2197 -0.1215  0.3906
10801W        W26270   5.749   7.409  14.569 -0.0547  0.1141 -0.2465
10802W        W26271   3.044  10.555   3.744  0.1903 -0.0409  0.1007
10803W        W26272  17.172  16.866  12.386 -0.1430 -0.1319  0.1088
10804W        W26273  15.857   5.834   3.575  0.0817  0.2332  0.1696
10805W        W26274   0.379   4.486  12.290  0.1613  0.1965 -0.0310
10806W        W26275   8.282   9.929   1.389 -0.0948  0.0152 -0.2784
10807W        W26276   7.791   2.460  13.450 -0.0467 -0.1948 -0.1466
10808W        W26277  11.069  14.909  13.041 -0.0442 -0.1209  0.0863
10809W        W26278   1.114   0.722  14.123 -0.0260 -0.1133  0.0454
10810W        W26279  10.500  13.977  13.881  0.2543  0.1327 -0.1355
10811W        W26280  14.162  16.006  13.303 -0.4062  0.2183  0.4045
10812W        W26281   5.868   8.363   2.441  0.2272  0.0672 -0.1121
10813W        W26282   4.488   4.289   0.508 -0.2681  0.1278  0.0567
10814W        W26283  13.515   1.745  11.410 -0.5399  0.2923  0.0150
10815W        W26284  16.713   4.345   5.679 -0.2504  0.2112 -0.0934
10816W        W26285  12.357   8.642  13.411 -0.3688 -0.2643 -0.0012
10817W        W26286   7.245   8.718   2.703  0.0667  0.1520 -0.1822
10818W        W26287   3.476  13.162  11.057  0.2297 -0.1489 -0.0173
10819W        W26288   5.901  15.012  11.649  0.1418 -0.3578 -0.0154
10820W        W26289  16.431   3.854   2.371  0.1225 -0.0057  0.0623
10821W        W26290   7.925   7.399  15.751  0.0475 -0.0310  0.2046
10822W        W26291  12.393   3.861   4.870 -0.4584  0.2193  0.0657
10823W        W26292  12.451  16.610  11.848 -0.1236 -0.0701 -0.0463
10824W        W26293   5.386  13.421   4.515  0.1451  0.0312  0.2791
10825W        W26294  17.672   3.172   2.812  0.2532  0.3720  0.1307
10826W        W26295  16.721  17.302   3.984  0.0329 -0.0288 -0.0762
10827W        W26296   0.470   6.440   2.418 -0.2261 -0.4270 -0.1750
10828W        W26297  10.414   8.810   4.465  0.1043  0.3158 -0.1084
10829W        W26298   7.328  10.794   0.738  0.1601  0.5733 -0.1489
10830W        W26299   0.968  11.275  15.770 -0.0093 -0.0619  0.1750
10831W        W26300   5.452   3.791  15.697  0.1038  0.3056  0.1478
10832W        W26301  16.348  11.248   2.119 -0.0974 -0.0680  0.2268
10833W        W26302   2.806   7.417  14.276 -0.0714 -0.0659 -0.0896
10834W        W26303  16.913   8.017   0.484 -0.1651 -0.0260 -0.1013
10835W        W26304   2.440   0.866  10.958 -0.0856 -0.0752  0.0059
10836W        W26305  15.923   7.586  12.818  0.1691 -0.1508  0.1715
10837W        W26306  12.138   1.212   1.876  0.1495 -0.1584 -0.3297
10838W        W26307   2.392   4.688  11.659  0.0885 -0.0104 -0.1949
10839W        W26308  10.927   6.743   4.033 -0.1392  0.1502  0.3177
10840W        W26309   5.728   9.671  11.859 -0.0964  0.0903 -0.1270
10841W        W26310   5.726   3.930   3.172 -0.2564 -0.0758 -0.0604
10842W        W26311   4.509  10.125   0.669  0.1026  0.2039 -0.0254
10843W        W26312   1.299   3.332   0.763  0.1624 -0.0317  0.0666
10844W        W26313  17.538   0.169   1.558 -0.3399  0.2239 -0.1988
10845W        W26314  14.576   7.191  15.070 -0.2282 -0.0119  0.1291
10846W        W26315   5.161   5.568  12.929  0.1141 -0.0541  0.0795
10847W        W26316   4.444   9.623  12.154  0.2385  0.0247 -0.0161
10848W        W26317  16.766  18.620  14.408  0.1670  0.0149 -0.1316
10849W        W26318   9.893   8.787  14.255  0.1736  0.3172  0.3892
10850W        W26319  14.187  13.269  11.045  0.0750 -0.1524 -0.0659
10851W        W26320   9.290  12.842  15.219 -0.1098  0.2299 -0.4078
10852W        W26321  16.824   3.292  11.315  0.3820  0.0552 -0.0694
10853W        W26322  16.152  17.713   3.102  0.0583 -0.2599 -0.0361
10854W        W26323   0.051   9.379  12.535  0.2937  0.0207  0.2906
10855W        W26324   1.391   1.592   1.274  0.0567 -0.0039 -0.1357
10856W        W26325   0.914  11.941  12.757  0.0421  0.0827  0.1326
10857W        W26326  16.837  10.488   1.995 -0.0647 -0.0287 -0.3178
10858W        W26327   8.458   2.834   3.724  0.1364  0.2001 -0.0551
10859W        W26328   5.387  10.852  15.145 -0.0784  0.0067  0.0527
10860W        W26329  15.728   3.973   4.528 -0.2508  0.2563 -0.4086
10861W        W26330   5.775  12.995  13.944 -0.0976 -0.1795  0.1221
10862W        W26331   2.714   9.649   1.102  0.1272 -0.2121 -0.1690
10863W        W26332  13.300   7.216  14.122 -0.1504 -0.0020 -0.1303
10864W        W26333   9.127   6.567  15.429  0.2353  0.0315 -0.0655
10865W        W26334  14.822  12.777   5.217  0.1922  0.2058  0.2137
10866W        W26335   5.376   6.084  11.933 -0.2161  0.0899  0.1745
10867W        W26336  16.924   2.851  10.229 -0.0288  0.2818 -0.2988
10868W        W26337  13.949   6.910   5.503 -0.1651 -0.5090 -0.0802
10869W        W26338   8.523   2.722   5.513 -0.0472  0.1587  0.1332
10870W        W26339  17.934  13.694  13.143  0.1054 -0.0712 -0.0288
10871W        W26340  11.069  10.162  14.433 -0.4691  0.1610 -0.3809
10872W        W26341  10.692   3.893  11.269 -0.1746 -0.0207  0.2746
10873W        W26342   8.783  12.794  12.597 -0.2704  0.0262  0.0032
10874W        W26343   2.873   9.766   4.274 -0.5559 -0.3674 -0.2287
10875W        W26344  10.355  17.083  13.705 -0.1525  0.1196 -0.1599
10876W        W26345   8.159   5.079   0.738  0.3020  0.2453  0.0442
10877W        W26346  18.271   6.855  11.269 -0.3093 -0.1664 -0.2627
10878W        W26347  10.190   3.037   3.638  0.1879 -0.0265  0.0871
10879W        W26348   0.445  15.731   5.447  0.0699  0.1138  0.1563
10880W        W26349   3.859  14.609  15.492  0.0485  0.0368  0.0014
10881W        W26350  14.243   5.674  13.961  0.3210  0.0095 -0.1478
10882W        W26351   0.893  13.334  15.005  0.0592  0.0103  0.0434
10883W        W26352  18.194   0.252   0.202 -0.1264 -0.1193  0.0585
10884W        W26353   0.367   5.715  13.345  0.0421 -0.1764  0.1583
10885W        W26354   4.390  17.431  14.687 -0.1419 -0.3528  0.0452
10886W        W26355   0.828  16.067  15.046 -0.2270  0.0932  0.2742
10887W        W26356  14.915  14.278  12.884  0.0679 -0.1052 -0.0076
10888W        W26357   7.493  11.796   3.077 -0.1933  0.0449 -0.1997
10889W        W26358  16.288   0.399  15.510 -0.0564 -0.4377  0.2948
10890W        W26359  16.255   5.410  10.352 -0.2899  0.4225  0.1525
10891W        W26360   4.494  12.608  13.090  0.2608 -0.1794  0.3982
10892W        W26361  16.332   2.136   1.898  0.1388 -0.1127  0.4931
10893W        W26362   3.291  15.540  13.715 -0.5565  0.2307 -0.1101
10894W        W26363  12.020  13.843   0.122  0.3249  0.3189  0.0647
10895W        W26364  16.435  11.540   2.551  0.0193 -0.2135 -0.1877
10896W        W26365   1.854   3.245  10.374  0.2263  0.2830 -0.0329
10897W        W26366  16.135   9.947   2.247 -0.1486 -0.0605 -0.0875
10898W        W26367   0.657  10.506  12.453 -0.0465  0.2816  0.1274
10899W        W26368   7.965   4.934   4.686  0.0442  0.2242  0.1864
10900W        W26369  10.294  13.563  14.219  0.1829  0.1810 -0.0342
10901W        W26370  18.517   9.250  11.393  0.0098 -0.2340 -0.2689
10902W        W26371   3.222   9.993  13.101  0.2455  0.1232  0.1405
10903W        W26372   9.717   6.199   3.772 -0.0831  0.1171 -0.0723
10904W        W26373   0.607  16.563  15.138  0.1077  0.1393  0.3987
10905W        W26374  16.515  13.271   5.500  0.3998  0.1413 -0.0190
10906W        W26375   1.325  10.807   1.336 -0.0331  0.1110 -0.0387
10907W        W26376  12.248   0.759  12.288 -0.1930 -0.1767 -0.0891
10908W        W26377   4.491   8.905  14.461  0.0407  0.0509 -0.3107
10909W        W26378  13.723   9.250  12.031  0.0692 -0.1961  0.1296
10910W        W26379  15.765   5.552  10.251 -0.1331 -0.1000 -0.3919
10911W        W26380   0.633  18.608  14.757 -0.2119 -0.0055 -0.2427
10912W        W26381  16.999  17.468  11.028  0.0906 -0.1113  0.3581
10913W        W26382   3.279  17.427   2.851 -0.0545  0.0082  0.1944
10914W        W26383   8.489  18.083   1.183 -0.2086 -0.1875  0.3260
10915W        W26384   3.015  12.030   1.721 -0.1585 -0.0242  0.0633
10916W        W26385   3.967   8.952   3.426  0.0878  0.1473  0.2433
10917W        W26386   0.232  16.111   1.666  0.0584  0.0123 -0.0617
10918W        W26387  13.782   9.899   1.302  0.0353  0.2041 -0.0243
10919W        W26388   8.928  14.851   2.385  0.0392  0.0762  0.0043
10920W        W26389   8.359   5.728   0.149 -0.0997 -0.1725  0.1286
10921W        W26390  13.995  14.443  10.878  0.1636  0.0532  0.1662
10922W        W26391   9.924   6.844   2.211  0.3462 -0.1098 -0.1938
10923W        W26392  11.810   8.569  15.651 -0.0825 -0.2746  0.0524
10924W        W26393   2.566   8.122  10.453 -0.0704  0.1526 -0.4510
10925W        W26394   7.470   0.624  15.197 -0.3245  0.2035  0.1005
10926W        W26395  12.383   0.105  12.847 -0.2472 -0.0133 -0.2200
10927W        W26396  17.530   1.021   3.801 -0.0226  0.1688  0.0018
10928W        W26397   8.192   0.000  14.833 -0.0336  0.2507 -0.0807
10929W        W26398  13.683   1.460  13.273 -0.0980 -0.2406 -0.0643
10930W        W26399   2.361  16.793   1.702 -0.2269  0.0456 -0.2827
10931W        W26400   3.318   3.672   5.140 -0.2708 -0.0524  0.0058
10932W        W26401   8.732   9.901  11.473  0.1118  0.1283  0.1050
10933W        W26402   0.874  16.949  10.763  0.0512  0.0826  0.3793
10934W        W26403   3.112   6.458   2.476 -0.2679 -0.0971  0.0540
10935W        W26404  12.640   6.453   1.994 -0.0504 -0.1529  0.2011
10936W        W26405  12.021   5.887   1.617  0.3250  0.2953 -0.2015
10937W        W26406   3.695  15.327  10.676  0.0843  0.2262  0.1443
10938W        W26407   6.844   5.443   3.995  0.1656  0.1635 -0.1450
10939W        W26408  16.554   8.116   3.374  0.1188 -0.1327  0.1181
10940W        W26409   2.449  13.611  12.893 -0.0857  0.1926 -0.2964
10941W        W26410   0.826   8.037   3.368 -0.3347  0.3099  0.1620
10942W        W26411  18.434  11.400   2.330 -0.0628  0.0935 -0.0246
10943W        W26412   8.817  13.580  15.514  0.0273 -0.2308  0.0195
10944W        W26413  11.566   6.885  14.255  0.3172 -0.1639 -0.2045
10945W        W26414   0.549   1.973   9.773  0.1042 -0.2498  0.0913
10946W        W26415  17.750  12.473  14.705  0.3709  0.0924 -0.4129
10947W        W26416   0.443   4.836   1.547  0.1692  0.1455 -0.3057
10948W        W26417   4.415  14.629   4.074  0.0310  0.2026 -0.0820
10949W        W26418  12.118  12.841  12.818 -0.2831  0.1561 -0.2077
10950W        W26419  15.712   7.770   1.503 -0.1697 -0.1190 -0.1517
10951W        W26420   7.046   7.754   2.925  0.1747  0.0026  0.1909
10952W        W26421   1.952   0.626  10.814 -0.0825  0.0423 -0.0051
10953W        W26422  12.270  18.063  10.501 -0.1211  0.5307 -0.0280
10954W        W26423  16.694   0.597  15.729  0.0990 -0.0137 -0.1673
10955W        W26424   1.609  11.681  13.510 -0.1902  0.2058 -0.0148
10956W        W26425   2.377  14.140  12.896  0.1076  0.0258 -0.0724
10957W        W26426  15.347   0.338   4.482 -0.0165 -0.2109  0.0431
10958W        W26427   4.907   3.564  14.124 -0.2620  0.0347  0.2164
10959W        W26428  18.226   7.807  14.827  0.2289  0.0741  0.4121
10960W        W26429   0.427   2.792   0.631 -0.0296 -0.0587  0.0007
10961W        W26430  15.923  18.355   2.324  0.4262  0.0888 -0.1151
10962W        W26431   4.013   7.117  12.637  0.1248 -0.0658  0.0102
10963W        W26432  14.254   4.658   4.900  0.1841 -0.1444 -0.0318
10964W        W26433  14.517   0.179   5.157  0.0138 -0.5016  0.4229
10965W        W26434   3.097  18.411  12.976  0.0616  0.0445  0.1808
10966W        W26435   3.156   3.907   1.178  0.1180  0.1563 -0.3779
10967W        W26436   2.053  16.862   1.330  0.2901 -0.1455  0.0005
10968W        W26437   4.500  10.465   2.629  0.0729 -0.0779 -0.1657
10969W        W26438  10.330  12.426  12.657  0.1712 -0.0078 -0.3071
10970W        W26439   8.593   6.268  14.089 -0.3970  0.0107 -0.0282
10971W        W26440   4.938   6.994   5.103 -0.1819  0.3659  0.2333
10972W        W26441  17.596  12.911   4.744  0.0094 -0.1870  0.2093
10973W        W26442  15.950   9.976   3.798 -0.0659 -0.1540  0.1885
10974W        W26443  17.586   0.269   0.157  0.0403  0.0528  0.0219
10975W        W26444  10.425  10.973  11.404 -0.1545  0.1687  0.0995
10976W        W26445   3.029  12.895  13.646 -0.2647  0.1631 -0.0640
10977W        W26446  13.652   8.135  14.194 -0.0158  0.0606  0.0342
10978W        W26447   6.174   9.424  14.681 -0.0676  0.0577  0.0042
10979W        W26448   2.905  16.867   3.439  0.1706 -0.0627  0.1803
10980W        W26449  13.403   4.295  15.136  0.0524 -0.1502 -0.1808
10981W        W26450   1.499   4.866   3.750 -0.1124  0.0263  0.0081
10982W        W26451   6.558  16.590   1.940 -0.1214  0.1540  0.0351
10983W        W26452  13.454   4.125   2.830  0.0489  0.1422 -0.0313
10984W        W26453  15.712  16.716   3.076  0.2403  0.0642  0.0866
10985W        W26454  11.910   9.497   4.020  0.1123  0.1309 -0.1564
10986W        W26455   6.360   5.516   4.330 -0.1712  0.0442  0.0059
10987W        W26456   1.294  15.263  11.314  0.3314 -0.3655 -0.2213
10988W        W26457  17.760   8.726   5.145  0.0227  0.4169  0.1355
10989W        W26458   6.273  16.504  12.270 -0.2955  0.4890  0.1577
10990W        W26459   6.458  10.669   2.894 -0.1332  0.0474 -0.0843
10991W        W26460  16.160   7.147  11.965 -0.0191 -0.0349  0.1294
10992W        W26461   7.241  12.717  10.415  0.2004 -0.1441 -0.3248
10993W        W26462   2.012   0.033  11.341 -0.0416  0.1094 -0.1355
10994W        W26463   7.244  11.719   0.159 -0.0258  0.0543  0.2816
10995W        W26464  12.185   4.896   3.994 -0.1130  0.0618  0.1930
10996W        W26465   6.406  12.029   1.061  0.1369 -0.3863 -0.5340
10997W        W26466   1.447   1.131  15.079 -0.2540 -0.0178  0.1805
10998W        W26467  10.166  12.709  14.171  0.0126 -0.2365  0.1037
10999W        W26468   6.411  15.907   2.719 -0.0530 -0.1912  0.0307
11000W        W26469  11.332  13.162  14.053 -0.1144 -0.3464  0.1972
11001W        W26470  17.962   1.044   0.677 -0.1406  0.2687  0.0100
11002W        W26471   3.959   0.051  11.062 -0.1471 -0.1120 -0.1777
11003W        W26472   1.364  13.562   3.761 -0.1691 -0.0799 -0.3554
11004W        W26473  10.970   6.193   2.504  0.1010  0.0918 -0.0171
11005W        W26474  15.721   2.845  13.346  0.6154 -0.3563 -0.0739
11006W        W26475  16.192   9.997   3.360 -0.0662  0.1024  0.1916
11007W        W26476   3.096   5.728  12.516 -0.2462 -0.0950  0.0621
11008W        W26477  11.343  15.349   4.368 -0.1167  0.2781 -0.3546
11009W        W26478   3.851  16.717  13.507 -0.2984  0.0365  0.0450
11010W        W26479   0.676   2.778   1.957  0.1466  0.0923  0.1314
11011W        W26480   1.688  14.084   0.726 -0.2637  0.3557  0.0883
11012W        W26481  18.402   3.598  12.864 -0.0822 -0.0090  0.0026
11013W        W26482  15.960  16.380  10.919 -0.0367 -0.0831  0.0924
11014W        W26483   9.963  11.891  14.410  0.2659 -0.1333 -0.0715
11015W        W26484  17.968  13.593   1.003 -0.0100  0.0291  0.1765
11016W        W26485   4.983   6.989   4.587 -0.0655 -0.0909 -0.1336
11017W        W26486   7.594   9.188  10.429  0.2707  0.3845 -0.0521
11018W        W26487  18.076   9.561   4.037  0.0800  0.2213 -0.0326
11019W        W26488   0.624  17.742  12.753  0.0018  0.0375 -0.4001
11020W        W26489  15.677  13.881   4.118  0.6815  0.2730 -0.4572
11021W        W26490  12.226   5.824  12.936 -0.1677 -0.0155  0.2727
11022W        W26491   6.056  12.533  14.986  0.0313  0.1666 -0.0852
11023W        W26492   7.895   9.870  11.488 -0.1133  0.0404 -0.0582
11024W        W26493  17.060   9.829   1.209 -0.1916  0.0940  0.2450
11025W        W26494  15.612  16.326   5.582  0.1842  0.0518 -0.0628
11026W        W26495   0.864   7.199  11.620 -0.1721 -0.1919 -0.1716
11027W        W26496  14.149  11.581   1.825  0.1276 -0.0984 -0.1220
11028W        W26497   5.237  17.374   5.115 -0.2326  0.0204  0.1367
11029W        W26498   8.677   5.386   0.223 -0.4085 -0.0043  0.3284
11030W        W26499  16.488  15.381  10.851 -0.0170 -0.2139 -0.1082
11031W        W26500   1.867  10.449  11.776 -0.0415 -0.1018 -0.4220
11032W        W26501   7.728   2.492   5.119 -0.1050  0.1754 -0.3923
11033W        W26502   0.693   9.645  13.322 -0.0449 -0.3956 -0.2181
11034W        W26503  10.842   9.372   5.835 -0.2482 -0.2654 -0.1236
11035W        W26504  16.765   6.454   4.396 -0.0446 -0.1061 -0.0203
11036W        W26505   9.583   4.391   2.672  0.1863 -0.2395  0.1715
11037W        W26506   0.251   1.460  12.426  0.2557 -0.2513 -0.0915
11038W        W26507  12.044  17.384   2.707  0.0520 -0.0497 -0.1521
11039W        W26508   0.150  13.176  12.195 -0.0076 -0.2967 -0.0090
11040W        W26509   6.494   6.934  11.556  0.1394  0.0632  0.0394
11041W        W26510   1.149   8.808   1.112  0.1285 -0.2828 -0.0641
11042W        W26511  17.567   9.148   9.925  0.0094 -0.3520  0.0758
11043W        W26512   8.216   6.323  12.789  0.1253  0.0451  0.3157
11044W        W26513   7.230  11.146  10.074  0.2637 -0.2117 -0.0026
11045W        W26514  14.790  11.429  15.559  0.0483  0.0226 -0.1441
11046W        W26515   0.823  15.793  10.840  0.0147 -0.2296  0.1835
11047W        W26516   4.579  16.598   4.949  0.3201 -0.2544  0.0915
11048W        W26517  15.131  12.252   3.736 -0.0695 -0.1441 -0.0307
11049W        W26518   7.854   5.760   4.083  0.1465  0.0472 -0.1785
11050W        W26519   2.502  13.624   9.358  0.1467  0.2445 -0.1546
11051W        W26520   2.923   0.009   0.637 -0.0172 -0.2397 -0.2823
11052W        W26521   0.224   2.474  10.833  0.1982 -0.0398 -0.1816
11053W        W26522   8.824  17.004  15.424 -0.0420 -0.1057  0.1439
11054W        W26523  16.468  14.263  14.758  0.1699  0.0206  0.0971
11055W        W26524   7.057  14.302   1.607  0.3059 -0.1054 -0.2260
11056W        W26525   5.967   2.652  11.362 -0.0308  0.0481 -0.0120
11057W        W26526  10.774  13.047   4.694  0.0143 -0.0152  0.0003
11058W        W26527  14.982   6.220   0.797 -0.0043 -0.1291  0.0479
11059W        W26528   2.832   8.850   2.175  0.3048  0.0070  0.2239
11060W        W26529   2.746   8.392   5.230  0.3315  0.3414  0.0759
11061W        W26530   9.830  13.952  12.284  0.2238 -0.2868  0.1325
11062W        W26531   0.668   3.074  15.096  0.1922  0.3243  0.1903
11063W        W26532   5.493  14.792  12.792  0.2429 -0.2167 -0.1372
11064W        W26533   2.357   0.156  13.578 -0.5869 -0.0233 -0.1999
11065W        W26534  11.949   2.675  11.410 -0.0326  0.0952  0.0126
11066W        W26535   1.370   5.363   3.197  0.3305  0.1047 -0.0906
11067W        W26536  10.465  17.397  15.080  0.0228 -0.3062 -0.1658
11068W        W26537  16.812  12.207   0.754  0.0892 -0.1426 -0.0772
11069W        W26538   6.192   3.733   4.831 -0.1959 -0.0419  0.1988
11070W        W26539   7.759   7.852   2.373  0.0440 -0.1234  0.1569
11071W        W26540  12.137  15.708  12.509 -0.0570  0.1303  0.0682
11072W        W26541  14.217  10.518   4.259 -0.0934 -0.0362 -0.0257
11073W        W26542   6.258   3.117   0.533  0.0921  0.2906 -0.0800
11074W        W26543  10.562   6.394  13.529  0.1807  0.2832  0.0191
11075W        W26544  11.772   5.007   2.148 -0.0867  0.1381 -0.2905
11076W        W26545  16.396  18.400   3.041 -0.1407  0.2059 -0.1870
11077W        W26546   2.939  13.927  12.646  0.0946 -0.2350  0.1869
11078W        W26547  10.027   1.175   1.971 -0.0661  0.0548 -0.2838
11079W        W26548  11.607   6.918  11.730 -0.0608  0.1397 -0.2717
11080W        W26549  16.035   7.880   3.466  0.0236 -0.3384  0.1620
11081W        W26550  15.707   8.576   4.025  0.1555  0.0639  0.0194
11082W        W26551  14.026   3.660  14.928 -0.2788  0.1262 -0.0333
11083W        W26552  17.190   7.229   0.870  0.0976 -0.2009 -0.2092
11084W        W26553   3.674   2.813  14.337  0.1916 -0.1712  0.2209
11085W        W26554   3.686   2.025  12.123 -0.0420 -0.1600  0.2273
11086W        W26555  13.938  13.740   4.745 -0.1282 -0.4852 -0.1452
11087W        W26556   9.641   3.357  15.343  0.1750  0.2362  0.2033
11088W        W26557   6.559   4.181   1.651  0.1050  0.1535 -0.3816
11089W        W26558  14.837   7.105   0.949 -0.3567 -0.4305 -0.0404
11090W        W26559  13.832   6.564   4.216 -0.0969  0.0040 -0.0759
11091W        W26560  17.159  10.262   1.436 -0.0856 -0.0725 -0.1213
11092W        W26561   3.729   9.753   3.784 -0.1629  0.2652 -0.1822
11093W        W26562   1.955   9.648  10.911  0.0372 -0.0523  0.1090
11094W        W26563  16.273  11.044   3.262  0.1124  0.0693  0.4096
11095W        W26564   0.106   7.070  11.082  0.0264 -0.0646  0.0557
11096W        W26565   0.881   5.282  12.965 -0.2216 -0.0113 -0.1132
11097W        W26566  18.173  18.208  12.158  0.3403 -0.1943  0.1633
11098W        W26567  14.489  13.824  13.276  0.0929  0.2171 -0.1656
11099W        W26568   2.996  12.752   9.754 -0.0978  0.1888  0.2356
11100W        W26569  12.837   0.704  12.713 -0.0616 -0.2602 -0.2087
11101W        W26570  13.246   1.293   4.564  0.1592  0.1650 -0.0806
11102W        W26571  15.930   0.042   2.848 -0.0799  0.1214  0.2627
11103W        W26572   0.290  14.191   1.868 -0.2283 -0.0627  0.2143
11104W        W26573   7.256   3.956   1.777 -0.1488 -0.1152 -0.0482
11105W        W26574   3.455   1.399   1.513  0.1321  0.0633 -0.0149
11106W        W26575   6.685  14.288  11.654 -0.1958 -0.0709  0.1087
11107W        W26576  17.023   5.061   2.941  0.0131 -0.0103  0.3829
11108W        W26577  14.383   7.120  14.167  0.0637 -0.2290  0.2577
11109W        W26578   4.212  17.242  12.479 -0.0478 -0.2261  0.1134
11110W        W26579   8.959   6.636   4.747 -0.1533 -0.4214 -0.1128
11111W        W26580  16.316   5.531  12.317  0.3860 -0.0249 -0.1416
11112W        W26581  17.251  10.494  14.132 -0.1693 -0.3068 -0.0680
11113W        W26582  12.870   5.863   4.307  0.0001 -0.0941  0.0062
11114W        W26583   7.184   2.506  13.832  0.1217  0.0397  0.0266
11115W        W26584  10.302  11.251  14.953 -0.0199 -0.0894 -0.1699
11116W        W26585   9.699   6.349   4.266 -0.1565  0.0167  0.0700
11117W        W26586   9.682   6.517  13.665 -0.3760  0.1220  0.1593
11118W        W26587   0.135  17.547   1.507  0.1971 -0.1088  0.0188
11119W        W26588   0.118   7.910   2.690 -0.0187  0.0181 -0.1735
11120W        W26589  15.404   1.309   4.827 -0.0296 -0.3069 -0.2138
11121W        W26590  15.290  11.626   4.578  0.0898 -0.3174  0.1332
11122W        W26591  14.081  17.402  14.827 -0.2180 -0.0619  0.0235
11123W        W26592  18.210  16.401   5.620 -0.1140  0.2283  0.2797
11124W        W26593   2.002  11.663  13.138 -0.2953  0.1131  0.1963
11125W        W26594   7.558   8.330   5.252 -0.2772 -0.1966 -0.2097
11126W        W26595  12.247  18.003   4.151  0.3996  0.0625  0.0656
11127W        W26596  15.049   7.992  13.794  0.0036  0.0418  0.2518
11128W        W26597   4.621  10.147   3.140 -0.0647  0.0535  0.0123
11129W        W26598   9.695  12.647   5.242  0.0638  0.2513  0.1925
11130W        W26599  10.530  10.327  11.432  0.3308 -0.0365  0.0330
11131W        W26600   7.538  18.620  11.304  0.2866  0.0525  0.3413
11132W        W26601  12.499   7.034  13.963  0.1703 -0.1218 -0.3079
11133W        W26602  18.261  15.306   4.032  0.1446  0.2555 -0.2759
11134W        W26603   0.334   7.024  13.905 -0.2419  0.0104 -0.1444
11135W        W26604   2.673  18.292  13.421  0.0325 -0.0978 -0.1290
11136W        W26605   1.588   6.213   1.519  0.0782 -0.2005 -0.2334
11137W        W26606  11.460   7.024   0.633 -0.2876  0.0792 -0.2535
11138W        W26607  13.186   0.567  14.039 -0.2727 -0.3674  0.0086
11139W        W26608  15.744  14.251   3.708  0.2312 -0.0300  0.2225
11140W        W26609  18.151  16.014   5.274 -0.1180  0.2597 -0.1024
11141W        W26610   8.241   2.285  12.564 -0.2699  0.0755 -0.1405
11142W        W26611  13.741   6.556  13.204 -0.0768 -0.2066 -0.2945
11143W        W26612  14.035  15.228  12.081  0.3105 -0.1019 -0.1012
11144W        W26613   6.884   3.647   3.335 -0.2667  0.1271  0.0294
11145W        W26614  14.761  15.283   6.126  0.0117  0.0812  0.2036
11146W        W26615  10.651   5.824  12.641 -0.1614  0.0114  0.0753
11147W        W26616   5.685   7.520  13.996 -0.3121 -0.0189 -0.0165
11148W        W26617  17.720  11.708  12.766  0.1961 -0.1234  0.1017
11149W        W26618   2.842   9.272   9.638  0.1568 -0.1480  0.2019
11150W        W26619   7.009   8.927  13.499  0.1794 -0.1776 -0.4162
11151W        W26620   8.721  15.112   4.494 -0.1272  0.1727  0.0087
11152W        W26621   8.450   3.058  13.308  0.1444  0.2075 -0.1282
11153W        W26622   1.136   9.239   3.641 -0.0622 -0.1393 -0.2643
11154W        W26623  10.410  17.356   6.234 -0.1584  0.1222  0.1434
11155W        W26624   7.573   4.340   2.906  0.1673  0.2301  0.2519
11156W        W26625   9.705  14.826  13.663 -0.2357  0.0931  0.1399
11157W        W26626   4.914  14.623  11.560 -0.0637  0.0471 -0.0964
11158W        W26627   4.795  11.515   5.489 -0.0346 -0.0675 -0.0414
11159W        W26628   5.122  10.231  15.392  0.3201 -0.2558 -0.2145
11160W        W26629   4.211   0.303  15.336 -0.0117 -0.0537  0.1043
11161W        W26630   4.027  17.238  14.971  0.1379  0.1229 -0.2395
11162W        W26631  10.256  14.986   0.643 -0.0265 -0.0157 -0.0228
11163W        W26632  14.112  11.095   1.158 -0.0806 -0.0845 -0.3481
11164W        W26633  14.525   5.269   5.672  0.2298  0.0271 -0.2928
11165W        W26634  13.379  16.259  11.656 -0.3019  0.0071  0.1425
11166W        W26635   0.858   6.546  14.372 -0.3032  0.2425 -0.1042
11167W        W26636  16.321   3.441   3.752 -0.0525 -0.0810 -0.3301
11168W        W26637   2.376  12.793   4.556  0.0417 -0.2649  0.2374
11169W        W26638  12.312   0.514   4.660 -0.1116  0.1153  0.0087
11170W        W26639   3.055   6.975  14.143 -0.1130  0.1989 -0.0752
11171W        W26640   0.371  16.799   4.226  0.0915 -0.1023  0.0755
11172W        W26641   3.813  13.307  15.118  0.2033  0.0298 -0.2345
11173W        W26642  13.941  11.094   3.653 -0.3063  0.3136 -0.4860
11174W        W26643  10.398   2.134  11.699 -0.1118  0.1263  0.1430
11175W        W26644   3.701  12.246  13.149  0.1663  0.0225 -0.0492
11176W        W26645   7.624   1.022  11.786  0.0318 -0.0590 -0.1966
11177W        W26646   9.712   1.619   1.155 -0.0472 -0.3297  0.0562
11178W        W26647   2.411  17.669   5.164 -0.1553 -0.2984 -0.2391
11179W        W26648   1.719   0.194  10.659 -0.1758  0.2791 -0.2458
11180W        W26649  18.299   3.306   0.561 -0.2453 -0.4102 -0.0469
11181W        W26650   8.200  13.126  12.195 -0.0596 -0.2848 -0.1242
11182W        W26651  14.251   4.275   5.819  0.0059 -0.0921  0.0884
11183W        W26652   1.120   0.085  12.627  0.1236  0.2368  0.1752
11184W        W26653   3.589   2.578  12.781  0.0989  0.3568  0.0698
11185W        W26654  10.888  10.239  12.340 -0.0567  0.3123  0.2549
11186W        W26655   7.399  17.077  10.708  0.0511  0.3018  0.0451
11187W        W26656  12.307   0.851  14.484 -0.2376 -0.0504  0.0301
11188W        W26657  12.824   2.479  15.436 -0.0842  0.1977 -0.1045
11189W        W26658  12.169   3.226   3.534  0.2384  0.0584  0.0695
11190W        W26659   6.895  17.935  14.636  0.0109  0.0101  0.1734
11191W        W26660   1.378   6.122   0.853  0.0348  0.0609 -0.0966
11192W        W26661  12.948  13.328  14.517 -0.0917 -0.2471 -0.1540
11193W        W26662   2.511  11.162  14.782  0.1561  0.0606  0.2715
11194W        W26663   5.880   3.336   0.789  0.0608 -0.1497  0.0333
11195W        W26664   6.112  12.291   4.436  0.0686 -0.5154 -0.1600
11196W        W26665   0.355   7.895   4.891  0.0286  0.1719 -0.0660
11197W        W26666  12.627  17.386   0.770  0.1291 -0.2360 -0.2805
11198W        W26667  13.151  15.061   2.171 -0.1836  0.3059 -0.0973
11199W        W26668   1.335  16.710   3.191  0.0311 -0.2600  0.0250
11200W        W26669   3.929  10.680   1.152  0.4467  0.0216  0.0526
11201W        W26670  16.707  10.508  14.372 -0.1078 -0.1059  0.0209
11202W        W26671   1.783  17.195   5.048 -0.1859  0.0173 -0.4061
11203W        W26672   1.553   9.697  11.221  0.2241 -0.4665 -0.3030
11204W        W26673   6.639  15.717   3.674 -0.1636  0.0721  0.1763
11205W        W26674   1.877   0.738   2.886  0.1343 -0.0785  0.2058
11206W        W26675  18.342   5.982  12.923  0.0162  0.0459 -0.0353
11207W        W26676   8.519  13.601   4.512 -0.2035  0.0037 -0.0127
11208W        W26677   8.067   9.547   0.680 -0.2630 -0.2155  0.1035
11209W        W26678   0.183  10.254   0.165 -0.1188 -0.1612  0.0119
11210W        W26679  13.369  17.783  13.459  0.0485  0.2892 -0.2829
11211W        W26680   2.203   8.354  15.481  0.1515  0.1039  0.1106
11212W        W26681   2.159  15.175  12.396  0.0599  0.0606 -0.1380
11213W        W26682  18.409   4.787   2.756  0.1919 -0.2037 -0.3669
11214W        W26683  11.934   6.431  14.269  0.0048  0.2758 -0.3097
11215W        W26684  11.893  18.345  15.519 -0.3030 -0.3410  0.4228
11216W        W26685  11.823  13.237   2.660 -0.0701 -0.0602  0.1080
11217W        W26686  17.846  15.427   1.298 -0.2793 -0.0341  0.0698
11218W        W26687   1.361  12.931   0.149  0.2581 -0.0228 -0.0737
11219W        W26688  12.878   1.874  13.565  0.3814  0.0161  0.1013
11220W        W26689   2.882   4.638   2.713  0.0779  0.3168  0.0069
11221W        W26690   7.339   8.604   0.963 -0.1176  0.4376  0.0517
11222W        W26691   4.079   5.767   3.375 -0.1026  0.0653 -0.1872
11223W        W26692  14.169  16.098   2.463  0.0637  0.2959  0.1747
11224W        W26693  18.076   5.775   4.052 -0.0473  0.0908  0.0299
11225W        W26694   3.482   3.249  14.947 -0.1784  0.1308  0.1842
11226W        W26695   0.160  12.260  14.386  0.2103 -0.3170 -0.4426
11227W        W26696  12.450   0.113   3.049  0.1326 -0.1943 -0.1691
11228W        W26697  10.305  17.074  15.486 -0.0743  0.3157 -0.2009
11229W        W26698   5.517   3.201   1.968  0.0127  0.1507 -0.1516
11230W        W26699  15.633  16.189  12.266  0.0186 -0.3346  0.2596
11231W        W26700   8.479   9.277  14.024 -0.1346 -0.2289 -0.0470
11232W        W26701  16.645  15.041   4.710 -0.0558 -0.1843 -0.2227
11233W        W26702  15.927  14.810   1.288 -0.4976  0.0717 -0.0332
11234W        W26703   0.203  18.602  12.867 -0.2907  0.3666 -0.0100
11235W        W26704  14.440   8.304  13.460  0.0278 -0.3586 -0.2509
11236W        W26705  11.157  13.320  14.617 -0.2308 -0.0452 -0.1928
11237W        W26706   9.204  10.901  14.305  0.3026 -0.2348  0.0434
11238W        W26707  14.229   1.389  14.382  0.0397 -0.0340  0.1839
11239W        W26708  14.449   8.085   2.558  0.2218  0.5054 -0.4747
11240W        W26709  17.223  17.619   3.875  0.1310 -0.2016  0.1609
11241W        W26710   6.162   0.883  14.098  0.2690  0.0710  0.1481
11242W        W26711  12.770   6.696   5.423 -0.2589  0.1131  0.2183
11243W        W26712   9.693   6.560  11.304 -0.2295 -0.0319  0.3308
11244W        W26713  13.128  13.834   1.033 -0.1288 -0.3608  0.2921
11245W        W26714  15.869   1.929   2.878 -0.0781  0.2340  0.0880
11246W        W26715   4.771  16.679   1.153  0.0297  0.0697  0.3737
11247W        W26716  10.637   5.557  13.161 -0.2013  0.1219 -0.0160
11248W        W26717  11.154  11.779   0.723  0.0591 -0.1056  0.0903
11249W        W26718  12.408   6.679   3.840  0.2393  0.0523 -0.3726
11250W        W26719   8.029   4.400   1.610 -0.0457 -0.0540 -0.2831
11251W        W26720   2.238  15.203   3.998  0.0059  0.0503  0.2352
11252W        W26721   4.320  12.169   4.463 -0.4425  0.1428 -0.0760
11253W        W26722   3.634  15.997  12.948 -0.0913  0.1219  0.2219
11254W        W26723  11.740  10.152   2.696 -0.1284 -0.1609  0.1776
11255W        W26724  17.280  16.890   0.245 -0.3350 -0.0328 -0.1682
11256W        W26725   6.114   7.958  11.033  0.2360 -0.0561  0.1793
11257W        W26726  11.140   9.408   0.181  0.1738 -0.0938 -0.2166
11258W        W26727  10.836   4.231   5.972  0.4775  0.2219 -0.0754
11259W        W26728  14.035  16.488  12.645 -0.2554 -0.1351  0.0232
11260W        W26729  16.750  17.064   2.771  0.0397 -0.3783 -0.2181
11261W        W26730   4.051   1.087   4.472 -0.2028  0.1913 -0.0122
11262W        W26731   5.620  11.831   2.922  0.2449  0.0442 -0.0122
11263W        W26732  15.143  17.195   4.366  0.0469  0.2958 -0.1818
11264W        W26733  17.736   6.263   1.864 -0.2292  0.1040 -0.0939
11265W        W26734   1.050  11.558   3.412  0.1231 -0.2128 -0.1033
11266W        W26735   4.166   6.287  14.185 -0.1061 -0.3711 -0.0593
11267W        W26736  17.188   4.799  15.626 -0.0063 -0.1214  0.1603
11268W        W26737  12.839  14.620   2.276 -0.1552 -0.2188  0.1843
11269W        W26738   9.509  15.308  10.799 -0.3223  0.0309  0.1022
11270W        W26739   2.963   2.854   9.822 -0.3566  0.2767  0.5095
11271W        W26740   1.290  17.931   0.242 -0.0274 -0.3358 -0.0079
11272W        W26741   6.763  13.746  13.943  0.0786 -0.4187 -0.1682
11273W        W26742   7.217  16.324  13.930  0.0761  0.0960  0.1748
11274W        W26743  17.898   2.529   4.301  0.1147  0.0664  0.1890
11275W        W26744   6.589   3.402   3.045 -0.0334  0.1113 -0.0063
11276W        W26745  15.470  14.466   3.127 -0.0216  0.0989 -0.0702
11277W        W26746   5.935   0.036   3.910  0.2226  0.0094 -0.2540
11278W        W26747   4.513   7.283  12.418 -0.0254  0.2070  0.3264
11279W        W26748  15.555   3.523   0.459 -0.2257  0.1052  0.2060
11280W        W26749  16.982   4.467   3.338 -0.1385  0.2184  0.0160
11281W        W26750  16.625   8.191  13.160  0.0746 -0.1756  0.1625
11282W        W26751   6.118   2.352   3.379  0.3336  0.0236 -0.0254
11283W        W26752   7.664  13.965   3.130  0.0058 -0.0557 -0.1645
11284W        W26753   8.625   8.160   3.750  0.1768  0.3100 -0.1117
11285W        W26754  13.839  10.753  14.740 -0.4839  0.2783 -0.3340
11286W        W26755  16.249   5.539   1.173 -0.0718  0.0917 -0.2647
11287W        W26756   0.891  10.999   4.691 -0.0489 -0.1200  0.0681
11288W        W26757   3.230   9.484  14.796 -0.3553  0.1172 -0.0339
11289W        W26758   3.899   5.208  14.907 -0.3872  0.1935  0.0176
11290W        W26759  13.220   4.871   0.957  0.2029 -0.0829  0.3701
11291W        W26760   3.188  16.707  10.868  0.2208 -0.0090  0.0263
11292W        W26761   6.328   8.693  10.767  0.2998  0.1407 -0.1431
11293W        W26762   2.858   8.988   3.642 -0.1521 -0.0171 -0.1490
11294W        W26763  16.427  13.985  12.211  0.2484 -0.0295 -0.0864
11295W        W26764   9.267   1.449  10.765 -0.2562 -0.1446 -0.1274
11296W        W26765  17.886  18.357   3.697  0.0666  0.3182  0.3644
11297W        W26766  15.645  14.946  14.266  0.0460 -0.0119 -0.1752
11298W        W26767  12.354   1.045   4.780 -0.0785  0.0568  0.0477
11299W        W26768  12.146   0.225   2.327  0.2435 -0.0029  0.2899
11300W        W26769  10.232   1.666   5.393  0.1296 -0.0963 -0.3394
11301W        W26770  11.395   8.598   0.098 -0.0187 -0.1681  0.0476
11302W        W26771  13.109   4.153   0.843  0.0254  0.1049  0.0159
11303W        W26772  15.293  15.101  13.207 -0.4479  0.2201 -0.2003
11304W        W26773   1.955  13.856   5.206 -0.0550  0.2002 -0.0676
11305W        W26774   9.605   7.170   3.918  0.1877  0.1231 -0.0735
11306W        W26775  12.144   8.182   0.812 -0.1268 -0.1088 -0.1908
11307W        W26776  12.094  12.950   3.104 -0.5115  0.1525  0.3807
11308W        W26777  13.782  12.615   5.380  0.0432  0.1027 -0.0950
11309W        W26778   2.564   6.219  10.536  0.0740  0.0523  0.1421
11310W        W26779   6.073  12.995  14.898  0.0220 -0.2143 -0.2343
11311W        W26780   5.611  15.395   5.176 -0.2333 -0.0752  0.1005
11312W        W26781  16.252  18.513  15.295  0.0829  0.0566  0.2725
11313W        W26782   1.570  15.783   3.433 -0.0568 -0.0726 -0.3119
11314W        W26783  10.105   0.663   5.341 -0.3115  0.1529 -0.0082
11315W        W26784  15.042  11.561  13.428  0.1895 -0.1366 -0.1778
11316W        W26785   5.874   2.475  13.997  0.0014  0.0051  0.2210
11317W        W26786  17.050   7.804  14.223  0.0794  0.4471  0.0937
11318W        W26787  15.538   3.389  12.760  0.0215 -0.1328  0.0795
11319W        W26788   6.352  15.511  12.063  0.4027 -0.0837  0.1418
11320W        W26789   1.520   7.570   1.447  0.0219  0.0543 -0.1960
11321W        W26790   3.558   1.782   4.478 -0.1610  0.2107  0.4062
11322W        W26791  14.713  13.414   3.345 -0.1595  0.1140 -0.0668
11323W        W26792   7.675  12.347  12.868 -0.1845  0.0914  0.0431
11324W        W26793  18.441  11.942   3.177 -0.1571 -0.2160 -0.3433
11325W        W26794   3.221   5.583   4.507 -0.0695  0.0515 -0.1018
11326W        W26795   2.107  14.236   4.743 -0.0191  0.0910 -0.1437
11327W        W26796  12.753  15.743   4.171 -0.0801  0.0472  0.0867
11328W        W26797   2.987  17.735  12.590  0.1011 -0.0207 -0.2299
11329W        W26798  12.451  10.678   1.645  0.0416 -0.0137 -0.0409
11330W        W26799   7.964  14.304  15.130 -0.1001 -0.1066  0.2635
11331W        W26800   2.798   9.599  13.793  0.0915  0.0706  0.2343
11332W        W26801  13.837   3.973  15.299 -0.0433  0.4838 -0.0189
11333W        W26802  11.721  11.135  13.760  0.2402 -0.0578  0.1766
11334W        W26803   9.033   1.712   4.117  0.0670  0.0764 -0.1090
11335W        W26804  14.948  11.091  10.612 -0.3137 -0.0044 -0.0548
11336W        W26805   3.459   2.445  12.233  0.0842  0.2113  0.1430
11337W        W26806  15.147  12.954   3.976  0.2792 -0.0868  0.3162
11338W        W26807   6.722   5.789   6.143  0.2842  0.1494 -0.0413
11339W        W26808   2.932   4.880  13.809 -0.0274 -0.1651  0.1434
11340W        W26809  15.286  10.398   1.210  0.1524 -0.1187 -0.1743
11341W        W26810   7.777   5.347   3.727  0.2897  0.0701 -0.0143
11342W        W26811   3.440  13.312  12.054 -0.0662 -0.1661  0.0244
11343W        W26812   2.637   7.552  12.901  0.0771 -0.1801 -0.2337
11344W        W26813  10.181   7.659   2.368  0.1419  0.0189  0.1527
11345W        W26814  10.676   5.038  12.228 -0.2166 -0.0097 -0.0475
11346W        W26815  17.090  18.005  15.018 -0.0384 -0.2270 -0.3189
11347W        W26816   6.215   1.754  13.150  0.1470  0.0934 -0.0192
11348W        W26817  16.693   7.257   4.732 -0.1294  0.2383  0.1701
11349W        W26818  12.028   5.339  12.094 -0.0032 -0.1099 -0.0619
11350W        W26819  12.280  12.604  12.175 -0.1948  0.0708 -0.2743
11351W        W26820  17.242  17.127   4.728  0.1569  0.2186 -0.0547
11352W        W26821  14.004   5.712   4.350  0.2170 -0.1218  0.1001
11353W        W26822  15.507   7.280  10.042  0.0092  0.1013  0.3184
11354W        W26823   0.061  15.868  14.012  0.0473  0.2589 -0.1589
11355W        W26824  16.178   2.856   1.093  0.0661  0.2438  0.0132
11356W        W26825  14.281  12.564   0.162 -0.0680  0.1872 -0.3317
11357W        W26826   3.433   5.185   4.790 -0.0037 -0.0855 -0.0102
11358W        W26827   1.967   0.729  13.124 -0.4465 -0.5017 -0.1272
11359W        W26828   0.612  13.960   5.293  0.0312  0.0993  0.1925
11360W        W26829  13.006   1.749   1.757 -0.1058 -0.1885  0.1399
11361W        W26830   9.606  14.234  15.649 -0.0434  0.1446  0.0406
11362W        W26831  18.489  15.141   0.480 -0.0106  0.2658 -0.2770
11363W        W26832   6.531   2.643   0.400 -0.2389  0.0088 -0.1901
11364W        W26833  10.251   3.510   1.457 -0.0732  0.0490  0.0541
11365W        W26834  11.753   0.378  10.723 -0.0507 -0.1879 -0.0136
11366W        W26835  18.220   6.805   3.749  0.1761 -0.0345  0.0658
11367W        W26836   9.630   9.994  10.129 -0.0355  0.1802 -0.0829
11368W        W26837   6.236  13.912  10.631 -0.2846 -0.1416  0.0297
11369W        W26838   7.689  11.456   1.165  0.2431 -0.3352 -0.2263
11370W        W26839  17.587  16.419   1.944  0.1798  0.1635  0.4184
11371W        W26840  10.675  16.977  11.801  0.1531 -0.0766 -0.3523
11372W        W26841   1.126  17.465   5.760  0.0401  0.6733  0.0651
11373W        W26842   5.813   6.397   3.910  0.4802 -0.0203  0.1484
11374W        W26843   5.035   0.822   3.345 -0.0283 -0.2024 -0.1880
11375W        W26844  15.439   1.858  14.411  0.1262  0.2157 -0.0247
11376W        W26845  11.272   7.910  11.922  0.4910  0.3903  0.1743
11377W        W26846   3.103  17.717   3.676  0.0951  0.1188 -0.2563
11378W        W26847  11.298  12.905   1.828 -0.5257  0.0121  0.1794
11379W        W26848   6.213   7.461   4.728  0.4394 -0.2527 -0.2228
11380W        W26849  18.350  14.223   3.565  0.1358 -0.0033  0.0283
11381W        W26850   1.007  15.095  10.851 -0.0382 -0.2769 -0.2072
11382W        W26851   0.307  17.065  13.431 -0.1490 -0.2844  0.0926
11383W        W26852   7.959  14.518   4.498  0.0031 -0.3665 -0.2319
11384W        W26853   6.516  14.097  12.335 -0.2849  0.1962  0.0698
11385W        W26854   0.721   4.521  15.056 -0.1913 -0.0740  0.2673
11386W        W26855  17.957   2.255   4.740  0.2374 -0.1483 -0.1564
11387W        W26856  17.596   5.677  13.350 -0.0137 -0.0505  0.0740
11388W        W26857   5.055   5.115   2.779 -0.1403  0.1494 -0.0906
11389W        W26858   3.334   8.405  12.698 -0.2313 -0.1982  0.1632
11390W        W26859  10.015  11.715   1.371 -0.2335  0.0419  0.1258
11391W        W26860   9.195  10.044  12.404  0.0985 -0.2357  0.1102
11392W        W26861   5.044  17.685  14.239 -0.1595  0.1235  0.1235
11393W        W26862   3.336   5.743   0.282 -0.0633 -0.1201  0.0976
11394W        W26863  14.512   3.413  14.293 -0.1204  0.0515 -0.0261
11395W        W26864  18.428  14.393  10.250 -0.0914 -0.2026 -0.1435
11396W        W26865  10.424   6.831   0.541 -0.0673 -0.1695 -0.2780
11397W        W26866  15.556   3.899   5.350 -0.0819  0.3109 -0.0288
11398W        W26867   8.742  10.958   3.764  0.2195  0.1768 -0.0532
11399W        W26868   1.909   9.481   5.184 -0.0324 -0.0904  0.2553
11400W        W26869   4.243   1.207  14.968 -0.4697 -0.4190 -0.0569
11401W        W26870   5.462  11.272  14.389  0.2259 -0.0299 -0.0624
11402W        W26871   8.570   5.898   1.651 -0.3989 -0.0590  0.0237
11403W        W26872  11.217  11.283   3.695 -0.0130  0.2051  0.2693
11404W        W26873   4.619   5.344   3.004  0.1651 -0.2530  0.0985
11405W        W26874   2.642  10.392   9.863 -0.4634  0.0413 -0.0940
11406W        W26875  17.673  13.071  15.262 -0.1006 -0.0086  0.2263
11407W        W26876   6.971  10.579   1.606 -0.3192 -0.1353 -0.5861
11408W        W26877  17.626  18.496   0.979 -0.0003 -0.1071 -0.2515
11409W        W26878   7.531   1.059  14.287 -0.1779  0.0223  0.0232
11410W        W26879  12.070  14.444  15.033 -0.1887 -0.0823  0.0648
11411W        W26880  13.906  11.973  10.232  0.0015  0.1608  0.0264
11412W        W26881  14.014   7.987   2.030 -0.1161 -0.1820 -0.0291
11413W        W26882   6.370   3.196   1.471 -0.0350  0.2161  0.1625
11414W        W26883   3.831   2.962   4.394 -0.0141  0.2956  0.1055
11415W        W26884  15.377  17.541  11.195  0.1191 -0.1281 -0.0767
11416W        W26885   5.286  17.671  13.799  0.3288 -0.2475 -0.1247
11417W        W26886   2.122  17.994  15.542 -0.2115  0.0195 -0.0990
11418W        W26887   9.873   5.772   1.906 -0.1454  0.0461  0.3024
11419W        W26888   3.186  17.376   2.361 -0.1360  0.2268  0.2394
11420W        W26889   9.319   0.825   5.254 -0.0997  0.0212 -0.1480
11421W        W26890  15.085   0.108   3.918 -0.1314  0.3386 -0.2314
11422W        W26891   4.345  12.163   1.526 -0.0048  0.0856  0.0148
11423W        W26892   1.324   5.938   3.260 -0.2271  0.2127  0.2526
11424W        W26893   2.710   4.888  10.914  0.3310  0.1778 -0.1099
11425W        W26894  13.826   9.093   4.262 -0.1500 -0.0358 -0.1919
11426W        W26895   4.526  17.809   3.197 -0.1480 -0.1484 -0.1435
11427W        W26896   7.553   7.090  12.092 -0.3694 -0.3868  0.3050
11428W        W26897  12.450  14.342   2.079  0.1244 -0.2500 -0.0358
11429W        W26898   4.487   6.952   4.727 -0.3777 -0.3443  0.0371
11430W        W26899   5.228   5.881   1.135 -0.0559  0.0109 -0.0310
11431W        W26900  16.727   0.458  10.837  0.0991  0.0207  0.0177
11432W        W26901   4.945  10.378   4.551 -0.0723  0.3030  0.0059
11433W        W26902   3.035  12.697   2.611  0.1274  0.1968  0.2314
11434W        W26903  11.412   6.409   2.522  0.0295  0.0685  0.2788
11435W        W26904   1.023   6.671  14.846 -0.0080  0.2191 -0.2044
11436W        W26905   4.789   7.655  10.756 -0.1707 -0.1304 -0.2359
11437W        W26906   5.395   0.774   2.839 -0.1641  0.2312 -0.0825
11438W        W26907   6.173  16.249   4.376  0.1090  0.1275 -0.0000
11439W        W26908  15.066  11.291  12.974 -0.0136 -0.0298 -0.5053
11440W        W26909   3.843  16.233  13.374  0.2092  0.2796  0.0487
11441W        W26910  17.591   4.049   4.380  0.0946  0.1498 -0.0313
11442W        W26911   2.875   9.020   1.300 -0.1067 -0.0622 -0.4450
11443W        W26912   3.578  14.277   0.756 -0.0746  0.2205  0.2403
11444W        W26913   8.556   1.588   2.340  0.1170  0.2594  0.0066
11445W        W26914  15.250   3.592   3.502  0.1865  0.2688  0.0512
11446W        W26915   5.993  14.400  14.846  0.1955 -0.2332 -0.0716
11447W        W26916  10.567  16.555  14.668 -0.1272  0.1052 -0.0553
11448W        W26917   6.219  13.395   9.555 -0.0692 -0.0368  0.0739
11449W        W26918  10.199   8.238   4.621  0.4169 -0.0066  0.0312
11450W        W26919   1.541  17.178   2.069  0.0514 -0.0464  0.3036
11451W        W26920   6.810  15.776   2.387 -0.0665 -0.0110  0.2224
11452W        W26921   3.057  17.215  14.885  0.0730 -0.3936  0.0269
11453W        W26922   3.859  10.261   3.732 -0.0851  0.1662 -0.0751
11454W        W26923   9.837  11.769   0.913  0.2526 -0.3288 -0.1325
11455W        W26924   6.967   8.463  13.781 -0.0359 -0.0823 -0.1141
11456W        W26925  18.000   0.965   1.944  0.2093  0.0694 -0.3348
11457W        W26926  14.433  14.679  14.055  0.1317 -0.1503  0.0753
11458W        W26927   0.113  16.270   1.154 -0.0858 -0.1139 -0.2554
11459W        W26928  12.057  14.792  10.704  0.3053  0.1996 -0.0859
11460W        W26929   2.666   1.009  13.220 -0.0278  0.0896  0.0210
11461W        W26930   1.646  12.270   3.748  0.0582 -0.0275 -0.0800
11462W        W26931  17.814  16.442   5.920  0.1109 -0.2927 -0.1462
11463W        W26932   4.684   9.204  12.012  0.1581  0.2533  0.2400
11464W        W26933  17.318  12.825   1.120  0.0011  0.2886 -0.1036
11465W        W26934  10.480   5.642  12.205 -0.0691  0.0644  0.1578
11466W        W26935  14.603  15.508   2.906  0.2932 -0.2228  0.0830
11467W        W26936  11.981   2.346  13.431 -0.0159  0.0463  0.0914
11468W        W26937  13.422  11.663  10.791 -0.0744 -0.1328  0.0857
11469W        W26938   6.765   0.186   2.283  0.0562  0.4542  0.1471
11470W        W26939  17.986  11.636  13.796  0.1084  0.2342  0.0239
11471W        W26940   9.576   6.687   0.302  0.0150 -0.0683 -0.1546
11472W        W26941   2.293  12.135  10.148  0.1223 -0.2052 -0.1428
11473W        W26942   3.748   7.468   3.335  0.2018  0.2902 -0.1766
11474W        W26943  16.026   6.784  12.680  0.1225 -0.0071  0.3564
11475W        W26944   3.947   7.191   0.914  0.2509 -0.1710 -0.1025
11476W        W26945   1.744  14.906   0.487 -0.2240 -0.2050  0.3002
11477W        W26946   5.319  10.531  11.220 -0.1168 -0.0131 -0.2662
11478W        W26947   2.821  14.400  12.158  0.0358 -0.2244 -0.2193
11479W        W26948   1.214  15.328  15.214  0.1993  0.0444  0.0687
11480W        W26949   6.701  17.426   5.298  0.2053  0.0900  0.0748
11481W        W26950   8.092  16.408  15.509 -0.3218  0.1904 -0.0730
11482W        W26951  14.091  13.259   0.388 -0.1625  0.0414 -0.2290
11483W        W26952  13.717  16.382   3.697  0.0778  0.0951 -0.0630
11484W        W26953   0.607  13.654   2.158 -0.1680 -0.1705  0.5155
11485W        W26954  16.333  13.917  13.499 -0.0782  0.1082 -0.2096
11486W        W26955  12.589   8.061  15.055  0.0633  0.1860 -0.1045
11487W        W26956  18.019  11.866  14.927 -0.1237 -0.0665  0.0422
11488W        W26957   7.294   4.993   5.232 -0.3470 -0.0443  0.1823
11489W        W26958  15.067  12.084   0.271 -0.1271  0.1596  0.1198
11490W        W26959  16.923  17.862  12.280 -0.0510 -0.2128 -0.0349
11491W        W26960   8.784   5.681   1.141 -0.2546 -0.2006 -0.2213
11492W        W26961  11.075  15.439  13.873  0.3550 -0.0945  0.1294
11493W        W26962   1.023  17.467   0.338  0.2181 -0.1825  0.4736
11494W        W26963  17.034  15.067  13.181  0.0277  0.0463  0.0257
11495W        W26964  11.777  16.500  13.974  0.1409 -0.1861  0.1393
11496W        W26965  14.232  16.853   5.009  0.1991  0.4108  0.0196
11497W        W26966  11.734  12.694  14.782 -0.1343  0.2530  0.1696
11498W        W26967   2.095  17.327  12.891 -0.1609  0.1047 -0.3417
11499W        W26968   6.483  13.798  11.785  0.4531 -0.1949 -0.0004
11500W        W26969   0.566   2.579  11.736  0.0164  0.1934  0.1270
11501W        W26970  17.057   3.160  15.743  0.3866 -0.1399 -0.0075
11502W        W26971  13.176  12.043  14.937  0.0060 -0.0129  0.0544
11503W        W26972  13.344   6.185   4.942 -0.0637 -0.0987 -0.0028
11504W        W26973  15.602  14.355   4.768 -0.0299  0.0491  0.1054
11505W        W26974  13.422  11.529   3.027 -0.1705 -0.1985 -0.1185
11506W        W26975  16.435   5.076   0.596  0.0827 -0.0711  0.5275
11507W        W26976   3.476  14.712  12.514 -0.1782  0.0365 -0.1597
11508W        W26977  12.719  15.275   4.189 -0.0070 -0.1656  0.0844
11509W        W26978  11.580   4.162   3.075 -0.0667  0.0950  0.0559
11510W        W26979   8.669  14.464  11.104 -0.2093 -0.3695  0.0271
11511W        W26980  14.507   1.455  11.326 -0.0452  0.0549 -0.2368
11512W        W26981   1.833   2.582   3.263 -0.0570 -0.0999  0.3338
11513W        W26982  16.193   8.270   3.863 -0.1442 -0.0524 -0.1653
11514W        W26983   4.112  14.319  14.762  0.0110 -0.2050 -0.0319
11515W        W26984  16.061  16.037   4.289  0.2197  0.1447  0.1424
11516W        W26985  12.364  17.280   2.042  0.1068 -0.0224  0.1460
11517W        W26986  11.663  13.111   4.518  0.2036  0.1747  0.1341
11518W        W26987  10.090  15.027   1.636  0.3137 -0.0641 -0.1958
11519W        W26988  10.905   9.259  13.398  0.0531 -0.1273 -0.0862
11520W        W26989   1.693   0.099   0.497 -0.1652  0.2483  0.0468
11521W        W26990  11.020   3.141  15.354 -0.1152 -0.1751  0.2224
11522W        W26991   6.235  10.911  11.123 -0.1139 -0.2568  0.0753
11523W        W26992   5.375   4.328   4.231 -0.2652 -0.1702  0.0158
11524W        W26993   6.351  17.079   4.786  0.0606 -0.2278 -0.2440
11525W        W26994  16.077   5.338  15.329  0.0975  0.2316 -0.0892
11526W        W26995   5.662  14.997   2.852 -0.0766 -0.0697  0.0592
11527W        W26996   7.614  11.724  14.513 -0.1613 -0.0201 -0.0270
11528W        W26997   3.427  17.860   5.045  0.0454 -0.0139  0.0016
11529W        W26998  11.948  12.168   2.543  0.2354  0.0514  0.0255
11530W        W26999   9.454   8.055  11.194  0.0846  0.1266 -0.1387
11531W        W27000  16.906  11.468   4.081  0.2017 -0.3743 -0.0664
11532W        W27001   9.583  18.613  11.596 -0.0002  0.1699  0.1215
11533W        W27002   3.093   0.872  15.360  0.1932 -0.1746  0.3986
11534W        W27003  14.642  15.827   4.459  0.0725 -0.0363  0.1990
11535W        W27004  10.601   9.198   5.126 -0.0535  0.0105 -0.0948
11536W        W27005   2.378   0.882   4.569  0.0299  0.2355  0.1463
11537W        W27006  18.119   8.114   3.824 -0.1172 -0.4571 -0.2123
11538W        W27007   9.452   4.889  15.067  0.0173  0.4946 -0.1305
11539W        W27008  15.486   3.089   2.489  0.1898  0.2910 -0.0206
11540W        W27009  11.820  16.935  15.464 -0.0963 -0.1755  0.1639
11541W        W27010  17.511  10.968  13.387  0.3789  0.1484  0.0974
11542W        W27011  17.624  18.504   4.990  0.0184  0.2332 -0.2518
11543W        W27012   6.301   6.563   3.251  0.2206  0.1323 -0.2549
11544W        W27013  14.687   8.952   4.767  0.4036  0.1141  0.2095
11545W        W27014  13.995   1.563  15.384  0.0968 -0.1079  0.5681
11546W        W27015   4.528  17.779  15.380  0.1031  0.1329 -0.1673
11547W        W27016   6.724   6.825   0.046 -0.1090 -0.0592 -0.1354
11548W        W27017  11.313   5.077  13.336 -0.1375 -0.0795  0.2658
11549W        W27018   5.159   4.585  12.768  0.0472  0.1137  0.1395
11550W        W27019   0.531   1.303  13.884  0.3171 -0.1434 -0.0544
11551W        W27020  18.391  15.477   1.428  0.2386  0.2646  0.2120
11552W        W27021   3.628   3.910  13.378  0.2610  0.0738 -0.2506
11553W        W27022  10.555  15.381   1.872  0.2219  0.0018  0.0180
11554W        W27023  17.936  16.170  12.369 -0.0376  0.0486  0.1499
11555W        W27024   0.225   4.037   3.983 -0.1309 -0.1601  0.0197
11556W        W27025   3.510   3.683   3.561 -0.1701 -0.1237  0.0469
11557W        W27026  11.007   1.390   2.426 -0.4364 -0.2922  0.2457
11558W        W27027  18.010   4.578   0.456  0.0458 -0.0593 -0.0950
11559W        W27028   0.849   1.928   5.544  0.1257 -0.0897 -0.2617
11560W        W27029  14.057   2.690   3.008 -0.1911  0.0008  0.1326
11561W        W27030  14.051   0.110  12.509 -0.0985  0.2740 -0.0943
11562W        W27031   9.985   5.056   0.944  0.1808 -0.1251 -0.2913
11563W        W27032   1.706  16.187  10.900  0.0406 -0.1070 -0.0136
11564W        W27033   0.611  17.830  15.364  0.0670 -0.1368  0.0299
11565W        W27034   1.493  18.540  12.322  0.3627  0.1645  0.0185
11566W        W27035  12.874  17.156   2.715 -0.0278  0.3429 -0.2549
11567W        W27036  16.592  10.002  11.733 -0.0033  0.1407 -0.0924
11568W        W27037   3.866   8.755  13.948  0.0271 -0.2370 -0.1919
11569W        W27038   5.564   7.746   5.496 -0.2459 -0.1550 -0.2865
11570W        W27039  14.836   2.986  11.898  0.0492  0.1158  0.0159
11571W        W27040  10.104  13.298   3.553  0.1304 -0.1017  0.1911
11572W        W27041  17.604   1.654  12.440 -0.0480  0.0450 -0.3295
11573W        W27042  11.407  11.680  13.554 -0.2115  0.3642 -0.1043
11574W        W27043   4.203   8.077   5.078 -0.1219  0.0545 -0.1055
11575W        W27044   6.987  16.323   0.809 -0.3978  0.0146  0.0235
11576W        W27045   1.934  15.665  13.984 -0.0444  0.0630 -0.3000
11577W        W27046   4.786  18.268  14.848  0.0371  0.2474 -0.1243
11578W        W27047   1.400  13.242  13.589 -0.2066  0.0868 -0.0853
11579W        W27048  11.112  11.276   2.503 -0.1096  0.2217 -0.1092
11580W        W27049  13.780   2.315  12.363  0.3181  0.0733  0.2169
11581W        W27050  14.434   3.092   2.800  0.3624 -0.2396 -0.0827
11582W        W27051  11.932   9.486   3.227 -0.3449 -0.0543  0.0517
11583W        W27052  16.829  17.493   3.507 -0.0390 -0.1301 -0.0324
11584W        W27053  15.099   1.940  14.847 -0.1307 -0.1498  0.2604
11585W        W27054   2.854   5.355   2.506  0.5419 -0.1406 -0.2527
11586W        W27055   1.218  10.747  12.581  0.0704  0.1005 -0.0570
11587W        W27056  12.139   3.728  14.372  0.0020 -0.1936 -0.2440
11588W        W27057  15.429  14.987  12.162  0.2319  0.2203  0.1229
11589W        W27058  16.902  14.806   3.724  0.1092  0.1137 -0.1288
11590W        W27059   7.125   5.425   3.144 -0.0357 -0.3289 -0.3196
11591W        W27060  12.009  10.700  13.643  0.4366  0.1758 -0.2083
11592W        W27061  14.225  17.157   0.629 -0.0170 -0.0217  0.1292
11593W        W27062   1.370  16.433  11.280 -0.2622 -0.0783 -0.1199
11594W        W27063   1.400  10.598  14.650 -0.2664  0.1082 -0.1163
11595W        W27064   2.707  11.844   1.371 -0.2531 -0.1619 -0.1226
11596W        W27065  18.039  15.839   0.688  0.1078 -0.0181  0.1634
11597W        W27066   4.379   3.924   3.327 -0.0897 -0.1114  0.0950
11598W        W27067   8.034  17.990   3.751 -0.3305 -0.0548  0.3775
11599W        W27068  14.370  16.559   0.351  0.2200 -0.1731 -0.1247
11600W        W27069   6.367  13.401  14.978 -0.1628  0.0641  0.1128
11601W        W27070   8.385  10.654  14.372  0.1817 -0.0819  0.2718
11602W        W27071  18.175  13.821   4.231 -0.0609  0.0805 -0.1721
11603W        W27072   4.861   5.199  13.384  0.2011  0.2016  0.3217
11604W        W27073   4.218  12.118  13.292 -0.1141  0.0873 -0.0971
11605W        W27074  12.048  11.394   3.555 -0.4233 -0.0291  0.0942
11606W        W27075   5.014   7.278   0.552 -0.0997  0.1120 -0.0348
11607W        W27076   0.142  14.020  14.723 -0.1495 -0.0768 -0.0017
11608W        W27077  13.954  14.584   2.354  0.0107  0.2176  0.0837
11609W        W27078  18.161  16.238  15.317 -0.1359 -0.2080 -0.0313
11610W        W27079  10.204   8.838   1.529  0.0135  0.1014 -0.0517
11611W        W27080   8.792  13.871   2.783 -0.3034  0.0320  0.0818
11612W        W27081   3.987   6.507  15.064 -0.3511  0.2426  0.0793
11613W        W27082  13.442   1.955   1.626 -0.1467  0.2485 -0.2040
11614W        W27083  17.507  10.944  14.364  0.1363 -0.0946 -0.0250
11615W        W27084  15.372   7.249   3.069  0.0496 -0.0027 -0.0517
11616W        W27085  11.213   8.550   5.707 -0.1201 -0.0879 -0.4495
11617W        W27086   1.563  10.285  10.311  0.0765  0.0932  0.2922
11618W        W27087  17.984  17.484   3.065  0.5088 -0.1990  0.1144
11619W        W27088   2.007  16.115   2.649  0.1840  0.2145 -0.2923
11620W        W27089  13.257  13.917   0.426  0.1843 -0.0254  0.0496
11621W        W27090  15.928  10.126   2.939 -0.2757 -0.0677  0.1835
11622W        W27091   0.827   5.586   2.217  0.1189 -0.0759 -0.3735
11623W        W27092   8.434   9.310   2.414 -0.3546  0.1290 -0.0938
11624W        W27093   5.773  12.911  15.308  0.0783  0.0320 -0.2844
11625W        W27094   5.090   5.702   2.482  0.2919 -0.1833 -0.0188
11626W        W27095   3.927   3.204  12.091  0.2101 -0.0123  0.1776
11627W        W27096   4.664   0.775   2.607 -0.3909 -0.2345  0.0460
11628W        W27097   2.487   0.907   1.664  0.0180  0.1354 -0.0564
11629W        W27098   7.019  17.568  12.215  0.0307 -0.0143  0.0049
11630W        W27099   7.240  12.667  15.354 -0.2597  0.2409  0.4207
11631W        W27100   4.298   3.739   0.420 -0.2505  0.0016 -0.3867
11632W        W27101  12.919  17.285   3.763 -0.1750 -0.1943 -0.0318
11633W        W27102   8.489   5.877  12.728 -0.0706 -0.1904 -0.0384
11634W        W27103  14.146  18.422  13.362  0.1629  0.0530  0.2433
11635W        W27104  13.854  10.978   9.523 -0.0977 -0.1548 -0.2613
11636W        W27105  12.942   9.766   0.828  0.0744  0.1533  0.1611
11637W        W27106   2.446   9.652  10.014  0.2400  0.1101 -0.0649
11638W        W27107   2.712  18.489   2.509  0.0538  0.0025  0.0726
11639W        W27108  17.916  18.442  14.420 -0.0363 -0.0744  0.2000
11640W        W27109   8.507  13.981   4.211 -0.2014 -0.1544  0.1714
11641W        W27110   4.291   4.803   1.961  0.0985 -0.2105  0.1566
11642W        W27111   1.988   3.525  13.882  0.3105 -0.0817  0.0582
11643W        W27112   6.808   9.428  13.144 -0.0241  0.1906  0.0164
11644W        W27113   9.391   3.271   1.912  0.2343 -0.3792 -0.0254
11645W        W27114   8.403   5.489   3.221 -0.0885 -0.1525  0.0917
11646W        W27115  11.988   3.556  15.163  0.1576  0.2174  0.2741
11647W        W27116  12.280   6.274  13.974  0.3098 -0.3395  0.1492
11648W        W27117   7.268  18.183  10.543  0.0545 -0.0865  0.0295
11649W        W27118  11.508  12.916   3.046  0.3721 -0.1067  0.0486
11650W        W27119   7.256  17.830  11.134 -0.0816 -0.1395 -0.0625
11651W        W27120   8.218   1.128  15.318 -0.2203  0.1736  0.5436
11652W        W27121  10.624  12.561   4.518  0.0224  0.0541  0.1957
11653W        W27122  12.904   4.603   3.559 -0.2556  0.2345  0.1104
11654W        W27123  10.234   8.894   4.937 -0.0011 -0.1366  0.1289
11655W        W27124   5.446   5.830   0.668  0.2490  0.3962  0.0437
11656W        W27125  12.845   3.853   3.679  0.1237  0.2519  0.2757
11657W        W27126  18.107  18.236  13.056 -0.0957 -0.0810 -0.0824
11658W        W27127  13.746   8.053  15.451 -0.1945 -0.1846  0.1207
11659W        W27128  11.488   7.280   4.355 -0.3139 -0.1645  0.2707
11660W        W27129   3.621  17.163  11.394 -0.0303 -0.2676  0.4959
11661W        W27130   9.395  12.115  12.677 -0.1730  0.0319  0.1902
11662W        W27131  10.782   8.566  12.785  0.0208  0.2650  0.1375
11663W        W27132  15.900   2.688  10.661  0.0149 -0.1563  0.0285
11664W        W27133   8.941  12.551  12.104 -0.0437 -0.0522 -0.0687
11665W        W27134  14.523  13.003   0.593  0.2416  0.3079  0.4132
11666W        W27135   6.931  11.538  12.821  0.3294  0.1505 -0.1519
11667W        W27136  13.107  15.789   0.475 -0.3392  0.3667 -0.1330
11668W        W27137   6.752   7.850   4.018  0.1634  0.6185  0.1245
11669W        W27138   9.482   6.576   2.243 -0.0439  0.3632  0.0240
11670W        W27139  15.162   5.316   0.255 -0.0834 -0.3082 -0.2860
11671W        W27140   8.502   9.443   4.394  0.1848 -0.1886  0.1545
11672W        W27141   4.044   1.277   2.648 -0.0364  0.2049 -0.1390
11673W        W27142   8.081  12.039   2.337  0.1514 -0.0846 -0.1511
11674W        W27143   5.683  14.016   3.880  0.0651 -0.3449 -0.2318
11675W        W27144   7.720  13.114  14.216  0.0032 -0.1929  0.0508
11676W        W27145  18.277   4.025  14.293 -0.0899 -0.0137 -0.0074
11677W        W27146  14.010   4.155   3.780 -0.1907 -0.1021  0.1742
11678W        W27147  17.716   1.744   4.634  0.0869  0.1265 -0.1097
11679W        W27148  11.958   0.087   0.108 -0.0643 -0.0420  0.0648
11680W        W27149  17.070   2.461   2.523 -0.0259  0.1848  0.2927
11681W        W27150   6.970  11.830   1.702  0.0320  0.2393  0.0325
11682W        W27151   8.262   3.706   3.608 -0.0830  0.0854 -0.2912
11683W        W27152  12.639   7.830   0.841  0.0850  0.2672 -0.4431
11684W        W27153   6.520  14.350   1.565  0.0667 -0.0249  0.1530
11685W        W27154  13.842   2.362   1.604  0.0730  0.0476  0.3458
11686W        W27155  17.138   4.513   0.730  0.2041 -0.2102 -0.2783
11687W        W27156  13.928  16.435   3.240 -0.2836  0.2677  0.3363
11688W        W27157  16.391  17.217   3.633 -0.3249  0.0387  0.0648
11689W        W27158   0.863   1.118  14.163 -0.0767  0.2285  0.0719
11690W        W27159  11.368   8.884   5.442 -0.1506  0.1937  0.0890
11691W        W27160  16.394   4.353   2.158 -0.1003  0.2083  0.0575
11692W        W27161  11.088   7.267   3.977 -0.1602  0.1204 -0.0503
11693W        W27162  11.864  17.630   5.073 -0.0600  0.0890 -0.1293
11694W        W27163   5.267  12.174  14.149 -0.0379  0.0037 -0.0434
11695W        W27164   0.536  16.595   1.026 -0.1664  0.3008 -0.2329
11696W        W27165   8.089   4.250   3.039 -0.2955 -0.0641 -0.0273
11697W        W27166   8.964  15.799   5.109 -0.1541  0.0345  0.3765
11698W        W27167  16.171   5.466   0.366  0.1341  0.0738  0.0907
11699W        W27168   7.688  17.501  11.522  0.0113  0.0400 -0.2488
11700W        W27169  11.906  14.805  15.270 -0.0406 -0.0403 -0.0604
11701W        W27170   9.100  17.890  15.744  0.0145 -0.1022  0.0946
11702W        W27171   5.468   8.199  10.567 -0.1647 -0.0119 -0.1420
11703W        W27172  14.222  18.109  12.324 -0.0231 -0.0276 -0.0954
11704W        W27173  12.266  15.448   2.315  0.0093  0.2116  0.2642
11705W        W27174   7.050  18.401  14.885 -0.0673 -0.2508 -0.3005
11706W        W27175  15.857   9.657  12.241  0.2109  0.2418  0.2306
11707W        W27176   7.794  13.204   0.880  0.0608 -0.3049 -0.0229
11708W        W27177   1.531  14.916  11.930 -0.2271 -0.1430 -0.0215
11709W        W27178   1.031  14.494  11.563 -0.0959  0.2754 -0.2315
11710W        W27179  14.507   8.249   5.407  0.1999 -0.3477 -0.6020
11711W        W27180   0.188   9.641  13.096 -0.1159  0.2846  0.4631
11712W        W27181  11.359  11.262  13.251 -0.0811 -0.1669 -0.2399
11713W        W27182  16.131  13.993   3.897 -0.1375  0.2378  0.2303
11714W        W27183   3.984   6.488  10.416 -0.1258  0.3977  0.2664
11715W        W27184   3.119   5.856   9.886 -0.0143 -0.0303 -0.0932
11716W        W27185  18.062   4.069   3.627 -0.0025 -0.0502  0.2913
11717W        W27186   5.785  16.450   0.617 -0.0315  0.0613  0.0911
11718W        W27187  15.856   9.677   0.972  0.1065  0.0924 -0.0982
11719W        W27188  11.366   2.549   4.153  0.1672 -0.2415 -0.0569
11720W        W27189   0.221   5.081  10.998 -0.3489 -0.0801 -0.1503
11721W        W27190  13.046  18.439   1.782 -0.2160 -0.3718 -0.3571
11722W        W27191  14.784  10.714  13.025 -0.1170  0.1456  0.1977
11723W        W27192  16.117   1.797  13.849 -0.0600  0.0390 -0.2849
11724W        W27193  16.662  11.746   0.866  0.1755  0.3380  0.1878
11725W        W27194   4.296   4.555  12.411  0.2470  0.0062  0.1495
11726W        W27195   7.714   2.621   1.844  0.2541  0.1473 -0.1219
11727W        W27196   1.114   7.794   0.713 -0.0338  0.3403  0.1502
11728W        W27197   5.133  18.578   3.980 -0.1125  0.0473  0.0817
11729W        W27198  18.497   4.520  12.259 -0.1357  0.0240  0.2429
11730W        W27199   7.709  11.821  12.585  0.0715 -0.1761  0.2307
11731W        W27200   7.520   8.807  13.574 -0.0693  0.0112  0.0891
11732W        W27201  18.445   6.784  15.488  0.4121 -0.0947  0.3364
11733W        W27202   5.527   0.312   4.008  0.1716  0.1900 -0.1779
11734W        W27203   6.583  10.942   1.565  0.1591  0.1115 -0.0565
11735W        W27204   1.904  11.480  13.875 -0.1753  0.0589  0.3322
11736W        W27205   0.898   3.501   0.437  0.2936 -0.3319  0.1152
11737W        W27206  12.541   0.905   5.965  0.0803  0.1889  0.1590
11738W        W27207  12.206   6.181   0.705  0.2374 -0.0336  0.1991
11739W        W27208   3.578   4.744  15.566 -0.0465 -0.0883 -0.1061
11740W        W27209   0.380  10.787   2.661 -0.5117  0.0714 -0.0286
11741W        W27210   1.288  12.425  11.118  0.1052 -0.1624  0.0877
11742W        W27211  10.302   3.229   0.287  0.1451 -0.1399 -0.0368
11743W        W27212   4.066  15.041  11.230 -0.0602 -0.0492 -0.1299
11744W        W27213   8.403  10.051  11.939  0.2745  0.2590 -0.0308
11745W        W27214   8.188   0.961   0.476 -0.0128  0.1475 -0.1128
11746W        W27215   0.245   4.507   0.215 -0.1032  0.0698  0.0216
11747W        W27216  11.806   1.669  10.770 -0.0162 -0.0742 -0.3096
11748W        W27217   7.544  11.512  10.550  0.0469  0.0625 -0.0889
11749W        W27218  18.386   1.662   2.996  0.1080 -0.0900 -0.0681
11750W        W27219  10.558  16.929  13.294  0.3164 -0.2303 -0.1359
11751W        W27220  15.069  10.285  12.288 -0.0915  0.1897 -0.3055
11752W        W27221   9.506  16.526  11.281  0.2833 -0.0258  0.0813
11753W        W27222   6.509  11.397  11.987 -0.0490  0.0778  0.2673
11754W        W27223   7.874   4.340   0.460 -0.1437  0.0304 -0.0347
11755W        W27224  13.756   4.633  10.754 -0.2392  0.1238  0.1070
11756W        W27225  13.749   5.332   1.385  0.0613 -0.1313 -0.2173
11757W        W27226  15.483   5.939   4.522 -0.1094 -0.0071 -0.2129
11758W        W27227   3.373   2.199  13.651 -0.1595  0.1134 -0.3072
11759W        W27228   5.208   0.342  12.448  0.0395  0.2992  0.0320
11760W        W27229   2.814   4.629   1.819  0.1522  0.1480 -0.2048
11761W        W27230  12.217  17.764   1.982  0.0295  0.1440  0.1000
11762W        W27231   2.435   8.430   4.213 -0.1834  0.0305 -0.1909
11763W        W27232   7.634   6.993   5.524 -0.0308 -0.2270 -0.2390
11764W        W27233   2.221  16.946  13.910 -0.0673 -0.2187  0.0205
11765W        W27234   0.097   4.592   3.105 -0.1003 -0.2070  0.3505
11766W        W27235  13.794  12.899  14.299 -0.1346  0.0094  0.0803
11767W        W27236   9.048  17.526   1.538  0.1573  0.1826 -0.0823
11768W        W27237   2.020  12.927  14.028  0.0651  0.0342 -0.1935
11769W        W27238   0.548   4.497  10.304 -0.0243 -0.2162  0.3266
11770W        W27239   3.891   7.273  10.880  0.0263 -0.0504  0.0642
11771W        W27240  12.330  16.113  12.250  0.2570  0.3317  0.3119
11772W        W27241   2.388  17.829   4.104 -0.3785  0.0039 -0.0159
11773W        W27242  12.545   3.452   3.884  0.1120 -0.1081  0.2560
11774W        W27243   6.079   1.136   5.944 -0.1695 -0.1006  0.0941
11775W        W27244   1.816  10.761   2.631  0.1381  0.0237  0.2122
11776W        W27245   6.914   6.225  10.206 -0.0709  0.1361 -0.0199
11777W        W27246  11.587  17.065  12.081 -0.1306 -0.2876 -0.0130
11778W        W27247  18.108   0.120   2.394 -0.1239 -0.1991 -0.0412
11779W        W27248   9.804  15.211   0.695  0.0466  0.0183  0.0863
11780W        W27249  15.674   9.775  14.304  0.0812 -0.3517 -0.2060
11781W        W27250  10.655  16.244   0.724  0.2232  0.0441 -0.0382
11782W        W27251   2.766  13.193   0.182 -0.0250 -0.0452 -0.5064
11783W        W27252  10.017  15.896  15.255  0.0483  0.0646 -0.1109
11784W        W27253   6.545  15.626   1.026  0.1042  0.2657  0.1200
11785W        W27254   6.718  11.711   3.832 -0.0642 -0.0490 -0.0932
11786W        W27255   2.224  16.379  14.589 -0.1539 -0.2340 -0.1961
11787W        W27256   6.635   2.535   4.697 -0.2280  0.0005 -0.2480
11788W        W27257   5.613  14.714   5.500  0.0236 -0.0637  0.3556
11789W        W27258   5.619   5.775  15.002 -0.3745  0.0564 -0.0287
11790W        W27259   5.670   5.634   6.138  0.1674  0.0241  0.2554
11791W        W27260   9.896   6.191  12.326 -0.1009  0.0957 -0.0006
11792W        W27261   6.851   2.980  11.036  0.0346 -0.2671  0.0769
11793W        W27262   0.406   8.547  15.598 -0.0905 -0.0140  0.0282
11794W        W27263  14.592   1.953   4.977 -0.0526  0.2064  0.0142
11795W        W27264   6.797  13.072  10.947  0.2632  0.0650 -0.0488
11796W        W27265  12.443  13.864  12.394 -0.2371 -0.0614  0.0642
11797W        W27266   4.040   9.926  10.785 -0.1047  0.0420 -0.0564
11798W        W27267  11.029   8.530   3.178  0.1577  0.1349  0.0008
11799W        W27268   7.408  12.755   9.912 -0.0555 -0.0912  0.1185
11800W        W27269   3.912   8.462  12.083  0.0430 -0.2780 -0.1658
11801W        W27270  11.601   8.104  13.830  0.2299 -0.0807  0.1239
11802W        W27271   7.438   0.708   4.622  0.2708 -0.0587  0.1426
11803W        W27272  14.202  16.454   0.884  0.0509 -0.0873 -0.0502
11804W        W27273  13.089   7.928  11.885  0.0248 -0.2016 -0.3571
11805W        W27274  12.203   0.436   1.452  0.1297  0.0606 -0.0094
11806W        W27275   6.620   4.574   4.731  0.0830  0.0283  0.2493
11807W        W27276   5.543  10.215  15.178 -0.3101 -0.1595 -0.0301
11808W        W27277   4.904  16.654   2.794  0.2218  0.0070  0.1148
11809W        W27278  10.900  16.735  10.582 -0.2675  0.2343  0.1088
11810W        W27279   1.411  10.982   3.546  0.2088  0.3160 -0.0024
11811W        W27280   1.596   7.811  13.422 -0.0654  0.0842  0.2068
11812W        W27281   1.917  17.633  11.112  0.1468  0.0778  0.3786
11813W        W27282  16.273  16.366   1.713  0.2773 -0.2705  0.0920
11814W        W27283  15.287  18.532   2.155 -0.2417  0.4488 -0.0834
11815W        W27284  14.129   6.963   9.334 -0.0698 -0.2535 -0.2486
11816W        W27285   2.678  16.875  10.860  0.1120 -0.0548 -0.0667
11817W        W27286   4.714   4.502   4.862 -0.0601  0.0717  0.1235
11818W        W27287  16.134   9.507   3.905 -0.1960  0.1691  0.2462
11819W        W27288   2.236  10.461  14.273 -0.2092  0.1184  0.2576
11820W        W27289   4.423  13.024  13.409  0.2672  0.0548  0.0103
11821W        W27290  14.902  17.797  12.295 -0.0074 -0.2286 -0.0527
11822W        W27291  18.319  11.191  15.225 -0.1400  0.1219 -0.0746
11823W        W27292   4.327   7.063  14.229  0.1547 -0.2340 -0.0179
11824W        W27293   4.891   6.555  13.237  0.0211 -0.0599  0.3482
11825W        W27294  10.228   1.597   3.150  0.3070  0.0121 -0.2671
11826W        W27295   5.789   4.318   0.876  0.0105  0.2206 -0.1198
11827W        W27296  17.662  15.408   3.176 -0.1330  0.1691  0.1992
11828W        W27297   9.620  15.709  13.474  0.0743 -0.0398  0.0677
11829W        W27298   1.309   3.747  10.553  0.0104  0.0638 -0.3431
11830W        W27299  11.998   2.290  12.881 -0.3827  0.1484 -0.1289
11831W        W27300   0.173   8.377   2.484  0.0600 -0.1127 -0.1126
11832W        W27301  15.574  10.050  10.905  0.0656  0.1343 -0.2818
11833W        W27302   9.745   4.422  14.864  0.1651  0.0842  0.1288
11834W        W27303  17.417   7.678   3.160 -0.2053  0.0746 -0.3024
11835W        W27304  11.484   0.792   2.860 -0.0064 -0.2817 -0.2081
11836W        W27305   8.202   0.500  14.102  0.3342 -0.2699  0.4155
11837W        W27306  13.846  15.667  13.478  0.1724  0.0566  0.3131
11838W        W27307   7.773   2.018  15.123  0.0604  0.0334 -0.2533
11839W        W27308   5.539  10.062   3.176 -0.0424 -0.1441  0.0646
11840W        W27309  15.281   3.313  14.912  0.2453 -0.1113  0.3328
11841W        W27310   9.625   9.017  11.906 -0.1480 -0.2786 -0.2271
11842W        W27311   4.034   9.001   0.469 -0.0680 -0.0555  0.1128
11843W        W27312   6.731  11.885  10.399  0.2373  0.3250  0.0977
11844W        W27313  11.177  16.274  13.214 -0.1873 -0.1158 -0.1597
11845W        W27314  16.925   0.046  11.573 -0.1780  0.1861 -0.2355
11846W        W27315   8.300   0.823  11.834  0.1994 -0.2872 -0.1859
11847W        W27316   6.430   5.607   0.346  0.3401 -0.0966  0.0350
11848W        W27317   2.988  12.561   1.281  0.2820 -0.1453 -0.0349
11849W        W27318   1.972   8.853   4.234  0.1636 -0.1271  0.0069
11850W        W27319  10.406   3.928  12.575  0.0966 -0.0869 -0.1330
11851W        W27320   6.903  18.129  11.419 -0.0753  0.0150  0.0303
11852W        W27321  18.093   8.826  11.553  0.1670 -0.2360  0.1248
11853W        W27322   4.546   3.747  12.607 -0.1395  0.2729 -0.1063
11854W        W27323  17.238  14.307  12.656  0.0299  0.1574  0.0390
11855W        W27324   1.821   8.382   0.362 -0.2387  0.1453  0.0931
11856W        W27325   8.102   6.155  15.041  0.2099  0.2690  0.1270
11857W        W27326   7.263   1.849  15.570 -0.1362 -0.1949  0.1085
11858W        W27327  17.584   3.956  11.780 -0.3679 -0.1868 -0.2798
11859W        W27328   6.756   7.196   0.899  0.0816  0.2192 -0.3346
11860W        W27329  11.024   5.642  15.544 -0.1520 -0.0607  0.2611
11861W        W27330   0.061   3.819  14.247  0.2309  0.0423  0.1386
11862W        W27331  12.451   8.265  12.461  0.3308 -0.0623  0.0546
11863W        W27332  16.235  16.912   2.381 -0.0691 -0.2232  0.2116
11864W        W27333  17.601   9.699  10.866 -0.1395  0.0105  0.0505
11865W        W27334   8.936  10.095  14.467 -0.1683  0.0174  0.1322
11866W        W27335   4.386   1.770  12.400 -0.1668 -0.0795  0.1673
11867W        W27336   1.793   2.985  13.589 -0.1417 -0.2680 -0.3684
11868W        W27337   5.180   2.098   3.227  0.0296  0.0221  0.1875
11869W        W27338  17.998   0.759   1.124  0.2906 -0.2419 -0.2413
11870W        W27339  15.580   2.041  12.446  0.5301  0.0923 -0.1273
11871W        W27340  11.538   2.911  15.309  0.1651 -0.0475 -0.0719
11872W        W27341   5.444   4.566   2.570 -0.1414 -0.1814 -0.1178
11873W        W27342   2.810  14.009   2.734  0.0802 -0.1486  0.0009
11874W        W27343  13.735  17.192   2.817  0.3802 -0.0631 -0.1739
11875W        W27344   8.321  16.961   9.942  0.2061 -0.0869  0.0195
11876W        W27345   9.219  16.677  14.080  0.1130 -0.2701  0.1092
11877W        W27346  14.876   1.506   3.487 -0.1161  0.0458  0.2996
11878W        W27347   8.868   5.743   0.493 -0.0914  0.2872  0.3941
11879W        W27348  11.521   5.485  13.026  0.0571 -0.1450  0.2042
11880W        W27349   1.628   2.130  13.016 -0.1660  0.0104  0.1034
11881W        W27350  16.018   0.738  12.095  0.1450  0.1484  0.0804
11882W        W27351  16.252  17.337   1.309 -0.1564  0.0243 -0.2954
11883W        W27352   1.730  14.437   4.295 -0.1219  0.2168 -0.3293
11884W        W27353   7.624   4.561  11.527  0.3356 -0.1326  0.1374
11885W        W27354  14.393  16.555   2.517 -0.2147 -0.1142 -0.1189
11886W        W27355  13.949  12.830  13.279 -0.0406 -0.6009 -0.0286
11887W        W27356   3.769   4.152   0.568 -0.1827 -0.0269 -0.3894
11888W        W27357   2.121   7.552   0.819 -0.2664 -0.3573  0.1278
11889W        W27358   5.305   6.063  12.527  0.2111  0.0066  0.1370
11890W        W27359  14.128  14.838  12.728  0.1694  0.1278  0.1221
11891W        W27360   1.906   5.416   0.024  0.1145  0.1898 -0.0408
11892W        W27361  17.163   0.413  15.652  0.3295  0.1311 -0.4182
11893W        W27362  12.953  12.061   3.416  0.3108 -0.2521  0.0225
11894W        W27363  13.348   8.056  15.134  0.3740  0.0885  0.2004
11895W        W27364  18.173   7.953   2.758  0.0702  0.2519 -0.0853
11896W        W27365   6.719  11.437   0.414 -0.2504 -0.0914  0.0002
11897W        W27366   0.567  13.773  11.742 -0.1319 -0.2371 -0.1760
11898W        W27367   5.137   3.892  13.772 -0.0421  0.1480  0.0267
11899W        W27368   0.382   2.519  11.304  0.1859  0.0589 -0.0972
11900W        W27369   7.266   2.884   1.759 -0.0537 -0.2282  0.1888
11901W        W27370  13.638  14.264   0.392  0.0610 -0.1545  0.2395
11902W        W27371  17.321   9.346   1.108 -0.0147 -0.2413  0.0905
11903W        W27372   9.623   4.827  12.145  0.1412 -0.1902 -0.2147
11904W        W27373  15.617  14.725  13.324 -0.0116  0.0654  0.1256
11905W        W27374  15.694   6.550  14.085 -0.0588  0.0190 -0.2331
11906W        W27375   4.107   6.074   0.592 -0.2530 -0.1056 -0.0038
11907W        W27376   2.198  16.890  14.453  0.2159  0.0539  0.0566
11908W        W27377   4.794   4.237  11.462 -0.0944  0.2189 -0.1205
11909W        W27378   5.076   0.395  11.522  0.0575  0.1979  0.2282
11910W        W27379   4.929  12.764  14.996  0.4222  0.1285 -0.2172
11911W        W27380   6.442  17.572   4.877  0.2336 -0.1832 -0.4638
11912W        W27381   0.966   1.196   0.692  0.3679 -0.3068 -0.3560
11913W        W27382  16.369   4.645   0.309  0.2634  0.1904 -0.0382
11914W        W27383  13.954   5.010   2.174 -0.3189  0.0550  0.2132
11915W        W27384  11.627   1.214   3.221 -0.0828 -0.0036  0.1250
11916W        W27385   9.853  12.075  15.675 -0.1500  0.0067 -0.2556
11917W        W27386  16.658   6.000  15.609  0.3287  0.0661 -0.1021
11918W        W27387   7.127   4.724  14.459 -0.0641 -0.3321 -0.1448
11919W        W27388  11.520   8.857  14.430  0.0316 -0.0410  0.0106
11920W        W27389  17.678   1.088  13.355  0.1722 -0.0841 -0.3626
11921W        W27390  16.916   9.948   9.435  0.0350  0.2776  0.0380
11922W        W27391   1.440  13.387  14.856  0.1607  0.1462 -0.0944
11923W        W27392   8.292   9.594  13.374 -0.0099 -0.0046 -0.1159
11924W        W27393   6.200   8.782  11.925 -0.1426 -0.1727  0.0827
11925W        W27394   3.862   7.413  13.579 -0.1721 -0.0466  0.0846
11926W        W27395   1.173   5.211   3.704 -0.1375 -0.3116 -0.1410
11927W        W27396   3.063   9.561   9.996 -0.1653  0.3642 -0.2858
11928W        W27397  10.493   7.918   4.798  0.2364  0.2380  0.0039
11929W        W27398   0.276   7.158  11.620  0.0265  0.0479 -0.0888
11930W        W27399   3.673  10.137   0.652 -0.1552  0.2870 -0.5188
11931W        W27400   1.362   1.789  15.089 -0.1594 -0.2118  0.3141
11932W        W27401  13.810   7.084   0.789  0.0826 -0.1488  0.0574
11933W        W27402  10.259  12.533  11.063 -0.1160 -0.0547  0.1110
11934W        W27403   0.012  11.815  10.955 -0.1271  0.3789 -0.1524
11935W        W27404   3.671  10.372   2.227 -0.2338  0.2672  0.0987
11936W        W27405   5.444   6.762  13.310  0.3025  0.0255  0.4584
11937W        W27406  17.504  10.309   2.704  0.2582  0.1342  0.3168
11938W        W27407  14.013   6.392  14.107 -0.1609  0.0031  0.0387
11939W        W27408   3.988   9.696  14.733 -0.0170  0.1294  0.1152
11940W        W27409  17.716   1.648   5.522 -0.0345 -0.0727  0.1716
11941W        W27410  16.576   9.550  14.346 -0.0407 -0.0632  0.0254
11942W        W27411   7.649   3.915   5.852 -0.2400  0.1779  0.1640
11943W        W27412  11.651  18.596  14.126  0.0747 -0.1357 -0.1150
11944W        W27413  18.117   1.600  14.549 -0.0608 -0.4000  0.3868
11945W        W27414   4.799   1.820   2.963 -0.4025 -0.0821  0.0459
11946W        W27415  11.199  15.581   0.581 -0.0428  0.0732  0.0803
11947W        W27416  17.297   4.405  11.704  0.2040 -0.1907  0.1463
11948W        W27417  10.895  12.171  14.315  0.4059 -0.0367  0.0789
11949W        W27418   9.244  10.676  15.650  0.1772 -0.1553  0.0393
11950W        W27419   3.588  15.953   0.283  0.1672  0.0680  0.2137
11951W        W27420  18.306   7.911   1.266 -0.2306  0.3830 -0.2132
11952W        W27421  13.274   2.789  15.515 -0.3971 -0.1123 -0.0290
11953W        W27422   6.666  10.313   2.628 -0.0477 -0.2463 -0.2953
11954W        W27423  14.911  17.929  10.204 -0.3092  0.1537  0.1209
11955W        W27424  13.388  10.888  15.758 -0.1253 -0.1660 -0.0180
11956W        W27425   9.866  10.263  10.498  0.2472 -0.1220 -0.0420
11957W        W27426   6.200   8.004   4.882  0.5771  0.1429  0.2892
11958W        W27427  10.499   5.211  11.330 -0.0144 -0.2379 -0.3849
11959W        W27428   2.650  16.085  14.339 -0.3713  0.1912 -0.1179
11960W        W27429   8.788  12.948   5.454  0.1343  0.0692  0.0402
11961W        W27430   8.360  13.144   1.084  0.0112 -0.1564 -0.1321
11962W        W27431   8.302   9.520   1.630  0.0478 -0.2626  0.2852
11963W        W27432   8.625   5.734   4.691  0.2673  0.0212  0.0822
11964W        W27433  10.152  13.209   4.091 -0.1391  0.1666  0.0366
11965W        W27434   1.163  13.136   4.148  0.1024 -0.2007 -0.0814
11966W        W27435   5.799   7.008  14.975 -0.0505  0.0307 -0.0497
11967W        W27436  10.402   5.235   5.879  0.0059  0.1534  0.0710
11968W        W27437  17.066   1.822  12.586 -0.1234  0.0589  0.0325
11969W        W27438  10.360  17.277   1.229 -0.0347 -0.1839 -0.0875
11970W        W27439   1.372   3.355   2.209  0.1755 -0.0435  0.0909
11971W        W27440   8.461  16.404   2.100  0.1343 -0.1147 -0.2234
11972W        W27441   7.002   5.132   1.815  0.1680 -0.0108  0.0283
11973W        W27442   7.779   6.996  11.187  0.0956 -0.1431  0.0417
11974W        W27443   7.551  18.070   3.794 -0.4684  0.1848 -0.3524
11975W        W27444   0.936  17.115  13.409 -0.1596  0.3832  0.3016
11976W        W27445   2.048  10.112  13.891 -0.1080 -0.1381  0.0780
11977W        W27446  15.233  16.689  12.206 -0.4117  0.0207 -0.0068
11978W        W27447  14.070   9.514   4.508  0.1060  0.0645  0.0928
11979W        W27448  16.553  12.967   1.428  0.1352  0.1204  0.0556
11980W        W27449  14.357  13.298   4.236 -0.2884  0.1952  0.3286
11981W        W27450  12.496  16.306   2.489  0.0323 -0.1315  0.4014
11982W        W27451  16.438  11.612  14.861 -0.0814 -0.2270  0.0376
11983W        W27452  17.088   0.912  14.240 -0.0230 -0.0133  0.1563
11984W        W27453   1.366  14.455  12.045 -0.1846 -0.2873 -0.2134
11985W        W27454   1.443   1.510  13.575 -0.0105 -0.0631 -0.4844
11986W        W27455   1.045   0.837  15.213 -0.0104 -0.0554  0.3857
11987W        W27456  17.282   6.874   0.478 -0.0380  0.1065 -0.0653
11988W        W27457   8.223  15.771  15.388  0.0572  0.0259 -0.3090
11989W        W27458   1.413   5.793  13.642  0.2221  0.2117 -0.1800
11990W        W27459   4.272   1.460   1.956 -0.2026 -0.0248  0.2348
11991W        W27460   5.253   1.821   2.781 -0.0905  0.2760  0.1007
11992W        W27461   3.876   1.359   2.199 -0.1204 -0.3104  0.2268
11993W        W27462   7.310  18.467   0.496 -0.3136 -0.0543 -0.3548
11994W        W27463   8.426   7.847   5.459 -0.3605  0.1698 -0.1477
11995W        W27464  18.173  18.279   5.452 -0.3185  0.0443 -0.2814
11996W        W27465   9.551   6.038   1.067 -0.0861  0.2122 -0.1164
11997W        W27466  16.045   6.294   2.374 -0.3126 -0.0679 -0.3041
11998W        W27467  16.850  12.403  11.088 -0.1001 -0.1732 -0.1366
11999W        W27468  15.826   1.011  14.917 -0.1717 -0.0436 -0.4039
12000W        W27469   6.001  14.923  15.078  0.2021 -0.0993  0.0396
12001W        W27470   1.547  13.912  11.030 -0.1363  0.2022  0.0814
12002W        W27471  12.195   3.316   1.149  0.1261 -0.0607 -0.1892
12003W        W27472   7.783   6.079  11.385  0.3165  0.2317  0.3610
12004W        W27473   8.783   7.006   0.440 -0.2005  0.1126  0.3382
12005W        W27474  16.857   8.614  13.025 -0.1415  0.1424 -0.1143
12006W        W27475   8.041   6.776   2.029 -0.0087  0.1312 -0.1152
12007W        W27476   0.127  13.864   4.319  0.0163  0.0828 -0.0604
12008W        W27477   0.621  12.507  10.756  0.4461  0.3438 -0.0388
12009W        W27478   9.736  10.278  14.090  0.0420 -0.1041 -0.1587
12010W        W27479  10.860  13.377  15.036 -0.1935  0.1658 -0.2232
12011W        W27480  13.948   4.887   1.706  0.2157 -0.0054 -0.3590
12012W        W27481   2.493   5.688  13.804 -0.1082  0.0347 -0.1209
12013W        W27482  13.545  12.451   4.906  0.1166 -0.2068  0.0431
12014W        W27483   9.776   3.237  12.973 -0.1538  0.0593 -0.2238
12015W        W27484  12.491   4.906  15.630  0.1238 -0.1500  0.0036
12016W        W27485   1.837  12.508  14.830  0.2787  0.0947 -0.0166
12017W        W27486  16.486   8.879  12.955 -0.0373 -0.1317  0.0180
12018W        W27487   8.561   9.612  10.864 -0.2894 -0.0052  0.2897
12019W        W27488   6.890  10.400   0.568  0.0963 -0.2062 -0.0135
12020W        W27489   7.273  15.231  11.523  0.1665  0.1290  0.0337
12021W        W27490   3.109   4.217   3.211  0.3537 -0.1183 -0.1010
12022W        W27491  15.196   8.135  14.383 -0.0811 -0.1724 -0.2200
12023W        W27492  10.410   0.990  12.939 -0.3922 -0.3139 -0.0669
12024W        W27493   0.664  14.994   4.326  0.0397 -0.0854  0.2021
12025W        W27494   1.114  12.589   2.940 -0.1797 -0.1145  0.2730
12026W        W27495  16.305  17.870   0.406 -0.2441 -0.2630  0.1450
12027W        W27496   3.339   8.138   1.527 -0.1159  0.0880 -0.0010
12028W        W27497  13.672   4.389   1.621 -0.0411  0.0534  0.0918
12029W        W27498   9.853  15.890   1.153  0.2774 -0.0707 -0.2073
12030W        W27499  15.672  17.652   0.247 -0.1741  0.0161 -0.2391
12031W        W27500  17.913  10.373  11.994 -0.1007 -0.1642  0.0724
12032W        W27501   8.469  10.948   0.653 -0.0241  0.0763  0.0038
12033W        W27502  15.977  17.446  14.706 -0.0076  0.0855 -0.0005
12034W        W27503  17.789   6.023  14.550  0.0476  0.2018  0.1186
12035W        W27504   2.473   2.100   9.825 -0.2397  0.1710  0.0326
12036W        W27505   7.582   7.733   0.153  0.1518  0.1109 -0.3842
12037W        W27506  10.873  17.961   0.733  0.0223 -0.1162 -0.2340
12038W        W27507  15.423   7.311   3.630  0.3754  0.1349  0.3997
12039W        W27508  13.750   9.521  15.510  0.0865 -0.0108  0.3265
12040W        W27509   9.149  17.272  15.770  0.2010 -0.1236 -0.0696
12041W        W27510   9.532  17.898   4.907 -0.0949 -0.2516  0.2039
12042W        W27511   6.475  12.327  12.288 -0.1612 -0.3662 -0.0313
12043W        W27512  11.605   5.597  11.971  0.0136  0.1586  0.0056
12044W        W27513   3.898   4.968  13.450 -0.1102  0.0186 -0.1426
12045W        W27514   3.607  13.583   1.045 -0.0258 -0.0420 -0.3327
12046W        W27515   4.846  12.256  13.376  0.0991  0.0746  0.1730
12047W        W27516   9.236   2.165   4.581 -0.0631  0.1121  0.3343
12048W        W27517  12.613   9.141  11.737  0.0694  0.1075  0.3578
12049W        W27518   0.308   5.129   4.342  0.3298  0.2479  0.2064
12050W        W27519  16.201   0.686  12.581 -0.2925 -0.0849  0.0335
12051W        W27520   2.699   7.655   3.521 -0.0392  0.1224 -0.0133
12052W        W27521  10.116   4.814   5.726 -0.2481 -0.2575 -0.0451
12053W        W27522  12.437   3.209  15.271  0.1060  0.2571  0.4615
12054W        W27523  15.593  13.284   0.099  0.0232  0.2372  0.0734
12055W        W27524   6.387   5.218  10.793  0.2092 -0.0866 -0.0453
12056W        W27525  12.979  17.711   2.367 -0.1862  0.1062 -0.2698
12057W        W27526  11.049   2.002   0.504  0.0935  0.3031 -0.2260
12058W        W27527  17.408  14.714  12.979  0.0770  0.1512  0.0738
12059W        W27528   2.616  13.940  11.981  0.3163 -0.2185  0.0771
12060W        W27529   3.010  18.402   2.092 -0.0535  0.0324 -0.2404
12061W        W27530  12.849   3.741   3.110 -0.1104  0.2584 -0.0413
12062W        W27531  14.619  15.730   0.982  0.2727  0.0796 -0.1510
12063W        W27532   3.676   9.427  14.449 -0.1070 -0.0847 -0.0599
12064W        W27533   5.486  14.120   2.588 -0.0249  0.2932 -0.3155
12065W        W27534   4.367  10.661  10.740  0.1043  0.0919  0.2287
12066W        W27535  11.243  10.425  13.940 -0.1508 -0.0746 -0.0302
12067W        W27536  15.349  12.758   1.667  0.2606  0.0290 -0.1087
12068W        W27537   1.074   0.713   1.489  0.0129 -0.0034  0.2503
12069W        W27538   7.740  10.074  12.675  0.0515 -0.0559 -0.3135
12070W        W27539   7.838  10.077  14.275 -0.1237  0.4056  0.1713
12071W        W27540  13.583  15.877  11.402  0.1521  0.0454 -0.1356
12072W        W27541   1.032   2.693  14.183 -0.2354  0.6625 -0.2373
12073W        W27542   9.399   5.584  11.202  0.3821  0.2392 -0.1829
12074W        W27543  12.839  17.794  12.628  0.2835  0.1129 -0.0484
12075W        W27544  18.039   9.364  15.580  0.3777 -0.0834 -0.0142
12076W        W27545   2.658  15.203  12.160  0.0388 -0.1194  0.0129
12077W        W27546  16.488   2.091   3.512  0.0468 -0.2753 -0.1422
12078W        W27547   2.422   7.563  14.694 -0.1622  0.0351 -0.2034
12079W        W27548   0.401   1.613  14.287  0.1563  0.0191 -0.2093
12080W        W27549   5.637  15.831  13.256  0.1679 -0.0173  0.1435
12081W        W27550   7.625   9.975   3.860 -0.0671 -0.2698  0.1460
12082W        W27551   4.471  17.166   1.254 -0.0721  0.0792  0.1058
12083W        W27552  18.114   4.610  13.829  0.0987  0.1267  0.0075
12084W        W27553   1.873   7.404  11.438  0.2881 -0.0348 -0.2419
12085W        W27554   3.989   2.153   3.868 -0.2986 -0.1446 -0.1834
12086W        W27555  17.558   5.956   0.088  0.0934 -0.0997 -0.1598
12087W        W27556   1.807   8.810  12.067 -0.0476 -0.0591 -0.1179
12088W        W27557   0.532  13.887  15.697 -0.1693 -0.0541  0.1832
12089W        W27558   6.181   8.279  13.916  0.1583 -0.1585  0.0057
12090W        W27559  11.051  14.465  15.587  0.0172 -0.4194 -0.1124
12091W        W27560   8.930  14.553  10.679  0.0842  0.1199  0.2214
12092W        W27561   8.631  10.523  15.571  0.0139 -0.2230  0.1845
12093W        W27562   9.821   3.832  11.828  0.1518  0.3867  0.2063
12094W        W27563  11.804  10.436  13.279  0.0927  0.1311 -0.4253
12095W        W27564   9.256  10.966  12.072 -0.0212  0.1120 -0.0473
12096W        W27565  17.105  12.112  10.751 -0.0482 -0.1773  0.0053
12097W        W27566   1.182   4.336  12.905  0.1873  0.0802  0.0497
12098W        W27567  12.926   7.295   4.274 -0.3096  0.1448  0.1513
12099W        W27568  15.625  16.731  12.511  0.2992  0.3979 -0.0233
12100W        W27569   1.139   0.687  15.701 -0.1714 -0.2530  0.0575
12101W        W27570   8.850   2.277   4.912  0.0008  0.1582  0.2237
12102W        W27571   4.445  17.654  11.646  0.3275 -0.0199 -0.0900
12103W        W27572  12.725  14.212   1.600 -0.0907 -0.2794 -0.3988
12104W        W27573  12.654  15.995   0.296 -0.2039  0.4490 -0.1186
12105W        W27574   5.155   6.185   0.429 -0.1048  0.1073 -0.2360
12106W        W27575   6.676   7.962   0.644 -0.0460 -0.1851 -0.2831
12107W        W27576   7.550   6.835   2.912 -0.2605  0.0191 -0.1955
12108W        W27577  16.827  14.471   4.105  0.2182 -0.2045  0.1313
12109W        W27578   0.064  15.903  12.286 -0.2887 -0.2028  0.4607
12110W        W27579   1.576   0.532   0.314  0.0338 -0.0887 -0.1463
12111W        W27580   1.833  13.313  13.802 -0.1428  0.1958  0.2282
12112W        W27581   4.128  11.099  10.296  0.0143 -0.2529  0.0621
12113W        W27582   7.789  10.608   1.480 -0.3287 -0.1426  0.0121
12114W        W27583  14.591   4.410   2.324 -0.3506 -0.2231 -0.0814
12115W        W27584   9.146  12.409  14.893 -0.2628 -0.1880  0.0841
12116W        W27585   6.272  17.830   5.643  0.1263 -0.2294 -0.0220
12117W        W27586   4.131  11.150  13.772  0.2414  0.1221 -0.1035
12118W        W27587   9.278   3.074   3.205  0.1814 -0.0487 -0.2119
12119W        W27588   5.411   6.045   5.282 -0.2002 -0.2064  0.2648
12120W        W27589  11.548   3.596  13.310  0.2119 -0.0360 -0.0547
12121W        W27590   4.301  14.466  10.870  0.3142 -0.1845  0.3413
12122W        W27591   9.816  15.688  10.706  0.0624 -0.0203  0.1308
12123W        W27592  13.407   7.554  15.058 -0.0169 -0.0854 -0.2224
12124W        W27593  15.437  16.137  10.822  0.0622  0.0432 -0.0787
12125W        W27594  17.049   9.770  13.413  0.0188  0.1477  0.1054
12126W        W27595  14.406  11.704   3.321 -0.0741 -0.1781 -0.3809
12127W        W27596  18.318  15.729  15.060  0.2351 -0.2956 -0.1546
12128W        W27597   3.201  11.948   3.503 -0.0591  0.0161 -0.2698
12129W        W27598  10.162   8.596  10.166  0.1650  0.0477  0.0454
12130W        W27599  10.718  13.455  14.525 -0.0779  0.0677  0.3057
12131W        W27600  12.072  15.098   3.153 -0.1018  0.0337  0.0927
12132W        W27601  10.281  14.356   0.396  0.0263  0.0494  0.0859
12133W        W27602   9.711   8.354   2.641  0.0035  0.1214  0.1457
12134W        W27603   2.759  14.507   2.775 -0.0600 -0.3077 -0.0101
12135W        W27604   1.180  12.834  13.342 -0.0769 -0.1825  0.4081
12136W        W27605  10.021  15.370   1.253  0.0247  0.1075 -0.0816
12137W        W27606  11.280   1.815   2.692 -0.0337 -0.0431  0.2958
12138W        W27607  13.852  11.928  15.393 -0.2001 -0.0185  0.2345
12139W        W27608   3.143  15.966  14.371 -0.1609  0.0999  0.2476
12140W        W27609   2.915   7.050   4.684  0.1116 -0.0085 -0.1242
12141W        W27610   6.339  13.498   3.580 -0.1306 -0.2301 -0.0058
12142W        W27611  13.117  10.061  14.879 -0.1510 -0.0386  0.0075
12143W        W27612  18.167   4.207  14.781 -0.2425 -0.0579 -0.2309
12144W        W27613  11.746   0.106  11.629  0.1650 -0.3487  0.2773
12145W        W27614  11.430   1.655   3.164 -0.0498 -0.4757 -0.1546
12146W        W27615  15.446  15.491  15.559  0.0023  0.0588  0.2013
12147W        W27616   6.516  17.344  14.979 -0.0248  0.2359  0.0110
12148W        W27617   2.436   5.464   5.408 -0.3875  0.3983 -0.1383
12149W        W27618  17.255   3.449   2.791  0.0523  0.3445 -0.0360
12150W        W27619  12.791   9.964  15.778 -0.0048  0.3373  0.1485
12151W        W27620   3.597   7.622   4.260  0.0646  0.0605 -0.0930
12152W        W27621   7.100   4.542  11.469 -0.2249 -0.1911  0.0397
12153W        W27622   4.735   2.087  15.557 -0.0028  0.0176  0.1143
12154W        W27623  15.502   1.564  12.691  0.4906  0.0205  0.0783
12155W        W27624   8.175  12.368   3.155 -0.2692 -0.0449  0.3924
12156W        W27625  15.986  16.824  10.555  0.1702  0.2109 -0.1534
12157W        W27626   4.776  15.859  14.029  0.2081  0.0432  0.4946
12158W        W27627   7.692  13.087  12.144 -0.2152 -0.1135 -0.0069
12159W        W27628   5.647  17.101  12.043 -0.0456 -0.0810 -0.0722
12160W        W27629   7.623   1.325  13.398  0.2484 -0.0137 -0.1731
12161W        W27630  17.896  12.363  14.148  0.1080 -0.0395  0.0034
12162W        W27631  17.824   2.514  15.029 -0.4869 -0.0390 -0.1707
12163W        W27632  13.760  18.422   5.416  0.1710  0.1418 -0.0493
12164W        W27633  11.074  17.444  11.689 -0.0216  0.0348  0.0983
12165W        W27634  11.168  15.006   0.582  0.2104 -0.2434 -0.0557
12166W        W27635  18.189   3.307   4.738 -0.0952  0.1870 -0.0465
12167W        W27636   3.123  15.917   3.722 -0.0409  0.2027  0.1693
12168W        W27637   9.036   8.298  15.648 -0.0513  0.2022  0.3624
12169W        W27638   3.597   8.738   2.485  0.1935 -0.0180 -0.0192
12170W        W27639  16.766   4.653   4.826  0.0641  0.0069 -0.0024
12171W        W27640   1.932  10.692  13.239  0.1071 -0.0820 -0.1257
12172W        W27641  11.599   8.476   5.370  0.0271 -0.2460 -0.1813
12173W        W27642   9.463  14.679   2.713 -0.0566 -0.0685  0.1101
12174W        W27643  13.218   7.578   5.392 -0.2349  0.0320  0.0642
12175W        W27644  16.296  15.805   3.281  0.0154  0.1846  0.1153
12176W        W27645  15.558  13.108   3.545  0.2668  0.0785 -0.2113
12177W        W27646  16.146   1.332  15.069 -0.1581  0.1001  0.1545
12178W        W27647   5.965   9.618  10.739 -0.3278  0.0722  0.0918
12179W        W27648   9.069  13.736   1.607  0.3100  0.1332  0.1478
12180W        W27649  16.101   4.860   4.230 -0.0493 -0.0191 -0.3291
12181W        W27650  18.511  15.094   3.054  0.1356  0.1442 -0.0677
12182W        W27651  12.265   4.154  11.186 -0.1344  0.2977 -0.3555
12183W        W27652   6.000   6.444  11.004 -0.0274  0.6176  0.1197
12184W        W27653  14.743  14.348  13.537  0.1564 -0.1603 -0.1001
12185W        W27654  18.440  14.990  12.091 -0.2814  0.1549  0.0329
12186W        W27655   0.359  14.757   3.900  0.1053 -0.1621  0.3040
12187W        W27656  10.203  11.760  12.936  0.3465 -0.0578  0.0970
12188W        W27657  14.186   8.073  14.205 -0.1112  0.0903  0.0353
12189W        W27658  12.817  16.988   4.825  0.0316 -0.3091  0.3722
12190W        W27659  15.960   1.974   2.314 -0.0943  0.1391 -0.0644
12191W        W27660   7.957   6.567   1.601 -0.1339  0.3366  0.0249
12192W        W27661  16.628  16.336   0.012  0.0798 -0.0623  0.0707
12193W        W27662   8.758  10.402  14.838  0.0904  0.1724 -0.0713
12194W        W27663   7.409  14.028   4.021  0.5735 -0.1658 -0.2151
12195W        W27664  13.668  11.492   0.724 -0.1367  0.0134  0.1689
12196W        W27665   2.725   5.634   1.487  0.2511  0.1728  0.0902
12197W        W27666  16.465  12.093  12.628  0.1312 -0.1535  0.1082
12198W        W27667   7.968  10.189  11.880 -0.2150  0.1386  0.3660
12199W        W27668  14.654   6.631   3.150  0.0518 -0.1057 -0.0127
12200W        W27669   4.537  16.491  10.695 -0.0344 -0.1396 -0.0610
12201W        W27670   2.032   5.542  10.150 -0.0067 -0.1307  0.1293
12202W        W27671   3.829   8.329   4.158 -0.3142 -0.1382  0.4047
12203W        W27672   0.349  14.306   4.208 -0.1575 -0.2732 -0.1639
12204W        W27673  16.614   8.606   3.456  0.2184  0.1156 -0.2614
12205W        W27674  12.101   7.471   1.255  0.2244  0.1253 -0.0155
12206W        W27675  11.430  13.304  11.019 -0.1589 -0.0583 -0.1955
12207W        W27676   9.075  15.685  11.228  0.0966 -0.1182  0.2412
12208W        W27677   8.432   1.068  10.844  0.1629 -0.1674 -0.1134
12209W        W27678   7.915   4.173   2.567  0.2109  0.0174  0.0872
12210W        W27679  11.602   1.042   5.912 -0.1618 -0.1871 -0.1194
12211W        W27680   0.897   4.301  11.768 -0.2556 -0.0260  0.0087
12212W        W27681   2.372   0.052  12.541 -0.0464  0.0785 -0.1672
12213W        W27682  15.737  17.765  11.524 -0.3783  0.0350 -0.4751
12214W        W27683  11.691   0.521   5.850  0.2969 -0.2883  0.3348
12215W        W27684   7.670   6.043   1.520  0.1972  0.2832  0.2589
12216W        W27685  15.358   3.145   2.958  0.0639 -0.1953  0.2251
12217W        W27686   6.564   5.749  14.129 -0.0531  0.0501 -0.2142
12218W        W27687  15.025   4.643  13.270 -0.0986  0.0060 -0.0525
12219W        W27688  12.695  18.070  10.712  0.2535 -0.3353 -0.0666
12220W        W27689  13.416   7.913   5.696  0.0284  0.0124 -0.0032
12221W        W27690  14.819  12.045   4.074 -0.0695  0.1515 -0.3973
12222W        W27691  13.672  13.040   0.655 -0.1848  0.2499  0.1609
12223W        W27692  18.502  15.603   5.365  0.1083 -0.2034  0.0141
12224W        W27693   5.701  13.789  11.940  0.3518 -0.3037 -0.2182
12225W        W27694  15.579   4.980   3.696  0.0708  0.1190  0.2257
12226W        W27695   9.619   2.351   3.742  0.0426  0.0347  0.2232
12227W        W27696   4.848   8.253   1.393  0.2439  0.0251 -0.3331
12228W        W27697  13.298  11.332   1.600  0.0797 -0.2329 -0.2499
12229W        W27698  13.045   6.822   3.034  0.2039 -0.4514 -0.0080
12230W        W27699  15.282   5.189   4.030 -0.2299  0.2948  0.2384
12231W        W27700  14.177  15.499   1.155  0.4659  0.0126  0.0730
12232W        W27701  14.036   7.012   4.020 -0.1822 -0.2608  0.2551
12233W        W27702   9.358  12.164  11.220 -0.0052  0.1864 -0.0908
12234W        W27703  18.147  13.203   6.056  0.1134  0.1329  0.1517
12235W        W27704   1.438  10.399  10.826  0.1127  0.0210 -0.3288
12236W        W27705  16.491   3.604   0.556 -0.0337 -0.0850 -0.0196
12237W        W27706  10.559   1.077   0.309  0.2520 -0.1963  0.2600
12238W        W27707   0.309  17.923  11.268 -0.0832 -0.1803  0.3991
12239W        W27708  14.328   4.150  15.382  0.1413  0.3445  0.2380
12240W        W27709   8.655   8.208  13.192  0.1575  0.0479 -0.0183
12241W        W27710  10.662   6.545   2.825 -0.4370  0.1699  0.0093
12242W        W27711   6.870  17.222  14.389  0.2556 -0.0793 -0.0251
12243W        W27712   7.306  12.111  15.497  0.0839 -0.0241  0.1575
12244W        W27713  13.326   5.820   1.307  0.1423 -0.1429  0.0014
12245W        W27714   8.143  17.733  14.448  0.4003 -0.0272  0.0316
12246W        W27715  16.726  16.687  11.306 -0.2228 -0.3100  0.3912
12247W        W27716   6.898   3.978   1.349 -0.0761 -0.1158  0.0982
12248W        W27717  14.342  15.627  12.925  0.3456 -0.0324  0.1813
12249W        W27718   8.482  11.612   4.684 -0.1330  0.0614  0.2529
12250W        W27719  11.375  12.183  13.522 -0.0649  0.0983 -0.1919
12251W        W27720  14.056   5.086   1.085  0.0386 -0.1609 -0.0642
12252W        W27721   6.322   6.829   1.947  0.2263 -0.1405 -0.0882
12253W        W27722  11.430   9.886   3.810  0.0256 -0.1202  0.2311
12254W        W27723   0.099  10.089  10.418  0.1805 -0.2889  0.1667
12255W        W27724  12.967   0.691   0.548  0.4764 -0.2722  0.1344
12256W        W27725  17.856   3.601  12.400  0.0976  0.1285  0.0571
12257W        W27726  15.521   3.790  11.507  0.0885  0.0314  0.0956
12258W        W27727  17.168   8.385   4.168  0.2112  0.0555 -0.1603
12259W        W27728   0.541  11.199  13.725  0.0066 -0.1120 -0.0114
12260W        W27729   2.766  15.457   4.457  0.1240  0.2088 -0.0376
12261W        W27730   6.428   1.090  12.325 -0.0203  0.0669 -0.0338
12262W        W27731  16.518   0.234  14.004 -0.1400 -0.0705 -0.1168
12263W        W27732   5.685   1.430  13.168  0.0539 -0.1217  0.2617
12264W        W27733   3.459  17.726   0.821  0.0208 -0.1904 -0.0350
12265W        W27734   8.338  16.751  11.163  0.1003 -0.0590  0.2130
12266W        W27735  14.534   5.743  10.487  0.0306  0.0201  0.1318
12267W        W27736  17.691  12.880  13.413 -0.0209 -0.0615 -0.2026
12268W        W27737  11.170  12.015   0.234 -0.2356 -0.1630 -0.0888
12269W        W27738  15.125   1.999   3.488 -0.0087  0.0888 -0.0632
12270W        W27739  11.637   9.569   0.267 -0.2018  0.2121  0.0602
12271W        W27740  18.417   7.107  11.829  0.0293 -0.0562 -0.1689
12272W        W27741  11.911  12.131  13.398 -0.1226 -0.2037 -0.2040
12273W        W27742   9.226  10.272   1.614 -0.3043 -0.0282  0.2647
12274W        W27743  12.626   2.954  13.798 -0.3210 -0.1504 -0.0827
12275W        W27744  15.017  13.405  15.216  0.3495 -0.1094 -0.1562
12276W        W27745   9.119  17.051   3.233 -0.4469 -0.0893  0.1202
12277W        W27746   3.675  13.508   5.348  0.0311  0.0372  0.2525
12278W        W27747  15.966  17.598  13.333  0.0097 -0.4439  0.0844
12279W        W27748   3.096   6.052   5.219  0.2055  0.2905  0.5606
12280W        W27749   1.527  10.202   1.174 -0.2860 -0.3189  0.1322
12281W        W27750  13.841  17.689  10.946  0.0114  0.3543  0.0500
12282W        W27751   4.286   6.446  11.992 -0.2450 -0.0408 -0.2818
12283W        W27752   8.695   2.533  12.892  0.1004 -0.1100 -0.1554
12284W        W27753  15.665  16.159  15.738 -0.0512  0.2835 -0.0371
12285W        W27754  18.381   5.001  15.355  0.0196  0.2695 -0.1875
12286W        W27755  10.273  14.317   1.701 -0.0402 -0.1040 -0.0065
12287W        W27756   0.216   9.766  12.139 -0.0313 -0.4595  0.0335
12288W        W27757  17.247   9.430  12.373 -0.0441  0.1584 -0.0687
12289W        W27758   5.211  13.793   2.183  0.2314 -0.1452 -0.1929
12290W        W27759   4.254  15.939  13.808 -0.0757  0.2031  0.2611
12291W        W27760   6.417  13.425   0.968  0.0672  0.0060 -0.2704
12292W        W27761  12.320  16.949   1.568 -0.4336 -0.1720 -0.0085
12293W        W27762  16.189   8.444   0.040 -0.0794 -0.0669  0.0471
12294W        W27763  11.006   2.904   3.291  0.0614 -0.0450 -0.4751
12295W        W27764   7.592   6.616   3.678 -0.0583 -0.2090 -0.1570
12296W        W27765  15.947   4.401   0.508 -0.3551 -0.4137 -0.0023
12297W        W27766   8.965   9.259  10.744  0.1903  0.4304 -0.1771
12298W        W27767  14.866  17.944  14.656 -0.3947 -0.0404  0.0147
12299W        W27768  11.444   2.263  11.994  0.0838  0.2467  0.1392
12300W        W27769   4.226  13.625   3.853 -0.4131 -0.1989 -0.2388
12301W        W27770  16.161   9.067  14.579 -0.0512 -0.2643  0.0557
12302W        W27771  14.566  14.844  11.969 -0.0611  0.0397 -0.0295
12303W        W27772   1.679   6.935   9.268 -0.2863 -0.1088 -0.1515
12304W        W27773   0.603  18.058  14.546  0.0292 -0.0115  0.2638
12305W        W27774   9.790  15.020   0.208  0.3468  0.0788  0.1586
12306W        W27775  10.557   7.781  14.810 -0.1837  0.0275 -0.0395
12307W        W27776  10.188  11.037   2.482  0.2001 -0.1046  0.0876
12308W        W27777  16.630   0.453   1.384  0.1041 -0.0517  0.3497
12309W        W27778  18.451  14.306   2.068  0.5118 -0.0008 -0.0750
12310W        W27779  17.847   4.977  11.433  0.0412 -0.0299 -0.0952
12311W        W27780   9.799   7.476   6.002 -0.2016 -0.0417  0.1629
12312W        W27781   5.757   2.605   1.194  0.0614  0.0527  0.1142
12313W        W27782   7.829  16.499  10.675 -0.1795 -0.1652  0.0986
12314W        W27783  10.023  10.500  14.417 -0.2204 -0.1995 -0.0540
12315W        W27784  12.399  15.800  13.817  0.0967  0.0379  0.4143
12316W        W27785   2.497  12.721   1.251  0.0041 -0.0545 -0.3467
12317W        W27786  18.059   5.233  10.947 -0.2140  0.2620  0.0919
12318W        W27787  11.570   8.289   3.684  0.1334 -0.3573  0.0189
12319W        W27788   5.797   7.528  15.101  0.0203  0.3814  0.1251
12320W        W27789   8.539  12.724   3.211  0.0573 -0.2328 -0.0538
12321W        W27790   8.871  10.543  14.219  0.0152  0.1192  0.1870
12322W        W27791  11.338   3.358   1.268 -0.3360 -0.1478 -0.0391
12323W        W27792   7.330   6.338  15.192 -0.3873 -0.0638  0.0087
12324W        W27793  17.996   6.641  12.257  0.0619  0.0322 -0.0695
12325W        W27794  12.573  18.255  12.645 -0.2438 -0.1599  0.0236
12326W        W27795  11.822   3.253   1.499 -0.1762 -0.0614 -0.0376
12327W        W27796  13.895   6.589   2.100  0.0717 -0.1050 -0.2916
12328W        W27797   6.810  18.207   4.403 -0.1755  0.0046  0.0348
12329W        W27798   0.912   1.602  14.423 -0.0001 -0.1824 -0.0697
12330W        W27799  13.205   9.330  12.014 -0.1427  0.0361  0.0126
12331W        W27800   7.735  18.365   4.225 -0.3308 -0.0588  0.0403
12332W        W27801   9.420   7.742   4.806 -0.3950  0.0495  0.1761
12333W        W27802   3.208   2.189  11.320 -0.1452 -0.1225 -0.0808
12334W        W27803  18.580   2.367  13.308  0.0213 -0.0958  0.0399
12335W        W27804   3.708   4.997   4.404  0.0754 -0.1591  0.2862
12336W        W27805   5.124  14.201  13.706  0.1821  0.0428 -0.0233
12337W        W27806   4.581   9.129  13.122  0.3642  0.2428 -0.0473
12338W        W27807   7.354   1.669   5.476  0.2634 -0.0764 -0.5469
12339W        W27808  16.944   9.332  10.405 -0.1340  0.1459 -0.0471
12340W        W27809  18.249   0.223  12.002 -0.0330 -0.3880 -0.2139
12341W        W27810   1.812   5.127   4.070  0.1051 -0.1897 -0.0972
12342W        W27811   7.432  12.879   9.426 -0.1255 -0.0954  0.0088
12343W        W27812   0.660  16.492   6.160 -0.2790  0.0300 -0.4136
12344W        W27813  15.636  17.105  14.912 -0.2061  0.0155 -0.0447
12345W        W27814  11.620  17.340   3.816 -0.0532  0.3079  0.2296
12346W        W27815   2.794   5.718   5.035 -0.3381  0.1647  0.1063
12347W        W27816   8.253  14.012  13.702  0.0558 -0.2992  0.0554
12348W        W27817   5.085   4.384   3.357 -0.3454  0.2896  0.1191
12349W        W27818  13.544  15.406  12.110 -0.1739  0.1298 -0.0812
12350W        W27819  13.136   9.680  14.594  0.1430  0.0371 -0.0763
12351W        W27820  16.139   3.342  14.338  0.1417 -0.2048 -0.1474
12352W        W27821  11.647   8.425   2.274  0.1290  0.1791  0.0770
12353W        W27822  10.954   5.743   0.676 -0.0956 -0.0715  0.2517
12354W        W27823   7.117  14.320   4.803  0.0620 -0.1608 -0.0188
12355W        W27824  15.865   0.665  15.476 -0.3761 -0.3426  0.2877
12356W        W27825   9.983  11.060  14.497 -0.1736 -0.0336  0.3845
12357W        W27826  12.598   2.964  12.548 -0.1185 -0.0502  0.4405
12358W        W27827   2.298   5.309   0.692 -0.0249  0.2223  0.5580
12359W        W27828   2.351  14.690   2.593  0.0608 -0.2796  0.0103
12360W        W27829   7.044   4.651   2.499  0.1956  0.1264  0.4388
12361W        W27830   5.184   6.694  10.828 -0.0331  0.1023 -0.2574
12362W        W27831   2.841   9.255   0.839  0.1669  0.3108 -0.2171
12363W        W27832   5.138  16.536  13.681 -0.3994 -0.0249 -0.1729
12364W        W27833  13.271   2.052   2.137 -0.1174 -0.1687  0.1187
12365W        W27834  15.512  15.444  12.917 -0.1225 -0.2662 -0.0263
12366W        W27835   4.320   8.879   1.253  0.4533  0.1361 -0.0726
12367W        W27836   8.071  14.412   1.514 -0.0263  0.0811 -0.1061
12368W        W27837  17.514   4.963   2.069  0.0414  0.1032  0.1729
12369W        W27838  14.825   2.185   1.163 -0.2719 -0.0709  0.1980
12370W        W27839   1.487   1.011   0.675 -0.4102  0.1061  0.1369
12371W        W27840   3.322   6.487   1.895  0.0948 -0.1249 -0.2071
12372W        W27841  10.608   8.118  13.110  0.2116  0.1235  0.0537
12373W        W27842   4.915  10.110  12.981 -0.0107 -0.4107 -0.0267
12374W        W27843  13.185   7.404   2.951  0.2391  0.1362  0.0756
12375W        W27844  13.808  10.112   3.244 -0.2877  0.0843 -0.0783
12376W        W27845  14.801   2.168  12.442 -0.1483  0.1545  0.0277
12377W        W27846  11.426   6.073  15.329  0.3807  0.1624 -0.0176
12378W        W27847  11.394  17.169   2.086 -0.0558 -0.1496 -0.0933
12379W        W27848   3.820  11.080  14.690 -0.1070  0.0688  0.1939
12380W        W27849   6.005  17.891   4.844 -0.2838  0.2579 -0.3900
12381W        W27850  10.730  12.274  11.931 -0.0476  0.1590 -0.3347
12382W        W27851  13.747   8.409  15.056 -0.1560 -0.0494  0.0508
12383W        W27852  16.603   8.735  12.131  0.0765  0.0458 -0.0857
12384W        W27853   6.160   1.318  12.935  0.0072  0.2670  0.0656
12385W        W27854   4.682   3.102  15.699 -0.2660 -0.1553 -0.0022
12386W        W27855   1.541   9.213  13.349  0.0771  0.3337  0.0024
12387W        W27856   1.079  16.558   0.205  0.1325 -0.0928  0.0976
12388W        W27857  16.766  13.574  10.707 -0.4276  0.1067  0.1000
12389W        W27858   2.422   3.891   1.607 -0.2535 -0.0088 -0.0256
12390W        W27859   0.905   3.700  11.046 -0.1194 -0.4277  0.0860
12391W        W27860   3.740  10.154  11.593  0.0490  0.0128 -0.2213
12392W        W27861   5.096   6.565   4.929  0.0088  0.2704  0.0394
12393W        W27862  14.612  17.378   2.960 -0.0530 -0.3829  0.1451
12394W        W27863   2.363   4.849  12.304  0.1450  0.0908 -0.3727
12395W        W27864   7.840   7.110  13.032 -0.2953  0.0012  0.0186
12396W        W27865  16.232  10.570  14.239  0.0007 -0.1859 -0.0114
12397W        W27866   8.152  11.352   2.601 -0.0787  0.2943  0.0211
12398W        W27867   2.061  12.924  12.110  0.1134  0.1925 -0.1354
12399W        W27868   6.016   2.574  14.837 -0.2051 -0.1024 -0.0661
12400W        W27869  14.604  15.650  10.746  0.1319  0.0011  0.1569
12401W        W27870   8.914   1.411   3.790  0.0852 -0.0004  0.0810
12402W        W27871   3.252   4.343  13.063 -0.0244 -0.1158  0.0675
12403W        W27872   0.908  15.328  14.716 -0.0855 -0.0564 -0.1973
12404W        W27873   5.300   3.454   2.469  0.2309 -0.0075 -0.0420
12405W        W27874  17.099  14.757   4.561 -0.0126  0.1101  0.0244
12406W        W27875   5.422   3.769  10.981  0.1512  0.3914 -0.0310
12407W        W27876  12.205  10.594  11.539 -0.1157 -0.4882 -0.1317
12408W        W27877  18.237   0.219  14.359  0.0671 -0.0156  0.2663
12409W        W27878   8.812   0.591  11.616  0.3788 -0.2372  0.1375
12410W        W27879   1.795   7.273   3.535  0.3051 -0.1275  0.1495
12411W        W27880  13.115  12.758  12.516  0.0443  0.3409  0.3051
12412W        W27881  13.756   9.545   0.338  0.1917 -0.0369 -0.5584
12413W        W27882  16.080  14.000   0.787  0.1221  0.0302 -0.1427
12414W        W27883   8.631  16.017   1.746 -0.0697  0.1883 -0.2309
12415W        W27884   7.839  17.865   5.512  0.0428 -0.1685 -0.0196
12416W        W27885   6.405  17.594   0.808  0.2142  0.0895  0.1722
12417W        W27886  11.295   2.935   0.907 -0.0727  0.0967 -0.0610
12418W        W27887   4.079  18.508   0.320  0.2118 -0.2292  0.0666
12419W        W27888  16.279   2.039  12.361  0.3972 -0.1456  0.1292
12420W        W27889  15.646   0.147  13.242  0.4418 -0.0160  0.0349
12421W        W27890   3.243  13.939  14.625  0.0162  0.2181  0.0034
12422W        W27891   2.602  13.050   3.351  0.4455 -0.1231  0.2322
12423W        W27892  13.888  18.169  10.427 -0.0295  0.0695 -0.0073
12424W        W27893   3.886   2.245  10.550  0.1705  0.1707 -0.0502
12425W        W27894  12.673   2.478   4.741 -0.0883  0.1225  0.0900
12426W        W27895   5.178  16.604  14.562  0.0366 -0.1432 -0.2237
12427W        W27896   6.309   3.719  12.440 -0.3284  0.0704  0.0429
12428W        W27897  14.047   6.850   5.052 -0.1687 -0.1860 -0.1996
12429W        W27898   3.229  10.132  10.867  0.0339  0.3440  0.0455
12430W        W27899   1.290  17.657   3.762 -0.0558 -0.3140  0.3153
12431W        W27900  15.000  17.178   3.490 -0.1705 -0.1517 -0.0029
12432W        W27901   0.763  14.194   4.800  0.0659  0.0223  0.0145
12433W        W27902   2.001  11.605   5.419 -0.0399 -0.2203  0.2361
12434W        W27903   9.007   2.169  12.874 -0.6927  0.3755 -0.1179
12435W        W27904   5.567  12.623  14.137  0.2949 -0.0053  0.0183
12436W        W27905  17.545  12.927   0.004  0.1423  0.0158  0.1046
12437W        W27906  17.164  15.853   5.682 -0.2876 -0.0092  0.1807
12438W        W27907  11.615  14.010  14.856 -0.0948 -0.1391 -0.0252
12439W        W27908  18.510  14.422  12.245  0.2475 -0.0190 -0.5659
12440W        W27909  13.757   3.108  11.951  0.2951  0.3185  0.1634
12441W        W27910  14.138  18.294   3.942  0.2129  0.0278 -0.1855
12442W        W27911   9.337  16.721   0.719 -0.0693 -0.0741 -0.5071
12443W        W27912  15.189   0.364  12.309  0.1681  0.0885  0.1534
12444W        W27913   0.959   5.663   3.036  0.2148 -0.1100  0.1860
12445W        W27914  14.968   4.847   1.544 -0.1852 -0.4362  0.0369
12446W        W27915  13.729  13.994   1.282 -0.0881  0.0348 -0.0125
12447W        W27916   9.044   9.348  15.015  0.1755  0.4533 -0.1722
12448W        W27917   7.943   9.751  14.788  0.0580  0.0137 -0.3726
12449W        W27918   6.026  12.370  14.551  0.1611 -0.0694  0.0897
12450W        W27919   0.283  15.911   3.575 -0.3217 -0.4460  0.0160
12451W        W27920  13.118   4.783  13.353  0.0635 -0.0378 -0.2491
12452W        W27921   9.043  17.990   4.229 -0.3056  0.4500 -0.0024
12453W        W27922  18.397  17.767  14.953  0.4752 -0.1383  0.1083
12454W        W27923  13.888   3.683  13.699 -0.0882  0.0280 -0.2013
12455W        W27924  16.397  15.342  14.686  0.0426  0.2479 -0.1829
12456W        W27925   4.216   0.408  10.039 -0.0937 -0.0441  0.3666
12457W        W27926   5.524   4.669   1.677  0.2353 -0.1121  0.1227
12458W        W27927   2.698   5.711   0.494  0.1436 -0.0118  0.0363
12459W        W27928  11.992   9.481   2.374 -0.0716 -0.1359 -0.0539
12460W        W27929   6.416   8.209   1.028  0.1816 -0.1173 -0.0185
12461W        W27930  17.448   3.493  10.657  0.2462  0.0913 -0.1030
12462W        W27931  17.165  14.906  14.608 -0.1513 -0.1283  0.1451
12463W        W27932  16.805  10.952  13.272 -0.2137 -0.1819  0.0725
12464W        W27933   2.766   1.980   0.162 -0.3218  0.0277 -0.1577
12465W        W27934  13.639   6.529  15.025 -0.2520 -0.0502  0.1475
12466W        W27935  18.124  17.305   5.357 -0.1079 -0.1275 -0.0135
12467W        W27936   7.056   8.857  12.956  0.2420  0.1340 -0.0089
12468W        W27937  14.814  15.169   0.806  0.4616 -0.0024 -0.0818
12469W        W27938   3.386  17.923  14.343 -0.1510 -0.1496 -0.1281
12470W        W27939  17.943   7.983   2.277 -0.2079  0.0099 -0.1443
12471W        W27940  10.494   4.503  12.268  0.0592  0.0163 -0.0259
12472W        W27941   9.757  15.621   4.041 -0.2575 -0.2055  0.0560
12473W        W27942   7.852  10.120   1.549 -0.1044  0.0802  0.0603
12474W        W27943   2.370  11.338  11.835 -0.1413  0.1528 -0.0501
12475W        W27944   8.236  15.320   4.850 -0.1045 -0.1580 -0.1492
12476W        W27945   1.004  13.379   0.673 -0.0796  0.0812  0.2491
12477W        W27946   1.067   1.696   2.139 -0.1494 -0.1624 -0.2102
12478W        W27947  15.802  18.117   0.414 -0.0468 -0.0391  0.0760
12479W        W27948   3.090  13.764  12.190 -0.0847 -0.1458 -0.0166
12480W        W27949   7.137  17.665  15.432  0.1942  0.2080  0.0721
12481W        W27950   4.560   1.014  11.540  0.0965  0.0931 -0.2158
12482W        W27951  12.153  17.295  12.910  0.1746  0.2229 -0.1927
12483W        W27952   0.817  15.925  13.345 -0.0130  0.1706 -0.0097
12484W        W27953  11.588  17.565   2.787 -0.0007 -0.0778  0.0877
12485W        W27954   7.196  11.476  13.288 -0.1135 -0.0723  0.1439
12486W        W27955   5.971   3.695   3.525 -0.1080 -0.0405  0.2851
12487W        W27956   1.929  14.830   2.412 -0.1414 -0.0313  0.1422
12488W        W27957   0.412  18.017   1.540 -0.1812 -0.3983  0.1148
12489W        W27958   8.190   5.566  11.990 -0.1339  0.1081  0.0222
12490W        W27959   6.220   0.737  13.132 -0.0564 -0.0983 -0.1927
12491W        W27960  12.259   1.656  12.144 -0.2665 -0.4384  0.2573
12492W        W27961  11.149   6.631   2.205  0.2584  0.2016 -0.0241
12493W        W27962   2.844  16.259  13.789  0.1236  0.1672 -0.0388
12494W        W27963  14.484  16.124   0.604 -0.1431  0.0394 -0.1049
12495W        W27964  16.971   7.402   4.235 -0.4006 -0.1717  0.2323
12496W        W27965   1.943  17.850   1.458 -0.1362 -0.0679 -0.0210
12497W        W27966   9.061   5.232   0.472 -0.3335  0.3066 -0.1150
12498W        W27967  11.697  12.684   0.756 -0.1475  0.1894  0.3767
12499W        W27968  11.255   7.420  12.626  0.1964 -0.1682  0.0823
12500W        W27969   5.540  14.458  13.743  0.0014  0.2115  0.1950
12501W        W27970   2.100  18.114   5.229 -0.2577 -0.0378 -0.2749
12502W        W27971  16.312  12.077   0.744  0.1388  0.0488  0.1745
12503W        W27972  16.431   0.771  11.125 -0.0507  0.2081  0.0529
12504W        W27973  15.849  11.493  11.701  0.4052  0.4067 -0.1957
12505W        W27974   2.668  11.608  14.399 -0.0475 -0.1339  0.0746
12506W        W27975   7.135   5.044  13.620 -0.2399 -0.1129 -0.0069
12507W        W27976  11.888  11.511  13.467  0.2361  0.0537  0.0048
12508W        W27977   6.187  17.509   2.718  0.1214 -0.0783 -0.1918
12509W        W27978   1.322  14.310  13.659 -0.2003 -0.1089 -0.1637
12510W        W27979  15.079  15.530   1.107 -0.1114 -0.0910 -0.1943
12511W        W27980  16.624   8.842   1.624 -0.1719  0.0415  0.0932
12512W        W27981  12.245  11.497   4.080  0.2207  0.0582 -0.0520
12513W        W27982  12.413  11.009  12.844  0.0279 -0.0517 -0.1439
12514W        W27983   1.461  12.780   0.989 -0.1946 -0.1548 -0.1402
12515W        W27984  18.400  15.371   4.673  0.0968  0.0095 -0.0558
12516W        W27985   8.806  18.418   4.487 -0.4751  0.0007 -0.2003
12517W        W27986   9.351   1.344   4.465 -0.1861 -0.1770  0.1182
12518W        W27987   8.027   4.696   2.814  0.3660  0.3286  0.1863
12519W        W27988  16.802   4.994   0.254  0.3897 -0.3621  0.2414
12520W        W27989  14.191  17.652   4.197 -0.2148 -0.1750 -0.0260
12521W        W27990   3.030   9.044  13.338 -0.1165  0.2188  0.3228
12522W        W27991  16.004  16.927   0.472 -0.0472  0.0511  0.1398
12523W        W27992   4.026   1.389  12.277 -0.0144 -0.1260  0.0258
12524W        W27993   0.815  11.411   9.646  0.1106  0.1273 -0.2080
12525W        W27994   3.670   3.510  11.187  0.0423 -0.0533  0.2372
12526W        W27995  17.306  11.019  13.861  0.0463 -0.3321 -0.0280
12527W        W27996  10.038  14.701   9.686 -0.0623 -0.0983  0.0979
12528W        W27997  17.657   0.800  11.738  0.3190 -0.3772  0.0406
12529W        W27998   5.837  10.825  12.137 -0.2298 -0.0871 -0.0007
12530W        W27999   5.149   0.519   4.259 -0.0025 -0.0147 -0.0328
12531W        W28000   3.525  18.156   2.161  0.1468  0.3244  0.1351
12532W        W28001  11.002   4.377  12.609  0.0724 -0.0157 -0.0759
12533W        W28002   8.042   6.931  11.972 -0.1370 -0.0175 -0.0560
12534W        W28003  12.756   9.840   4.096  0.0271  0.1323 -0.0204
12535W        W28004   2.454  18.479   3.376 -0.1280  0.4401 -0.1226
12536W        W28005  13.370   8.243  13.750  0.0420 -0.0182 -0.0446
12537W        W28006   5.416   4.938  15.575  0.0693  0.0786 -0.0006
12538W        W28007   7.886   2.250  14.206 -0.1329  0.1102 -0.0058
12539W        W28008   1.007  18.357   0.372 -0.1137 -0.1867  0.0094
12540W        W28009   4.891   0.862  11.023 -0.1186 -0.2187  0.0275
12541W        W28010  11.576   2.666   0.137  0.1792  0.0129  0.0242
12542W        W28011   9.207   6.066   0.278 -0.1040  0.0143  0.3129
12543W        W28012  10.330  16.181  13.739  0.0036  0.0005  0.2326
12544W        W28013   5.409   8.099   1.013  0.0571  0.1445  0.0595
12545W        W28014  13.833   8.836   1.419  0.1280 -0.0451 -0.0135
12546W        W28015   9.267   3.978  11.750  0.0706  0.3966  0.1260
12547W        W28016   8.247  14.926   4.404  0.0735 -0.0614  0.0340
12548W        W28017   1.966   8.530   2.328  0.2134 -0.0863  0.0955
12549W        W28018   6.752   5.207   3.419  0.1574  0.1536 -0.2123
12550W        W28019  13.257  17.717  13.920  0.1333 -0.3958 -0.2137
12551W        W28020   3.367  14.445  15.411 -0.0865  0.0202  0.1866
12552W        W28021   1.570  13.693  12.660 -0.1021 -0.1013 -0.2959
12553W        W28022  10.048   5.106   2.598 -0.0345  0.1692 -0.0177
12554W        W28023   4.505  12.612  13.680  0.4457 -0.0055 -0.2726
12555W        W28024   9.675  16.528   5.204  0.0766  0.2472 -0.0885
12556W        W28025  18.291   1.138  15.688  0.4185 -0.5415  0.0071
12557W        W28026   4.369  16.178  14.218 -0.2473  0.0286 -0.0707
12558W        W28027  11.220  17.395  13.899  0.0028 -0.0061  0.0412
12559W        W28028   2.878   5.215  14.520  0.1532  0.1913  0.0210
12560W        W28029   5.799  13.464  11.599  0.1854  0.3032 -0.1023
12561W        W28030   9.212  10.029   3.767 -0.1552  0.0965  0.0081
12562W        W28031   8.399   1.807  14.325 -0.0478  0.1148  0.2654
12563W        W28032   0.596  11.568  15.599  0.1574  0.3113 -0.1271
12564W        W28033  13.121  14.808  12.607 -0.2321  0.2473  0.3276
12565W        W28034  15.301   9.951   1.400 -0.0773 -0.0018  0.1994
12566W        W28035   1.851   8.817  13.005 -0.0097  0.2525  0.2107
12567W        W28036  12.561   8.104  15.634  0.0225  0.0935 -0.1672
12568W        W28037  12.696   6.098  14.165 -0.1273  0.2578  0.1970
12569W        W28038   0.672   3.437  14.335  0.4103 -0.0620  0.2825
12570W        W28039  17.651   6.559  15.617  0.0365 -0.0868  0.0403
12571W        W28040   1.400   4.942   0.468 -0.1045 -0.2072 -0.0668
12572W        W28041   7.761  14.626   0.297  0.1178  0.0908  0.0028
12573W        W28042  15.000  17.007   3.970 -0.1585 -0.2941  0.2763
12574W        W28043  15.826  14.707   2.873 -0.2217 -0.0218  0.4156
12575W        W28044   7.526  17.985   1.491 -0.0723  0.2907  0.0393
12576W        W28045   2.094   7.230   0.007 -0.0807  0.0408  0.2601
12577W        W28046   9.852  13.095  12.986 -0.0374  0.1809 -0.2126
12578W        W28047   9.463  13.005  14.764 -0.2110 -0.0844 -0.0569
12579W        W28048   6.930  11.983  14.677 -0.0996  0.1623  0.0519
12580W        W28049   1.971   5.062   0.387 -0.0231  0.0303  0.0894
12581W        W28050   9.432  14.910   0.542  0.0687  0.0407 -0.0591
12582W        W28051  14.945  16.624   0.364 -0.0527  0.1240 -0.0510
12583W        W28052  13.243   7.742   4.380  0.0929 -0.0355  0.0446
12584W        W28053   8.856   3.889   0.178 -0.1040  0.1908 -0.3016
12585W        W28054  17.172  11.490   3.277  0.2408  0.2146  0.1382
12586W        W28055   4.167   0.597   4.693 -0.0475  0.0292  0.1130
12587W        W28056   8.836   8.830  15.780  0.1644  0.1297  0.2371
12588W        W28057   0.358  18.314  10.939  0.0989  0.2626  0.2733
12589W        W28058   0.252   2.776   1.098  0.0150  0.0111 -0.1347
12590W        W28059  16.244  14.387   0.996 -0.0720  0.0760  0.0943
12591W        W28060  17.667  17.862  12.599 -0.1878  0.1555 -0.3465
12592W        W28061   5.245   6.675  14.231  0.1441  0.3182  0.0215
12593W        W28062   3.887   9.660  11.435  0.1278  0.1896 -0.1606
12594W        W28063  16.725  17.651  12.779  0.2590 -0.1538  0.3223
12595W        W28064  14.918   8.255   2.445  0.2507  0.2907  0.0852
12596W        W28065   8.250  13.679   1.240 -0.1116  0.2912  0.2350
12597W        W28066   2.169   6.210   2.375 -0.1452  0.2163  0.0593
12598W        W28067  15.035  10.606   2.591 -0.1597 -0.2768 -0.1517
12599W        W28068  13.224  12.280   0.292 -0.3964  0.3071  0.0283
12600W        W28069  10.576   3.342  15.086 -0.1480 -0.1130  0.1180
12601W        W28070  11.872  14.404  13.731  0.0075  0.3323 -0.1249
12602W        W28071  18.531   3.364   2.132  0.0641 -0.1707 -0.1674
12603W        W28072  13.420  12.068   1.443 -0.0881  0.1030 -0.1839
12604W        W28073   4.697  17.763   4.153 -0.4249 -0.1369 -0.2515
12605W        W28074  11.732   3.767   2.774  0.1464 -0.2290  0.0280
12606W        W28075  13.494   6.078  10.939  0.0455  0.1124 -0.3406
12607W        W28076  17.492  18.412  15.690 -0.1094  0.2834 -0.0030
12608W        W28077   2.023  17.282   2.258 -0.1686 -0.0704 -0.0800
12609W        W28078  16.762  18.540   1.161  0.1880  0.0999  0.0990
12610W        W28079   0.244   6.385   1.349 -0.2024 -0.0793  0.2068
12611W        W28080   3.276  14.459   3.595  0.1584  0.1124  0.1482
12612W        W28081   6.725  12.148   3.402 -0.3459  0.1706 -0.0679
12613W        W28082  11.099   8.466  10.802  0.1407 -0.0284 -0.1833
12614W        W28083   3.591   3.234  13.930  0.0326  0.3664  0.3935
12615W        W28084  11.364   5.717   1.938  0.1056  0.2385 -0.3026
12616W        W28085   6.047   1.713   5.572 -0.1794  0.2004 -0.0357
12617W        W28086  18.333   5.011   4.014 -0.3511  0.0480 -0.1562
12618W        W28087   1.858   0.990  15.459  0.2206  0.1250 -0.0480
12619W        W28088  15.177   9.818   0.307 -0.0681  0.0274 -0.1480
12620W        W28089   9.513   6.931   1.418 -0.0048  0.0955  0.1419
12621W        W28090   9.466  13.959  13.381  0.2409  0.5589 -0.6130
12622W        W28091   4.728  13.135  13.781 -0.0821  0.1800 -0.0329
12623W        W28092   2.340   1.785   4.925 -0.3125 -0.0446 -0.3221
12624W        W28093   0.755   2.150  13.425  0.1038  0.1719 -0.1225
12625W        W28094   9.694  15.569  13.015 -0.2228  0.0610 -0.3659
12626W        W28095   3.600   1.284   4.584 -0.1917 -0.2260  0.1766
12627W        W28096  14.718   7.488   5.381  0.2107 -0.1806 -0.1944
12628W        W28097   9.405   8.136   0.142  0.1401 -0.2195 -0.0039
12629W        W28098   0.081   0.162   5.131 -0.1167  0.2282 -0.1234
12630W        W28099  14.481  11.551  12.553  0.0759 -0.0380 -0.0012
12631W        W28100  10.729   3.873   0.999 -0.1657  0.0854  0.4189
12632W        W28101   4.338  13.533   3.400 -0.1460  0.0421  0.1467
12633W        W28102   8.755  14.675  14.173 -0.0168  0.0753 -0.1186
12634W        W28103   2.743  13.392   5.836  0.1866  0.0327 -0.3143
12635W        W28104   9.862   2.835   3.142  0.1741  0.3232  0.0183
12636W        W28105  11.632  17.386   3.269 -0.1754 -0.0032 -0.2017
12637W        W28106   5.698  14.540   4.204 -0.0635  0.1947  0.2561
12638W        W28107   2.672   1.254   1.201  0.0615  0.0343 -0.3009
12639W        W28108   4.500   0.298   2.756  0.0090 -0.1670 -0.2811
12640W        W28109  10.654   3.476   3.829  0.0909 -0.1164  0.0775
12641W        W28110   7.142   7.980   3.368 -0.0286 -0.0378 -0.2435
12642W        W28111  10.672   8.964   1.803  0.1168  0.3011 -0.1041
12643W        W28112  14.250   5.152   4.728 -0.1357  0.0716 -0.1827
12644W        W28113   3.285  10.620  13.723 -0.0136  0.1615  0.1472
12645W        W28114  10.498  17.545  15.620 -0.2835 -0.0147 -0.1403
12646W        W28115  14.379   5.228   4.232  0.1129 -0.1923 -0.0311
12647W        W28116   7.960   8.090   0.514 -0.0135  0.0395  0.1224
12648W        W28117   8.018  14.048   9.515 -0.0935  0.4145 -0.1853
12649W        W28118  11.028   1.626  14.635 -0.1481 -0.0326 -0.0231
12650W        W28119   1.818   8.660  11.298  0.0550  0.0622 -0.4747
12651W        W28120   7.125   7.910   5.063  0.1414 -0.0488  0.2015
12652W        W28121  13.109   4.613  14.941  0.1981 -0.1409 -0.1593
12653W        W28122   5.498   2.262  11.158 -0.0753 -0.1172 -0.0925
12654W        W28123  16.938  17.544   2.884 -0.2478  0.0849  0.0701
12655W        W28124   0.720   5.387   1.622  0.3937  0.1906  0.1587
12656W        W28125   9.162  12.083  12.207 -0.0016 -0.0697  0.1195
12657W        W28126   6.585  15.224   0.022  0.1716  0.1229 -0.1116
12658W        W28127  14.346  17.740  12.705 -0.0820  0.2607 -0.1283
12659W        W28128   4.509  13.957   0.303  0.0018  0.2817  0.1734
12660W        W28129  17.157  18.050  11.873  0.2615 -0.1697 -0.0630
12661W        W28130   3.562   4.138   4.154 -0.2702 -0.2427  0.3958
12662W        W28131  18.449  18.199   6.112 -0.0746  0.2801  0.1840
12663W        W28132  18.140  10.512   1.537 -0.2984 -0.3300 -0.0726
12664W        W28133   9.250  17.957   2.317  0.0621 -0.0753 -0.0668
12665W        W28134   3.661  16.893   1.776  0.0241  0.1685 -0.0489
12666W        W28135   2.405  10.928   1.209 -0.2580  0.2756  0.2956
12667W        W28136   4.066  17.043  14.506 -0.1645 -0.1655 -0.1772
12668W        W28137   4.085  11.883  11.233  0.0321  0.0910 -0.0427
12669W        W28138  13.268   8.518   4.937 -0.2105 -0.0657 -0.0344
12670W        W28139   9.654  14.684  15.433 -0.0859 -0.0486  0.0082
12671W        W28140  10.334   9.631  11.921 -0.0861 -0.2103  0.1425
12672W        W28141  10.407  12.925  13.011  0.0500 -0.2150 -0.0926
12673W        W28142   8.660   3.818  15.193 -0.1094  0.1764 -0.0486
12674W        W28143  10.304   6.990  14.645 -0.0267  0.0115  0.0699
12675W        W28144   0.166  12.731   2.724 -0.1798 -0.3811 -0.0812
12676W        W28145   2.603   9.774   0.620 -0.1398  0.1518  0.1685
12677W        W28146   7.918  10.781   4.209  0.1357 -0.2037 -0.1302
12678W        W28147  10.388   8.047  11.656 -0.0796 -0.0159 -0.2148
12679W        W28148  13.181  13.443   4.102 -0.1451  0.1915 -0.0375
12680W        W28149  14.295   5.299  15.098 -0.0442  0.1238  0.0318
12681W        W28150   9.576   0.301   0.712 -0.1898  0.4418  0.2966
12682W        W28151   3.270  14.064   2.518  0.1208  0.1124 -0.1089
12683W        W28152  13.657  12.937   3.575 -0.0128 -0.0445 -0.2061
12684W        W28153  14.979  16.940  15.415 -0.0121 -0.1558  0.1316
12685W        W28154   7.865   5.426  10.540 -0.1590  0.2330 -0.2014
12686W        W28155   4.443   6.275   4.163 -0.1188  0.0714  0.0237
12687W        W28156   2.365   0.316  15.038 -0.1449 -0.0904  0.2017
12688W        W28157  11.604   3.270  11.985  0.1172  0.0151  0.1277
12689W        W28158   7.922  11.254  10.875 -0.0245  0.0277  0.1415
12690W        W28159  12.304   9.532   4.886  0.1417  0.0033 -0.3382
12691W        W28160   8.559   4.286   3.029  0.2293  0.0772 -0.1873
12692W        W28161  14.388  13.728   2.611  0.2242 -0.0329 -0.0450
12693W        W28162  10.044  15.203   2.931 -0.1817  0.0082 -0.1882
12694W        W28163   0.611  14.717   1.697 -0.0595  0.1951 -0.2333
12695W        W28164   8.426   0.364   5.628  0.2362  0.1842  0.3215
12696W        W28165  15.224  16.880  12.875 -0.1902 -0.2029 -0.2057
12697W        W28166   0.373   5.603  12.720  0.1738 -0.1297 -0.0743
12698W        W28167   1.672   8.775  13.550  0.1722 -0.0261 -0.0333
12699W        W28168   3.657   7.270   2.907 -0.2142 -0.0392  0.4322
12700W        W28169   3.756  12.517   0.902  0.0054 -0.0416 -0.0384
12701W        W28170  13.633  16.773  13.221 -0.1418 -0.2439  0.1073
12702W        W28171  15.835   4.760  11.917 -0.1912  0.0344  0.1024
12703W        W28172   2.939  16.273  15.190 -0.2164  0.0954  0.3871
12704W        W28173   4.055   8.333  15.710 -0.1567  0.2182  0.2927
12705W        W28174   6.682   5.090  12.427 -0.1855  0.1110  0.3123
12706W        W28175  10.290  10.172   3.062 -0.1304 -0.1776 -0.0360
12707W        W28176   2.720  10.862   5.478  0.2454 -0.1894  0.0296
12708W        W28177   8.546   0.090  12.483  0.1120 -0.2322 -0.2829
12709W        W28178   4.383   1.429  14.257  0.0021  0.0743  0.3398
12710W        W28179   2.485  17.722   1.676 -0.0635 -0.2802 -0.1641
12711W        W28180   9.851   8.775   5.383  0.3626 -0.2821 -0.0476
12712W        W28181  17.906   5.065  15.006 -0.3249  0.2382 -0.2603
12713W        W28182   6.119  13.101   2.754 -0.0507 -0.2183 -0.1258
12714W        W28183   4.838   0.343  12.756 -0.0490 -0.1203  0.1646
12715W        W28184  15.389  18.467   4.684  0.4522 -0.2520  0.2058
12716W        W28185   9.009  12.834   0.514  0.0716 -0.1028 -0.1257
12717W        W28186   6.658  15.586  14.969 -0.1656 -0.2708  0.0534
12718W        W28187   2.591  16.468  15.565  0.2189  0.2946 -0.2072
12719W        W28188   2.942   2.082   0.812 -0.0889 -0.0614  0.1199
12720W        W28189  17.284   9.815   4.604  0.0552  0.1517 -0.0027
12721W        W28190  18.473  12.205  10.721  0.0229  0.1204 -0.1861
12722W        W28191  12.818  11.726  11.795  0.1344 -0.0623  0.0776
12723W        W28192   4.748   7.223  15.081  0.0059  0.2363 -0.2010
12724W        W28193  10.158   5.146   4.592  0.1699 -0.1158 -0.0480
12725W        W28194   1.123   7.266  12.899 -0.0781  0.1240 -0.0849
12726W        W28195  18.273   9.754  15.720 -0.1349  0.1786 -0.1232
12727W        W28196  16.216   8.394   9.282  0.1197 -0.1578 -0.0901
12728W        W28197  13.706   5.833   2.637 -0.2487  0.2029 -0.1324
12729W        W28198   8.511  14.361  11.561 -0.0129  0.1575  0.1509
12730W        W28199   5.142   1.841   1.489 -0.0511 -0.1562  0.1836
12731W        W28200   3.128   7.241   2.914 -0.1292  0.3291 -0.1768
12732W        W28201   5.034   9.455   1.777  0.1709  0.1630  0.2110
12733W        W28202  13.977   5.539   3.816  0.1671  0.1091 -0.1120
12734W        W28203   7.050  13.653   3.859 -0.1978  0.0710  0.1818
12735W        W28204  11.712  12.640  13.338 -0.1460  0.1687  0.1043
12736W        W28205   0.903  17.936   1.579  0.1569 -0.2450 -0.1060
12737W        W28206   7.174  16.350   4.343  0.0919  0.1033 -0.2311
12738W        W28207  18.231   6.064   1.457  0.2703 -0.1420  0.3598
12739W        W28208  10.192   6.470   5.156 -0.1942 -0.1211  0.3543
12740W        W28209   5.808   6.589  14.231  0.0075  0.2417 -0.3301
12741W        W28210   9.297   3.745  15.167  0.0715  0.1513  0.1162
12742W        W28211   7.343  13.885  13.869 -0.2091 -0.2993 -0.0966
12743W        W28212  12.895  17.233  11.156  0.2748 -0.1494 -0.0648
12744W        W28213  16.458  12.798   5.060 -0.1276 -0.0811  0.1362
12745W        W28214   3.313   4.554   2.951 -0.1692  0.2128 -0.1480
12746W        W28215   9.347   1.763   1.578  0.1299  0.0075  0.1298
12747W        W28216   9.610  18.460   5.075 -0.1063  0.0000  0.1252
12748W        W28217  11.661   9.878  10.962 -0.1968 -0.2060 -0.2558
12749W        W28218   4.610   8.377  14.574  0.2555 -0.1024  0.1918
12750W        W28219  16.019   8.791   1.685 -0.2433  0.0437 -0.1572
12751W        W28220   3.543  17.677   2.485 -0.2174  0.0246 -0.0300
12752W        W28221   4.050   0.528  13.880 -0.3273  0.2619  0.1690
12753W        W28222   0.924  12.537  13.029  0.1448 -0.3406 -0.1786
12754W        W28223   4.937  15.530  11.517  0.2741 -0.0613 -0.2007
12755W        W28224   1.153  14.829  12.259 -0.1291  0.1841  0.2896
12756W        W28225   2.634   8.961  13.078 -0.1744  0.0350  0.2481
12757W        W28226   1.743  16.723   2.254  0.0105  0.1492  0.0117
12758W        W28227  11.873   2.194   0.078 -0.0863  0.1475  0.0565
12759W        W28228  11.165   8.486   4.239 -0.0124  0.1634  0.0348
12760W        W28229   2.919   3.371   1.373 -0.0930 -0.0475  0.0812
12761W        W28230  11.752   1.458  12.149 -0.1591  0.2773 -0.1323
12762W        W28231   4.529   1.377   3.615 -0.0603  0.0864 -0.0186
12763W        W28232   6.247   8.836   5.107 -0.0320 -0.1291 -0.0726
12764W        W28233  10.441  18.441  12.187  0.2126 -0.0681  0.5096
12765W        W28234   4.652   0.439  12.309 -0.1702 -0.1075 -0.1079
12766W        W28235   6.396  13.864   1.681 -0.4242 -0.0741  0.1567
12767W        W28236   4.221   2.146  12.132 -0.0845  0.0328 -0.2817
12768W        W28237  10.007  13.049   2.981  0.1003  0.0359 -0.1877
12769W        W28238   3.444  10.555  12.642  0.1164  0.1809  0.1601
12770W        W28239  16.505   2.355  15.223  0.0840  0.1293  0.0306
12771W        W28240   5.470   5.371   0.521 -0.0058 -0.0856  0.1004
12772W        W28241  11.451  17.993   5.398  0.1394  0.0618  0.1668
12773W        W28242  13.681  14.483   1.530  0.0160  0.1495  0.0187
12774W        W28243  13.538   1.718   6.354 -0.2954  0.3960 -0.1670
12775W        W28244  11.284   4.581   1.101 -0.0979  0.3699 -0.0634
12776W        W28245   8.699   3.608   0.548 -0.2225  0.3402  0.2378
12777W        W28246   7.836  14.322  15.633 -0.2638  0.0065  0.0587
12778W        W28247  10.158  18.402   5.703  0.0766  0.0269 -0.1759
12779W        W28248  16.534   6.010   4.029 -0.2554 -0.2290 -0.0601
12780W        W28249  18.026  17.608  14.276 -0.2164 -0.2373  0.0103
12781W        W28250   9.324   3.742   6.350 -0.0605 -0.0228 -0.0265
12782W        W28251  12.680  16.404   0.059  0.0471 -0.0261 -0.0765
12783W        W28252   6.615  14.251   0.457  0.0461 -0.2015  0.0282
12784W        W28253  16.596  18.072  14.172 -0.2136  0.0743 -0.0716
12785W        W28254   5.236  12.648  14.487  0.1119  0.0118 -0.1466
12786W        W28255  14.918   6.588   4.652  0.1441 -0.1515 -0.3074
12787W        W28256  10.083  18.524   5.218 -0.0622  0.0673  0.0286
12788W        W28257   3.875   1.436  14.097 -0.0446  0.1125  0.0515
12789W        W28258   3.252  15.390   4.257  0.1301 -0.3933  0.2055
12790W        W28259  10.409   2.195   3.412 -0.4865  0.0724 -0.1604
12791W        W28260  18.328  13.785   0.699 -0.1025 -0.0091  0.1025
12792W        W28261  16.363  14.694   3.040 -0.0599 -0.0282  0.0338
12793W        W28262   2.656  18.536   5.418 -0.2105 -0.3686  0.1975
12794W        W28263   2.306   4.114   2.695  0.0229 -0.3674  0.0885
12795W        W28264   0.823   4.329  12.579  0.1552 -0.1596  0.0456
12796W        W28265  13.545   3.388   3.286  0.3837 -0.1603  0.0818
12797W        W28266  18.529  13.079   3.848 -0.3141  0.2363  0.1175
12798W        W28267  12.718  14.306  13.802 -0.0537  0.1554 -0.5087
12799W        W28268  14.904  15.436   4.217  0.0440  0.0802 -0.0697
12800W        W28269   6.328   4.233  15.349  0.2051 -0.2935  0.2257
12801W        W28270  17.056   3.254   1.236  0.2424  0.4463 -0.1472
12802W        W28271  18.536   0.605   4.449  0.0057  0.0843 -0.1261
12803W        W28272  10.032  17.520   4.090  0.0937 -0.1824  0.1104
12804W        W28273  10.142  16.952   2.160  0.1441  0.2434  0.1634
12805W        W28274   8.534   4.723  14.805 -0.3307  0.0584  0.2185
12806W        W28275   0.046  17.137  15.543 -0.2475 -0.1069 -0.2229
12807W        W28276   6.160  15.423   3.473 -0.0669 -0.1042 -0.2504
12808W        W28277   6.481   5.515  13.601  0.2209 -0.0328 -0.0596
12809W        W28278   6.127  16.032  11.369  0.0142 -0.1856 -0.1663
12810W        W28279  17.720   6.117  13.005  0.3470  0.0273 -0.2728
12811W        W28280   6.357   3.411   0.976 -0.2876  0.2828  0.1135
12812W        W28281   9.144  15.483   4.298 -0.0262  0.0872  0.0231
12813W        W28282   3.357  13.687  11.649  0.0395 -0.0002 -0.0984
12814W        W28283   9.456  18.042  15.434 -0.2305  0.1611  0.1905
12815W        W28284   0.187  12.414  10.403  0.0059 -0.1085 -0.0882
12816W        W28285   9.488  13.830   3.890 -0.1059  0.0316  0.4264
12817W        W28286  11.577  13.478  13.475 -0.0937 -0.3165  0.4329
12818W        W28287   4.498   9.169   4.346 -0.0694  0.1833  0.1179
12819W        W28288  12.519   4.539   4.594 -0.2206  0.3703  0.1275
12820W        W28289   0.075   8.266   0.044  0.1850  0.3361  0.0898
12821W        W28290  17.862   6.585   2.357 -0.0281 -0.1495 -0.0673
12822W        W28291   3.414   9.674  11.497 -0.0995  0.0272  0.0301
12823W        W28292  18.475   1.210   6.003  0.1447 -0.0360  0.1560
12824W        W28293   9.938  10.585   3.730  0.2791  0.2090 -0.3439
12825W        W28294  11.443   7.972  11.373 -0.0736  0.0796 -0.1326
12826W        W28295  18.562  12.855  11.322 -0.2011 -0.0965 -0.0461
12827W        W28296   0.930  17.349  14.008  0.0319 -0.1585  0.1002
12828W        W28297  14.884   9.911  13.265  0.0265 -0.1979 -0.1152
12829W        W28298   7.720  16.698   0.490 -0.0319  0.2408  0.4006
12830W        W28299  12.440  14.237  11.528 -0.2157  0.1932 -0.0217
12831W        W28300  17.322   6.844   2.774 -0.1124  0.0357 -0.0092
12832W        W28301   9.329   7.501   1.556 -0.1614  0.0462  0.1761
12833W        W28302   6.101  10.369   4.974  0.3244 -0.1262  0.0352
12834W        W28303   5.326   8.960   5.171 -0.2842 -0.0439  0.1930
12835W        W28304   7.414   5.983  13.442 -0.0754  0.0326 -0.2630
12836W        W28305  12.830   3.389  15.015  0.2027 -0.1013 -0.2294
12837W        W28306   6.425  12.058  14.459 -0.3754  0.2094 -0.2290
12838W        W28307  12.895  10.463   0.185 -0.0063  0.2190  0.1141
12839W        W28308  13.709  17.267  11.869 -0.0740 -0.0880  0.0656
12840W        W28309   2.686   4.039   3.511  0.5105  0.1628 -0.1830
12841W        W28310  11.272  14.039  11.427  0.2029  0.2952  0.1276
12842W        W28311   6.839   1.003   1.590 -0.0945 -0.3074 -0.2158
12843W        W28312  15.813   1.160   1.347  0.3878  0.1970  0.0790
12844W        W28313   1.696   4.214   0.300 -0.2857  0.2409 -0.2460
12845W        W28314  12.885  15.081  10.363 -0.2407  0.1504 -0.0934
12846W        W28315   8.610  15.560   4.342 -0.1515 -0.1836  0.5260
12847W        W28316  11.428  18.495  11.379  0.1015  0.0221  0.2882
12848W        W28317  14.079  16.827   0.056 -0.2705 -0.3336 -0.1998
12849W        W28318  16.603   4.804  11.936 -0.0677  0.0303  0.4271
12850W        W28319   0.279   0.250  15.627  0.1216  0.1613  0.0450
12851W        W28320  10.600  15.487  11.687  0.3632  0.2044 -0.0002
12852W        W28321  14.182   7.658   3.384 -0.0298 -0.2808 -0.1647
12853W        W28322  15.858  14.019  11.693  0.0954  0.0011 -0.0477
12854W        W28323  13.121  10.359  12.991  0.0360 -0.0364  0.1290
12855W        W28324  16.077   7.178   3.241  0.2338 -0.0204 -0.0429
12856W        W28325  17.713   9.429   1.618 -0.2761 -0.1760  0.1655
12857W        W28326  18.243   2.483   5.687  0.1958 -0.0369  0.1665
12858W        W28327   8.146   5.640   5.131 -0.2793  0.1177 -0.0675
12859W        W28328  18.618   1.508  15.769  0.0229  0.2486  0.0004
12860W        W28329  14.511   0.702   9.905  0.0960 -0.0467  0.1881
12861W        W28330  14.654   9.452   3.726 -0.1309  0.3188 -0.0588
12862W        W28331  17.755   4.166  14.457  0.2924 -0.0208 -0.1010
12863W        W28332  12.059  12.593  15.117  0.1132 -0.3984 -0.3180
12864W        W28333  17.807  11.129  15.306 -0.1484  0.1411 -0.0583
12865W        W28334  18.366  11.309   3.245  0.2158 -0.0980 -0.0675
12866W        W28335   2.453   4.079  15.096  0.1280  0.2413 -0.3281
12867W        W28336   9.839   5.153  11.770 -0.0824  0.2113 -0.0575
12868W        W28337   9.217   2.135  11.629  0.0088 -0.1172 -0.2416
12869W        W28338  11.742   2.288   4.948  0.1466  0.1375  0.1039
12870W        W28339  13.735   9.605   0.848  0.0029  0.0171 -0.2317
12871W        W28340  17.968  12.140   3.163  0.1670  0.1237  0.0920
12872W        W28341  12.120  14.710   1.717 -0.0647  0.3191 -0.1819
12873W        W28342  14.512  10.702   4.795 -0.2530 -0.0730 -0.2367
12874W        W28343  17.144  11.797  15.059  0.3517 -0.0872  0.1820
12875W        W28344  16.039  14.572  11.486  0.0045 -0.3276  0.1771
12876W        W28345  15.467   5.599  11.698 -0.0443 -0.0018  0.1592
12877W        W28346  10.631   8.457  10.481 -0.2352 -0.2408  0.0412
12878W        W28347   4.872  15.841   0.492  0.2023  0.0527 -0.2744
12879W        W28348   2.681   8.742   1.648 -0.0773  0.1120 -0.2450
12880W        W28349   2.732  10.803   4.134  0.1437  0.0691 -0.0226
12881W        W28350   8.237   4.916  14.142  0.0104  0.2553 -0.0073
12882W        W28351  10.213  10.454  10.780 -0.1139 -0.0186  0.0771
12883W        W28352  13.203  14.661  12.096  0.1562 -0.0982 -0.1590
12884W        W28353   5.882  10.134   0.332 -0.0647  0.2120 -0.2087
12885W        W28354   2.473   0.368   2.139  0.1815  0.1817 -0.0245
12886W        W28355  13.981  10.136   3.817 -0.0466 -0.0107  0.1964
12887W        W28356   1.940   1.728   4.578 -0.2608 -0.2981 -0.1955
12888W        W28357   2.199   3.260   2.266 -0.3945  0.0058  0.0015
12889W        W28358  12.316  13.641   1.471  0.0029 -0.3277 -0.0349
12890W        W28359   8.632  18.434  11.172  0.1584  0.3545 -0.5436
12891W        W28360   7.560   3.402   2.343 -0.0009  0.0086 -0.1105
12892W        W28361  12.909  14.209  13.235  0.0039 -0.2361  0.0535
12893W        W28362   4.057   3.218  14.092 -0.2305 -0.0535 -0.3810
12894W        W28363   4.991   0.147   1.300  0.1781 -0.0660  0.0937
12895W        W28364  15.092  16.354  10.413  0.1935  0.0846  0.1733
12896W        W28365  15.485  17.523   4.523  0.3160  0.3965  0.1503
12897W        W28366  17.208  15.049  12.654  0.0189  0.0726 -0.1592
12898W        W28367   3.906  12.695  13.846  0.2506 -0.0858 -0.0029
12899W        W28368   7.195  11.363   0.518 -0.2247 -0.1996  0.1729
12900W        W28369   7.728   8.245   1.006 -0.0248 -0.1234  0.0543
12901W        W28370  12.714   0.935   6.901  0.3156  0.2475 -0.2985
12902W        W28371   3.515  10.567  11.754  0.1010  0.0704 -0.0432
12903W        W28372  18.221  12.594  12.800 -0.0429 -0.0229  0.1645
12904W        W28373   7.343   7.906  11.450  0.1861  0.0953  0.0094
12905W        W28374  14.120  15.211   0.268 -0.0752 -0.0163  0.0900
12906W        W28375  12.236  12.612  14.083  0.2522  0.2030 -0.1580
12907W        W28376   6.775  16.890  12.269  0.2851  0.0912  0.4020
12908W        W28377  11.969   4.576   3.266 -0.0703 -0.1005 -0.0127
12909W        W28378   6.252   6.997  12.860 -0.1259 -0.1435 -0.3682
12910W        W28379  14.753  11.800   0.595  0.2107 -0.3173  0.1125
12911W        W28380  14.484   2.404   0.780 -0.3437  0.1728 -0.2877
12912W        W28381   1.467  12.979   9.914 -0.0276 -0.1316  0.1502
12913W        W28382   7.417   4.473   4.371  0.1952 -0.1233  0.1053
12914W        W28383  15.292  15.299   6.232  0.1514 -0.1509 -0.2896
12915W        W28384  17.441   9.975   1.743 -0.1073  0.2124 -0.1321
12916W        W28385  16.940   8.539   0.672  0.1302 -0.0741 -0.0907
12917W        W28386  15.979  10.198  14.031  0.2130  0.2991 -0.1767
12918W        W28387   7.122   2.430  11.478  0.0771  0.1355 -0.1843
12919W        W28388  12.040   8.093   3.684  0.0083 -0.1319 -0.1829
12920W        W28389   2.974  17.701   5.530 -0.0084  0.1207 -0.0694
12921W        W28390   9.225   6.406  11.405  0.0301  0.2058  0.0190
12922W        W28391  16.839  11.849  14.432  0.1704 -0.1545 -0.0116
12923W        W28392   7.039  14.525   0.294 -0.1734  0.2710  0.0676
12924W        W28393  17.903  12.665   2.655  0.2721 -0.0939  0.1227
12925W        W28394   0.471   5.609   4.082  0.0103 -0.1565 -0.0052
12926W        W28395   5.316  12.924   4.720  0.3575 -0.1045 -0.3785
12927W        W28396   1.481  16.315   1.523 -0.0482 -0.1245  0.0261
12928W        W28397   8.978  17.917  11.920 -0.0406 -0.1258  0.1023
12929W        W28398   1.141  16.112  14.544  0.1890  0.0431 -0.4395
12930W        W28399  12.560   7.934  12.051 -0.3668 -0.2503 -0.1176
12931W        W28400  11.392  18.200  14.939 -0.0740 -0.0620  0.1782
12932W        W28401  11.075  12.037  11.527  0.2231 -0.3277  0.0113
12933W        W28402   7.304  18.444   1.302  0.1702  0.3708 -0.2400
12934W        W28403  12.005  14.216   3.113  0.2161  0.1405 -0.1436
12935W        W28404   3.928  16.683   1.271  0.1105  0.0016  0.2964
12936W        W28405  11.398   2.783  11.410  0.0225 -0.1461 -0.2098
12937W        W28406   8.843   5.553  13.380  0.1381 -0.1546 -0.2399
12938W        W28407  14.897   7.755   2.375  0.0672 -0.1295  0.2080
12939W        W28408  11.192   0.900   4.728 -0.1131  0.3071 -0.1493
12940W        W28409  15.033   9.748  11.890  0.0784  0.3461  0.1410
12941W        W28410  14.241  13.614  11.454 -0.1008  0.1476 -0.0900
12942W        W28411   8.062  10.080   0.423  0.1917  0.5875  0.1818
12943W        W28412  14.806   1.027   5.788 -0.3353  0.0587  0.1992
12944W        W28413   6.071   0.324   0.957 -0.1671  0.0608  0.3917
12945W        W28414  11.092   3.681  12.901 -0.0376 -0.4800  0.0586
12946W        W28415   7.756  14.687   1.127  0.1499  0.4166  0.4746
12947W        W28416   9.412   4.849   1.847  0.1676  0.0472 -0.0750
12948W        W28417  16.080  17.007  11.924 -0.3321 -0.5613 -0.2580
12949W        W28418   7.554  11.911  13.135 -0.0190  0.1426 -0.4796
12950W        W28419   5.706   2.944   2.867  0.0593  0.0530 -0.1103
12951W        W28420  14.084   8.919   4.681  0.1022 -0.3643 -0.0522
12952W        W28421   1.833   6.173   2.009  0.1838  0.2840 -0.2315
12953W        W28422  15.369   9.935   2.982  0.0543  0.0271 -0.1987
12954W        W28423  10.555  12.616  14.522  0.0999  0.2855 -0.0937
12955W        W28424  11.240  15.978   2.991  0.1111 -0.0206 -0.1509
12956W        W28425  11.682  15.074   4.670 -0.3562  0.1532  0.1151
12957W        W28426   7.885  16.480  11.242 -0.1181  0.1992  0.2405
12958W        W28427   3.411   8.936   3.482 -0.1347  0.0405 -0.0588
12959W        W28428  13.635   1.875   2.501  0.0480  0.0656  0.0820
12960W        W28429   0.743   8.476   0.212  0.2703  0.0540 -0.0732
12961W        W28430   2.024  11.314  14.734  0.0831  0.1112  0.1436
12962W        W28431   7.790   1.483  11.985 -0.2196  0.0508  0.3549
12963W        W28432   6.240   4.295   0.676 -0.0569  0.0358 -0.1660
12964W        W28433   2.708  14.819  11.352  0.1443 -0.1120  0.0676
12965W        W28434   5.551  16.318   3.604  0.1333 -0.1091  0.0844
12966W        W28435  14.535   1.399  14.899  0.2003  0.1273 -0.3646
12967W        W28436  12.426   8.405   3.427 -0.0118  0.1146  0.4169
12968W        W28437   6.003  15.634  12.994  0.1909 -0.1036 -0.2980
12969W        W28438  10.674   4.557  13.868 -0.0272 -0.0439 -0.2376
12970W        W28439  17.173  17.600  13.232 -0.1766 -0.1902 -0.1456
12971W        W28440  10.763   1.908  13.396 -0.2138 -0.3917  0.1700
12972W        W28441  11.040  11.970  12.243  0.1514  0.0015 -0.2886
12973W        W28442   8.621  17.396  12.513  0.1635  0.1037  0.0822
12974W        W28443  13.215   6.999   5.541 -0.1330 -0.0022  0.0120
12975W        W28444   6.450   2.369   3.019 -0.0210  0.2915  0.0246
12976W        W28445   6.597  13.124   4.728 -0.1961  0.0020 -0.1799
12977W        W28446   5.242  17.174   3.200  0.0553 -0.2414 -0.0939
12978W        W28447  18.072   9.740  13.094  0.2950  0.1839  0.1111
12979W        W28448  10.493  18.231   4.624 -0.1022  0.1374 -0.1580
12980W        W28449   0.563   6.332  11.021  0.1794  0.3859 -0.1207
12981W        W28450  14.186  13.065  15.225  0.0758  0.0336  0.0084
12982W        W28451  12.685   3.477   0.164 -0.0472  0.2027 -0.2330
12983W        W28452   7.941  12.574  12.087  0.2030 -0.3007 -0.0411
12984W        W28453  10.266   5.246  14.974  0.0273 -0.0790  0.0144
12985W        W28454   1.068  14.570  12.705  0.2472  0.0511 -0.0169
12986W        W28455   2.442   0.604   0.110 -0.3220  0.1737  0.0248
12987W        W28456  14.702   1.576  12.224  0.0319  0.0436  0.0243
12988W        W28457  12.846  13.064   9.773  0.1000 -0.0146 -0.1054
12989W        W28458   8.835  12.966   1.103 -0.2138  0.0816 -0.0298
12990W        W28459  12.474  12.554   5.652  0.1483  0.2333  0.1551
12991W        W28460   2.406   8.164   1.602 -0.1747 -0.0035  0.1695
12992W        W28461   7.530   9.372  12.052  0.0923 -0.1229  0.1709
12993W        W28462   5.789   1.969   6.310 -0.2082 -0.1199  0.0476
12994W        W28463  16.445  15.659   2.748  0.1024  0.1105  0.1737
12995W        W28464   3.802   5.851   3.806 -0.2016  0.1808  0.1933
12996W        W28465   3.530  13.862  14.115  0.0897 -0.1665 -0.0434
12997W        W28466   6.371  18.088   0.072  0.1376  0.0128  0.1271
12998W        W28467  14.289   1.335  12.223  0.1151 -0.1197  0.0192
12999W        W28468  13.753   8.554   4.978  0.0820 -0.1125 -0.1377
13000W        W28469  12.116  11.785   2.175 -0.2987 -0.0651 -0.1344
13001W        W28470   7.501   7.905  13.901  0.1537  0.0494 -0.0198
13002W        W28471  10.774  10.413   4.061  0.1361  0.0631  0.1179
13003W        W28472  13.808   3.619  12.206  0.1929 -0.0314 -0.0669
13004W        W28473   2.845  14.770   3.697 -0.0854 -0.0827 -0.0658
13005W        W28474  10.967   5.819  13.789  0.1604 -0.0314 -0.1502
13006W        W28475   3.951  13.211   4.156  0.0552 -0.1034  0.1657
13007W        W28476  15.411   9.209   4.939  0.2863  0.0774  0.0284
13008W        W28477   9.195  17.074   4.472 -0.2779 -0.2509 -0.0878
13009W        W28478   8.432   3.276  14.178 -0.1450  0.2583 -0.2308
13010W        W28479  15.240   1.747  12.154  0.0576 -0.2090  0.1174
13011W        W28480  10.812   2.478   3.555  0.0903  0.0048 -0.2322
13012W        W28481   0.441  17.720  14.097 -0.3148  0.1152  0.4329
13013W        W28482  11.123  14.930   2.268 -0.2963 -0.2237  0.1452
13014W        W28483   2.904  17.871   4.244 -0.1508 -0.0009 -0.1837
13015W        W28484   6.112   3.846  15.056  0.0865 -0.0686  0.2219
13016W        W28485  18.183  14.898  12.514  0.1685  0.1716 -0.3404
13017W        W28486  12.216  13.304  12.674  0.0469  0.2036  0.0439
13018W        W28487   7.294  11.184   1.038  0.0838 -0.1399 -0.0331
13019W        W28488   0.636   0.971   2.574  0.0488  0.0358  0.0964
13020W        W28489   5.599  17.111   1.284 -0.1051 -0.0093 -0.3726
13021W        W28490  16.705   7.347  12.298  0.0670  0.1023  0.0863
13022W        W28491   5.409   2.495  10.671 -0.0955  0.2598  0.2204
13023W        W28492   3.628   7.675  12.085 -0.2516  0.0519  0.2527
13024W        W28493  10.378  13.102  14.401  0.3155  0.2122 -0.1788
13025W        W28494   9.730   8.707  11.182  0.1076 -0.1611 -0.2133
13026W        W28495  11.874   4.388  14.209  0.1402 -0.0339 -0.0044
13027W        W28496   5.478  11.021   5.179 -0.0988 -0.1418 -0.4463
13028W        W28497  14.292   2.470  15.061  0.2027  0.3081  0.3926
13029W        W28498  12.516   8.243   2.936 -0.0821 -0.1350  0.1210
13030W        W28499   7.985  11.171  15.096 -0.0373  0.1228 -0.0924
13031W        W28500   1.541   8.775   0.822  0.1511  0.1430 -0.0422
13032W        W28501   3.004  16.980  11.990 -0.1372 -0.1321 -0.0301
13033W        W28502  18.113  12.968   4.648 -0.0234 -0.0736  0.2749
13034W        W28503   6.426   6.690  11.083 -0.0687 -0.1024  0.1785
13035W        W28504  11.274  13.945   4.969 -0.1511  0.1426 -0.2783
13036W        W28505   3.337  17.526   1.260  0.1203 -0.1160 -0.4928
13037W        W28506  18.589   0.020  11.757 -0.1887  0.0863 -0.1755
13038W        W28507   0.443   8.207  14.642  0.1178 -0.1051 -0.0238
13039W        W28508  14.465   4.896   2.358 -0.0841 -0.2473 -0.0625
13040W        W28509  11.584  16.696   2.214 -0.0842  0.1875 -0.0949
13041W        W28510   9.314  12.029   2.080  0.0611  0.1177 -0.2842
13042W        W28511  12.020   9.224  10.979 -0.0470  0.1216  0.1981
13043W        W28512   4.727  17.735   0.496  0.1426 -0.1155  0.0331
13044W        W28513  12.628   9.188  12.755 -0.1361  0.1931  0.1868
13045W        W28514   9.839   5.840  14.605  0.1482 -0.0243  0.0389
13046W        W28515   2.160   9.653  10.415 -0.0131  0.2476 -0.1431
13047W        W28516   7.633   0.142   3.809 -0.3318  0.2609  0.0792
13048W        W28517   1.248  17.981   4.642  0.3038  0.1123 -0.0539
13049W        W28518   9.911   9.279  10.513 -0.0925  0.0278 -0.3546
13050W        W28519   2.451   6.786   2.619 -0.0549 -0.0478 -0.1697
13051W        W28520  17.474  13.845  12.444 -0.2431  0.0141  0.1686
13052W        W28521  14.496   9.136  15.043 -0.1837  0.1135  0.2040
13053W        W28522  15.526  16.760   5.867 -0.0037 -0.2667 -0.1666
13054W        W28523   2.571  13.806  13.789  0.0298 -0.1372 -0.1912
13055W        W28524   2.042   7.232  12.374 -0.6740 -0.0802  0.1419
13056W        W28525  12.273  12.061   2.951  0.1055  0.1831  0.2108
13057W        W28526  14.390  17.785   0.270 -0.2899 -0.0798 -0.0347
13058W        W28527  11.191  13.511   0.747  0.2214 -0.5606 -0.3977
13059W        W28528   1.404  18.111  14.327  0.1027 -0.0620 -0.1462
13060W        W28529   0.193  11.550   3.185 -0.0426 -0.0669 -0.3853
13061W        W28530  17.468  10.564  11.720  0.0979 -0.1583 -0.1704
13062W        W28531   8.254   1.757   1.452 -0.0300 -0.2057  0.0826
13063W        W28532   5.856  16.040   2.336  0.0086 -0.0014 -0.3763
13064W        W28533   8.178  12.142   3.885 -0.0211  0.1623  0.1584
13065W        W28534   3.391   2.410  15.263 -0.3865 -0.0712 -0.1580
13066W        W28535  15.896   7.351   1.233  0.1517  0.3602 -0.1840
13067W        W28536  17.345   3.206  11.104 -0.2080 -0.0244 -0.2374
13068W        W28537   5.935   0.491   3.660 -0.1647  0.1157  0.1598
13069W        W28538   5.567  11.875  15.538  0.2624  0.0201 -0.0463
13070W        W28539  14.061  14.692  12.229 -0.2546 -0.0423 -0.1115
13071W        W28540   1.598   5.707   1.177 -0.1216  0.2551  0.2392
13072W        W28541  13.090  10.029   5.838  0.2227  0.3287 -0.0857
13073W        W28542  12.606   7.332  14.604 -0.0654 -0.3210 -0.0701
13074W        W28543   0.341  14.347   1.341 -0.0458  0.0535 -0.0323
13075W        W28544  12.805  18.010  14.870 -0.0084 -0.0606  0.2399
13076W        W28545   5.621   4.706   4.515 -0.0702  0.3094 -0.1925
13077W        W28546  14.543  16.340  12.449  0.1523  0.0046  0.1680
13078W        W28547  11.291   0.080   5.023 -0.0865 -0.0406  0.1212
13079W        W28548  15.201   4.678   2.874 -0.0685  0.3087 -0.5815
13080W        W28549   0.564   3.846   2.882 -0.1357 -0.0641  0.0716
13081W        W28550  13.731   6.922   2.486  0.0885  0.0099 -0.2106
13082W        W28551   4.354  16.566  14.600  0.1038  0.2211 -0.1258
13083W        W28552   8.725   0.158   4.159  0.1020 -0.1436  0.0752
13084W        W28553   4.566   4.038   1.044  0.0123 -0.3312 -0.1843
13085W        W28554   4.494   9.648   5.073  0.0648 -0.0935  0.1152
13086W        W28555   4.579   5.844   3.612  0.1079  0.1533  0.2433
13087W        W28556   1.626   9.500   2.662 -0.2280  0.0421  0.0330
13088W        W28557  18.015   8.012  12.213 -0.1174  0.1392  0.2316
13089W        W28558  17.797   6.534  14.700 -0.0296 -0.1297 -0.0436
13090W        W28559  17.441   3.813  13.846 -0.1823 -0.2006 -0.0404
13091W        W28560  11.074   2.062  14.364 -0.5077 -0.2466  0.3546
13092W        W28561   7.768  15.307  11.338 -0.0463 -0.0117 -0.1264
13093W        W28562   7.284  10.321  15.180 -0.2124 -0.1435  0.2489
13094W        W28563   3.694   0.427  12.698 -0.2775  0.1906  0.0395
13095W        W28564   8.399  11.004  13.006  0.0366 -0.1960  0.0495
13096W        W28565   8.791  11.783   4.338  0.3407  0.4293  0.2380
13097W        W28566  12.623   0.145   4.840 -0.0341  0.2098  0.1296
13098W        W28567   1.261   9.973  15.299  0.0086 -0.1318 -0.3751
13099W        W28568  10.404  10.711   1.211  0.3196  0.2401 -0.0464
13100W        W28569   2.299   2.684   1.084 -0.0126 -0.0069  0.2543
13101W        W28570  13.378   4.622   2.741 -0.0505  0.1369 -0.0919
13102W        W28571   5.590  10.833  13.892 -0.3088 -0.0629 -0.0588
13103W        W28572   7.011   9.765  12.721 -0.0792 -0.1487 -0.2205
13104W        W28573  10.626  10.086   3.408 -0.2381  0.2954 -0.1043
13105W        W28574   5.070  14.838   2.073 -0.1800  0.2386  0.0906
13106W        W28575  13.951   5.627  10.948  0.3190  0.2302 -0.1855
13107W        W28576  12.570   5.636  15.547 -0.1297  0.0766 -0.0437
13108W        W28577  12.080   2.087   2.764 -0.0594 -0.0723 -0.0597
13109W        W28578  16.493  11.248   3.955 -0.0152  0.2010 -0.2780
13110W        W28579  16.588   7.284   3.932  0.1843  0.0067  0.1233
13111W        W28580  10.989   4.710  15.190  0.1769 -0.1983 -0.4220
13112W        W28581  12.201   7.782  15.217 -0.0273  0.0236 -0.1804
13113W        W28582  10.246   1.529  14.141  0.4017 -0.1232  0.2029
13114W        W28583   9.620   7.096  12.710  0.0334  0.0982  0.2116
13115W        W28584   9.563  18.368   2.514 -0.2345 -0.1021 -0.2229
13116W        W28585  10.051   5.602  15.329  0.0800 -0.1179 -0.0094
13117W        W28586  13.055  14.619  14.060  0.0222  0.4278  0.2240
13118W        W28587  14.688  11.980  15.243 -0.4451 -0.1720  0.0995
13119W        W28588  12.444  10.817   0.171 -0.0907  0.4316 -0.3893
13120W        W28589  12.860  18.011  13.106  0.0514  0.0212  0.1624
13121W        W28590  18.050  12.819  14.375 -0.1616 -0.4035  0.0997
13122W        W28591   4.279  14.676   2.653 -0.0881 -0.0181  0.1852
13123W        W28592  14.534   5.587  14.387 -0.2179  0.1062 -0.0647
13124W        W28593   7.178   2.630  13.287 -0.1447  0.1093 -0.0490
13125W        W28594   0.353  18.096  12.098 -0.0977  0.2755 -0.2525
13126W        W28595   5.181   5.530  11.051 -0.1757 -0.1482  0.4896
13127W        W28596   8.314  17.099   2.207  0.3478 -0.3129  0.2791
13128W        W28597   5.433  15.884   1.289  0.0662  0.0362 -0.0344
13129W        W28598  15.777   3.670  14.187  0.1859 -0.0803 -0.1293
13130W        W28599  10.663  16.451   5.089  0.0695 -0.1244 -0.0977
13131W        W28600  17.569   9.814   1.268  0.0176 -0.1198  0.0854
13132W        W28601   9.823   5.416  14.825 -0.5942 -0.2063  0.1378
13133W        W28602  16.080   1.016  10.788  0.1505  0.6040 -0.2771
13134W        W28603   7.871  16.489  15.058  0.1021 -0.0900  0.2479
13135W        W28604  16.187   1.573   2.681 -0.2757 -0.2513  0.1845
13136W        W28605   4.715  11.228   2.019  0.1739  0.0251 -0.1080
13137W        W28606   0.798   6.743   0.605  0.2018 -0.2959 -0.0256
13138W        W28607   3.967   2.979  14.663  0.0078 -0.1014  0.2369
13139W        W28608   4.089  12.743   4.058 -0.1249 -0.1511  0.0655
13140W        W28609   4.481  11.301   4.358  0.0195  0.1304 -0.4053
13141W        W28610  17.209   8.949  12.678 -0.0942  0.0477 -0.2044
13142W        W28611  11.341  18.085  15.530 -0.1034 -0.1094  0.0755
13143W        W28612  10.331  16.732   0.702  0.0392  0.2694 -0.0432
13144W        W28613  11.836   0.159  11.156  0.0795 -0.2251 -0.1306
13145W        W28614   5.904  11.761   1.219  0.1487 -0.0281  0.1053
13146W        W28615  18.256   0.032   2.936  0.0513 -0.1448  0.1293
13147W        W28616   4.320   4.140  12.745  0.1406  0.2142  0.1367
13148W        W28617  11.214  10.404  13.356 -0.2395 -0.0019  0.0748
13149W        W28618  10.672   4.098   3.198 -0.1378 -0.3823 -0.0190
13150W        W28619   0.962   7.537   5.079 -0.1020  0.0072  0.1908
13151W        W28620   4.955  18.336  13.660 -0.0587  0.0488  0.1133
13152W        W28621  18.275  17.350  11.290  0.0109  0.0796  0.3470
13153W        W28622   3.779   0.945   0.750  0.0715 -0.1033 -0.1045
13154W        W28623  13.001   5.322  11.110  0.2459  0.1894  0.0138
13155W        W28624   0.940  16.088   2.225 -0.2373 -0.3516 -0.1145
13156W        W28625   7.559  17.745  12.478 -0.1062 -0.0726 -0.1129
13157W        W28626   7.294   5.915  11.460  0.0909  0.0402  0.0925
13158W        W28627  12.458  16.733   5.597 -0.0548  0.4385 -0.1265
13159W        W28628  11.864   4.642  10.991  0.2250 -0.2955 -0.2060
13160W        W28629   4.471  13.819  15.555  0.0966  0.0303 -0.2389
13161W        W28630  12.327   8.782   4.996 -0.1737 -0.4407 -0.2754
13162W        W28631   5.071  16.550  15.666 -0.0913  0.1216  0.1435
13163W        W28632  15.177  10.902  13.305  0.0280  0.1362 -0.1867
13164W        W28633  10.454   0.384   2.022 -0.0777 -0.1595  0.1068
13165W        W28634  15.526   0.758   1.671  0.3777 -0.2087  0.1033
13166W        W28635  13.331   0.044   0.209 -0.1258 -0.0147  0.1549
13167W        W28636  14.943   8.936  13.050 -0.2005  0.0414  0.1725
13168W        W28637  13.105  11.026   2.323 -0.1953  0.0963  0.0425
13169W        W28638   5.957  16.360   3.380 -0.0218 -0.0591  0.0361
13170W        W28639  17.961  12.474   4.909  0.1465  0.3276  0.1894
13171W        W28640   3.582   5.868  12.459  0.0054  0.0589 -0.0441
13172W        W28641  14.723   7.746  11.521 -0.0736 -0.0082 -0.2117
13173W        W28642   8.797  10.751   0.188  0.1242  0.2316  0.1390
13174W        W28643  18.039   3.707   4.420 -0.1148  0.1416 -0.3761
13175W        W28644  12.319   0.395  14.061  0.0647  0.1642 -0.0979
13176W        W28645  18.521   3.464  10.332 -0.1591  0.1685  0.1313
13177W        W28646  16.633  16.480   4.962  0.0860 -0.2069  0.1638
13178W        W28647  12.812  14.761   2.736  0.4370  0.0999  0.0419
13179W        W28648   4.450  13.931  13.475 -0.2062  0.2592  0.2293
13180W        W28649  17.342  15.907  13.805  0.0145 -0.2988  0.1989
13181W        W28650  15.953  17.541   1.044 -0.0763 -0.2146  0.2912
13182W        W28651  16.868  10.499   3.054 -0.0751  0.2697 -0.0344
13183W        W28652   4.644  16.315  13.836  0.0631 -0.2201  0.0953
13184W        W28653  13.046   1.619  15.488 -0.3220 -0.2540 -0.1544
13185W        W28654   3.298  18.061   3.892  0.0457 -0.3625 -0.0689
13186W        W28655  11.610   5.013   3.233 -0.1965 -0.0756 -0.3290
13187W        W28656  16.998  10.601   4.376  0.2755  0.1048  0.2604
13188W        W28657  18.370   8.864  10.249 -0.1745 -0.1697  0.4852
13189W        W28658   5.584   7.599   4.622 -0.2908 -0.0488 -0.0725
13190W        W28659   9.326   1.316   3.287  0.1054 -0.1459  0.0135
13191W        W28660  14.140   0.322  15.698 -0.0690 -0.1149 -0.0686
13192W        W28661  14.000   1.176   4.327 -0.1574 -0.0109  0.1767
13193W        W28662  10.934  15.225   0.158 -0.0374  0.1370  0.4233
13194W        W28663  12.059   7.511  11.628 -0.1865  0.0112 -0.1219
13195W        W28664  17.629  11.069   1.971  0.0562  0.0450 -0.1990
13196W        W28665  17.636   0.483   4.694 -0.1645  0.1212 -0.2028
13197W        W28666   8.730  17.275   1.825  0.2046 -0.0358 -0.2901
13198W        W28667   6.222   8.696   2.340  0.0831 -0.2226 -0.4275
13199W        W28668   1.185   6.126  12.342  0.1096  0.4139  0.2035
13200W        W28669   0.369   0.582  13.574  0.3704  0.0709  0.1198
13201W        W28670  17.254   8.700   3.694  0.0518 -0.0926  0.3880
13202W        W28671   2.235   9.721   0.271  0.2682  0.2727 -0.1381
13203W        W28672   6.701  16.501  13.918 -0.0717  0.0209  0.3323
13204W        W28673   8.417   9.105   4.808 -0.0627  0.0703 -0.1691
13205W        W28674  18.294  17.304  15.090  0.0925 -0.0195  0.0884
13206W        W28675  14.204  18.110  11.647 -0.1715 -0.2800  0.2747
13207W        W28676   6.399   9.747  15.049 -0.1899 -0.1532  0.0640
13208W        W28677   7.637   7.052  13.508 -0.2242 -0.0123 -0.3130
13209W        W28678   7.168   8.332   1.825 -0.0428  0.2549 -0.0691
13210W        W28679   8.609   9.570  15.206 -0.1814  0.0632 -0.1673
13211W        W28680  14.924   6.785   0.083 -0.0043 -0.1534  0.2188
13212W        W28681   3.339   7.050  10.154  0.0290  0.0663 -0.1072
13213W        W28682  18.357   1.264   1.566  0.2243 -0.3373 -0.2689
13214W        W28683  17.954   9.855   1.694 -0.1315 -0.1477  0.0031
13215W        W28684   0.232  16.817  12.967 -0.0790  0.0479  0.0784
13216W        W28685  15.302   3.928   1.240  0.1520  0.1078 -0.1042
13217W        W28686   4.576  12.083  12.979  0.3582  0.2315 -0.1620
13218W        W28687   4.161  13.502  11.176 -0.1980 -0.0608 -0.3761
13219W        W28688  16.287   4.198   9.406 -0.2421 -0.1636 -0.0999
13220W        W28689  10.452   3.903   5.346 -0.0696 -0.4052  0.3141
13221W        W28690  12.240  14.469   3.816  0.1152  0.3944 -0.1990
13222W        W28691   0.557  14.252  12.986  0.1976  0.0709  0.2854
13223W        W28692   1.213  11.966   4.357  0.1555 -0.0721 -0.1410
13224W        W28693   7.026   4.830   4.659 -0.1182 -0.0013 -0.1317
13225W        W28694  15.919  10.267  14.531 -0.0518 -0.0160  0.2716
13226W        W28695   2.404   3.179  14.419  0.0882  0.0242  0.1752
13227W        W28696  13.113  17.366  13.280 -0.0499  0.4790  0.3122
13228W        W28697  15.099  12.482   2.386  0.1359 -0.0400 -0.2710
13229W        W28698   3.365   0.398   5.184  0.0029 -0.1091  0.0873
13230W        W28699   5.266   3.352  11.625 -0.5051  0.1592 -0.4468
13231W        W28700   5.504   6.874   4.947  0.0522  0.3746  0.0355
13232W        W28701  15.984   1.135   4.077 -0.0368  0.2856  0.0145
13233W        W28702   5.023  18.333  11.837 -0.0834 -0.2093  0.2138
13234W        W28703  11.625  16.127  13.216  0.0150  0.1457  0.1117
13235W        W28704   0.204  13.091  13.199 -0.1334  0.1748 -0.0389
13236W        W28705  17.231  16.048  11.858 -0.3185  0.1746  0.1429
13237W        W28706  16.260  12.684   1.168 -0.1716 -0.2239  0.3879
13238W        W28707  14.493   5.352  13.623  0.1525  0.0494 -0.2199
13239W        W28708  11.069   0.671  15.089 -0.0632  0.2278 -0.1753
13240W        W28709  10.636   4.895  11.748  0.2192  0.0493 -0.0973
13241W        W28710   6.880  16.161  11.535  0.2429 -0.0586  0.1565
13242W        W28711  14.717   0.464   0.619  0.4058 -0.5216  0.2522
13243W        W28712   3.234   8.020   4.084 -0.1430 -0.0141  0.0960
13244W        W28713   3.886  16.807  12.424  0.0312 -0.1564 -0.1399
13245W        W28714  10.138   9.083  14.581 -0.0819 -0.2071  0.1648
13246W        W28715   2.410  14.113   2.435 -0.0966  0.0242  0.0150
13247W        W28716   1.367   8.047  15.487  0.0937  0.2245  0.3025
13248W        W28717   8.245  15.385  12.347 -0.2609  0.1533 -0.1270
13249W        W28718   1.597  14.639  12.622  0.1171 -0.0704 -0.1558
13250W        W28719   0.612  18.161  13.967 -0.0510  0.1580 -0.0448
13251W        W28720   9.839   1.209   4.545  0.2466 -0.3201 -0.0123
13252W        W28721  14.067  14.072  15.439  0.4765  0.3948 -0.0157
13253W        W28722   7.237   5.319   3.652  0.0706 -0.0949 -0.2185
13254W        W28723   0.725   2.124   3.382  0.0211 -0.3094 -0.0597
13255W        W28724   1.245   5.312   2.044  0.0592 -0.1248  0.3769
13256W        W28725   3.928  17.848  12.162 -0.0613  0.2715  0.1365
13257W        W28726  10.240  15.649  12.084  0.0998 -0.0443 -0.2475
13258W        W28727  10.428   5.454   0.169  0.2163  0.0240  0.0995
13259W        W28728  13.164   1.137   3.713 -0.2227  0.2940 -0.1702
13260W        W28729  18.363   0.474  10.956  0.0267  0.2162 -0.1717
13261W        W28730  12.221   0.485  11.482 -0.2722  0.1135  0.1013
13262W        W28731   6.060   2.683   0.468  0.0187 -0.1273  0.1536
13263W        W28732   4.811   2.011  12.623  0.0618 -0.3879 -0.2232
13264W        W28733   7.546   2.526   4.577 -0.1239 -0.0435  0.2179
13265W        W28734   6.295   7.707   1.041  0.0652 -0.1928 -0.0439
13266W        W28735   9.642   7.407   4.505  0.1296 -0.0328  0.0449
13267W        W28736   1.343  10.448  15.138  0.0812  0.0549 -0.3342
13268W        W28737  17.733  18.261  13.979  0.1870 -0.0095 -0.1479
13269W        W28738  16.972   0.515   5.755 -0.0859 -0.2616 -0.3436
13270W        W28739  12.003   3.776   5.183  0.2853  0.0354  0.1001
13271W        W28740   8.381   1.583   3.125 -0.0516  0.1314  0.0370
13272W        W28741  15.975   0.290  12.359  0.3435 -0.3194  0.2003
13273W        W28742  18.061  17.566  12.322 -0.3359 -0.1788  0.1078
13274W        W28743   3.490  10.726   3.618  0.1852  0.1172  0.0234
13275W        W28744   5.874  15.698  15.653 -0.2544  0.0376  0.0086
13276W        W28745  17.563   8.313   3.760 -0.0901  0.0860 -0.1358
13277W        W28746   9.152  15.557   2.950  0.2750 -0.0590 -0.0409
13278W        W28747   3.502  15.282   2.830 -0.1254 -0.2697 -0.2575
13279W        W28748  17.468   3.463   0.036  0.1665  0.1062 -0.2402
13280W        W28749  16.572   3.166   1.068  0.0193  0.0803 -0.0417
13281W        W28750  14.923  15.759  15.164  0.0511  0.0093  0.0777
13282W        W28751  10.532  13.597   5.294 -0.0507  0.0069 -0.1355
13283W        W28752  11.259  14.997  11.869 -0.3669 -0.0173 -0.2170
13284W        W28753  10.644  14.224  13.360  0.4838 -0.0272 -0.3288
13285W        W28754  13.317  16.815   1.061 -0.3045 -0.2045  0.0868
13286W        W28755   4.267   9.780  15.590  0.1052  0.1588  0.0516
13287W        W28756   1.770  13.317   3.420  0.0472 -0.1536 -0.2900
13288W        W28757  17.424   3.672  14.392  0.0971 -0.1244 -0.1548
13289W        W28758   8.102  14.995   0.286  0.2482 -0.3810 -0.4071
13290W        W28759   1.332  15.225   2.228  0.2633 -0.1122 -0.0492
13291W        W28760  15.375  11.232  11.680 -0.2164 -0.2647 -0.0222
13292W        W28761  11.409   6.956  15.490  0.0341  0.3042  0.1580
13293W        W28762   7.458   8.852  12.441  0.1846  0.1921  0.1520
13294W        W28763  16.121  10.561   0.564  0.2040 -0.0185 -0.0315
13295W        W28764  14.798  17.669  13.795  0.0189  0.0259 -0.0102
13296W        W28765  12.187   4.642   2.084  0.0212  0.0636  0.0238
13297W        W28766   4.291  14.392   2.172  0.2208 -0.0266  0.1200
13298W        W28767   3.848   0.372   2.301  0.1045  0.1028  0.3026
13299W        W28768  16.681  16.584   2.520 -0.1739 -0.0073  0.0868
13300W        W28769  12.498   2.909  14.840 -0.0678 -0.0958 -0.0022
13301W        W28770  17.959  10.888  12.389  0.0044 -0.0712 -0.1231
13302W        W28771  14.376   3.755  14.609 -0.0521 -0.3197  0.2425
13303W        W28772   5.434   2.714   1.839 -0.1393  0.0169 -0.1961
13304W        W28773  17.487   2.937  11.929  0.0129  0.0430  0.0636
13305W        W28774  13.475  13.574  11.415 -0.3261  0.2083  0.3435
13306W        W28775   1.445  18.214   0.602 -0.3675  0.1618  0.3839
13307W        W28776  11.836   6.353  13.071 -0.2601 -0.0144 -0.0479
13308W        W28777   7.608  17.998  11.466  0.1609 -0.0600 -0.2951
13309W        W28778  12.903  15.434   2.941 -0.4336  0.2992  0.0658
13310W        W28779   5.519   2.428  15.337  0.0304  0.3961  0.2892
13311W        W28780  12.037  10.957  14.152 -0.0864  0.2421  0.1087
13312W        W28781   4.360  16.425   4.026 -0.0225  0.0403  0.1772
13313W        W28782  18.048   5.722   1.970  0.0029  0.0146  0.0372
13314W        W28783   4.941  11.332  10.719 -0.0904 -0.0327  0.0947
13315W        W28784   1.254  13.936  12.311 -0.0078  0.3632 -0.0567
13316W        W28785   8.950   3.967   0.731 -0.0810 -0.3400  0.0925
13317W        W28786   0.832  15.410  11.225 -0.1186  0.3395 -0.0059
13318W        W28787   0.665  16.972   4.620  0.0935 -0.1022 -0.0092
13319W        W28788  14.016  10.738  14.184  0.0210  0.0997  0.2044
13320W        W28789   2.917   8.806  14.449 -0.2027 -0.1050 -0.3145
13321W        W28790   3.515  11.315   4.788  0.3451 -0.1607  0.0589
13322W        W28791  13.738  15.290   1.338  0.1147 -0.2689 -0.0932
13323W        W28792   7.187   0.176   3.038  0.0116  0.2292  0.0243
13324W        W28793   9.082   8.058   1.176 -0.1371 -0.0915  0.0296
13325W        W28794  11.833  13.817   1.490  0.0999 -0.4463 -0.1008
13326W        W28795  11.526  16.188  13.695 -0.0265 -0.1230  0.0926
13327W        W28796  13.778   0.151  12.028 -0.0874  0.0755  0.0883
13328W        W28797   2.654  14.191   1.932  0.0082  0.1241  0.1211
13329W        W28798   7.793   2.523   0.195  0.1249  0.1866  0.1136
13330W        W28799  16.174   6.550   1.499 -0.3817 -0.0236  0.0576
13331W        W28800  13.217   5.779   3.072  0.0493  0.1266 -0.1289
13332W        W28801   5.332  12.246   4.169  0.0368  0.1927 -0.1222
13333W        W28802  16.679  13.421  12.638 -0.0468 -0.2378  0.0687
13334W        W28803   2.327   2.514  11.355 -0.1356  0.0722 -0.2471
13335W        W28804   3.833  15.490   1.644 -0.1185 -0.0890 -0.0698
13336W        W28805  14.924  15.660   6.418  0.0630 -0.2589  0.0479
13337W        W28806   2.674  17.461   0.441  0.3398 -0.0968 -0.0828
13338W        W28807  15.758  15.759  11.785  0.0375 -0.0449  0.0979
13339W        W28808  10.895   0.179  12.017 -0.1858  0.0304 -0.0702
13340W        W28809  17.511   4.370  10.716  0.3180  0.1096  0.1561
13341W        W28810  15.532   3.770  10.880 -0.0373 -0.1759 -0.2587
13342W        W28811   9.686  18.057   2.926  0.1567  0.1443 -0.1592
13343W        W28812  16.752   0.669  13.920 -0.1911 -0.0833  0.0176
13344W        W28813  11.108   9.907  12.011  0.0503  0.1582  0.0908
13345W        W28814  12.562   1.970   6.333 -0.2688  0.2408 -0.1129
13346W        W28815   5.461  12.738  11.809  0.1481  0.1178 -0.1601
13347W        W28816  16.260  11.674  12.612 -0.0083  0.1394  0.3291
13348W        W28817   6.631  17.140  11.228 -0.0637  0.0196  0.0863
13349W        W28818   0.771  14.296   1.986  0.0638 -0.0570  0.0064
13350W        W28819   9.606   9.762  12.521  0.0338  0.0520 -0.0056
13351W        W28820  12.239   1.844   4.308  0.0341  0.3748 -0.2839
13352W        W28821  15.781   1.298   2.855  0.1025 -0.1766  0.0174
13353W        W28822   5.855   2.742   4.672 -0.2999 -0.0903 -0.0657
13354W        W28823   2.817  11.973  11.617  0.2887  0.0280 -0.2390
13355W        W28824   6.699   0.126  14.064  0.2736  0.1300  0.2147
13356W        W28825  11.841  10.995   5.408 -0.1077 -0.1376 -0.0366
13357W        W28826   9.942  16.722  15.393  0.1174 -0.1178  0.0542
13358W        W28827   8.456   8.229   0.036 -0.1562 -0.1598  0.1266
13359W        W28828  14.482  12.531  13.686 -0.0929 -0.2035 -0.0445
13360W        W28829   3.906   5.490  13.319  0.1214  0.1115  0.4957
13361W        W28830   3.828   6.496  10.891 -0.2772  0.1553 -0.0809
13362W        W28831   9.648   3.960   6.035 -0.0099  0.0534 -0.2277
13363W        W28832  16.163  16.079  12.393  0.1905 -0.0990 -0.2661
13364W        W28833   9.405  16.156  14.028  0.0694  0.1713 -0.1689
13365W        W28834  14.915   8.828   3.422 -0.1430 -0.0635 -0.1498
13366W        W28835   8.273  16.276  14.703  0.1368  0.0924  0.1321
13367W        W28836   1.857  11.398  11.970  0.0323 -0.2239  0.2058
13368W        W28837  16.606   5.241  13.430 -0.1965 -0.1246  0.2841
13369W        W28838   6.279   1.128   1.594 -0.1583  0.2698  0.0750
13370W        W28839  14.897   7.197  13.346  0.3591  0.2874 -0.0710
13371W        W28840  10.349   4.553   3.969 -0.0030 -0.2780 -0.3107
13372W        W28841  11.621  18.414  13.657 -0.1572  0.1639 -0.0240
13373W        W28842   4.823   6.290   3.763  0.0398 -0.1819  0.3027
13374W        W28843   6.756  18.258  14.207  0.3834 -0.1150  0.1984
13375W        W28844   6.452   2.870  14.752 -0.0133 -0.1803 -0.0481
13376W        W28845   2.075  16.320   0.540  0.3074  0.1868  0.3622
13377W        W28846  13.188  11.529  11.329 -0.1810  0.1072  0.0902
13378W        W28847   8.876   2.057  14.303 -0.0856 -0.2352 -0.0038
13379W        W28848   3.045   2.213  10.875  0.0505  0.0250 -0.3188
13380W        W28849   0.210   1.468  14.911  0.0521  0.3044 -0.1144
13381W        W28850   3.816  11.549   2.278  0.1753  0.2074  0.1864
13382W        W28851   9.550   0.178  12.180 -0.0515  0.1664  0.0157
13383W        W28852   2.649   6.169   4.881  0.0747  0.2586  0.1865
13384W        W28853  10.168  15.424  11.434 -0.0328  0.0882  0.0428
13385W        W28854  15.210   4.632  15.482 -0.2537  0.0613 -0.3784
13386W        W28855  12.730  13.363   6.262 -0.0804 -0.1029 -0.3064
13387W        W28856   0.768   1.308   2.026  0.2046 -0.0090  0.1626
13388W        W28857  15.014  12.487  12.101 -0.1319 -0.2178  0.1374
13389W        W28858  10.643  16.711   4.394 -0.0775  0.0143  0.0654
13390W        W28859   1.811  12.494  12.783  0.1423 -0.0146 -0.0463
13391W        W28860   5.380  11.505  10.944 -0.1714 -0.1929 -0.0437
13392W        W28861   4.859   3.988   0.668 -0.1536  0.1909  0.3162
13393W        W28862  12.039  13.328  11.127 -0.1577 -0.3229 -0.0327
13394W        W28863   9.101   4.970   5.599  0.3077  0.1159 -0.2107
13395W        W28864  13.790  11.566  14.406  0.4354  0.0005  0.2320
13396W        W28865   5.932   2.906  11.867  0.0040  0.3306 -0.1294
13397W        W28866  12.938  13.010   4.355  0.0836 -0.1084 -0.0888
13398W        W28867   1.262   2.766   3.617 -0.2122  0.2903  0.2219
13399W        W28868  14.286  12.443  13.145  0.1060 -0.1428  0.2968
13400W        W28869  10.905   4.942  13.641  0.0787  0.2106  0.0734
13401W        W28870   1.656  12.104  14.569 -0.0062 -0.0478 -0.2987
13402W        W28871   4.451   1.322  11.925 -0.0089 -0.0169  0.0235
13403W        W28872  11.855  14.211   4.003  0.3380  0.1791 -0.0294
13404W        W28873  18.383  17.233   4.789  0.3364  0.2918 -0.0285
13405W        W28874  10.111   1.098   3.400 -0.0263 -0.2908  0.2821
13406W        W28875   8.365  17.180   3.967 -0.1708  0.0092  0.0817
13407W        W28876  16.247   8.915   0.321 -0.0961  0.2171 -0.0963
13408W        W28877   0.863   9.242  15.525 -0.0596 -0.1287  0.0622
13409W        W28878  14.034   2.606  13.763 -0.1204  0.1673 -0.0396
13410W        W28879   9.617   9.627   5.986  0.2253  0.0153  0.3946
13411W        W28880   6.460   4.930   2.988  0.2373  0.1445 -0.0605
13412W        W28881  11.413  16.385   2.587  0.4693  0.1628  0.3332
13413W        W28882   3.502  16.435   0.177  0.0579 -0.1629  0.1334
13414W        W28883  13.669   1.561   4.420 -0.0617 -0.0005  0.1612
13415W        W28884  17.975  11.873   1.449  0.0350  0.0098  0.1773
13416W        W28885   2.898   5.466  15.401  0.2511  0.1459  0.0842
13417W        W28886  14.664  15.557  13.848  0.2030 -0.1462 -0.1358
13418W        W28887   9.310  14.131   4.241  0.2279 -0.0237  0.0294
13419W        W28888   8.301   9.964   0.858 -0.0532  0.2183  0.0195
13420W        W28889   6.663   3.622  13.341  0.1897  0.1965 -0.1152
13421W        W28890   8.054   9.683   0.111 -0.1753 -0.0857 -0.1074
13422W        W28891   3.921   1.687  15.476  0.1450  0.2078  0.0919
13423W        W28892   9.493   2.860  12.844 -0.1533  0.1013  0.2563
13424W        W28893   1.826   7.560   1.857  0.1556 -0.0205  0.1769
13425W        W28894   3.674   4.675  11.874  0.1524 -0.4916  0.2389
13426W        W28895  11.784  10.388  14.004 -0.0654  0.2952 -0.1357
13427W        W28896   6.501  16.974   5.366 -0.0443 -0.4352  0.1763
13428W        W28897   2.996  11.990  12.783  0.1160 -0.2457  0.0694
13429W        W28898   4.830  14.218  11.070  0.0109 -0.2027 -0.1676
13430W        W28899   0.377   8.788  12.880 -0.4938 -0.3858  0.0622
13431W        W28900   5.144   5.923  14.880  0.0987  0.1019 -0.1651
13432W        W28901   7.634  15.125   1.263  0.1653 -0.3413 -0.3976
13433W        W28902   5.196  18.116  12.626 -0.0970 -0.0077 -0.0987
13434W        W28903  10.407  16.945   1.577 -0.2217  0.0267 -0.3354
13435W        W28904  14.197   3.563   5.351 -0.0660 -0.0226 -0.0312
13436W        W28905   4.638   2.591  15.672  0.0008  0.2070 -0.0825
13437W        W28906  12.393  13.782  11.783  0.2643 -0.2932  0.4000
13438W        W28907   1.285  13.096   3.621 -0.1247 -0.0074 -0.3808
13439W        W28908  13.528   8.369   1.255 -0.0029  0.0328  0.0898
13440W        W28909  10.337   2.886   0.592  0.1807 -0.0787 -0.3235
13441W        W28910  14.894  15.144  13.802  0.0356 -0.2535 -0.2698
13442W        W28911   5.603   9.331   1.085 -0.0359  0.1563  0.3184
13443W        W28912   5.404   8.863   1.172 -0.0839  0.2819  0.3254
13444W        W28913  11.025   7.064   4.437  0.2787 -0.0983  0.0092
13445W        W28914   1.536   6.010  14.818  0.3625  0.1553 -0.1160
13446W        W28915   1.813  16.053   2.225  0.2266  0.0989 -0.2102
13447W        W28916   6.958   7.729  11.131  0.0041  0.3393  0.2151
13448W        W28917   5.175   6.553  12.703 -0.0626 -0.2424 -0.0417
13449W        W28918   2.271  18.013   0.294 -0.2209 -0.1338 -0.1989
13450W        W28919   2.904   7.424   0.332 -0.2169  0.4632 -0.3092
13451W        W28920  15.147  17.921   5.650  0.1181  0.0834  0.0047
13452W        W28921   0.792  13.246   2.312  0.0051 -0.3332 -0.4013
13453W        W28922   1.269   7.684   5.495 -0.3576  0.0960 -0.2508
13454W        W28923  16.701  11.081   2.484  0.1674 -0.1056  0.2011
13455W        W28924  10.978   1.771   4.026  0.1089 -0.3829  0.0370
13456W        W28925  11.013   5.464  15.021 -0.1787 -0.0768 -0.0691
13457W        W28926   0.856  17.387  10.912 -0.1697 -0.0193  0.1143
13458W        W28927  10.164   6.577  13.140 -0.2312  0.0767 -0.0700
13459W        W28928   9.942   1.816   1.592 -0.2504  0.1529 -0.1333
13460W        W28929   8.491  14.645   2.251 -0.1825  0.2353  0.1216
13461W        W28930  13.383  17.996  10.866 -0.2431 -0.2236  0.0789
13462W        W28931  18.329  18.591   3.920  0.1870 -0.1358  0.0995
13463W        W28932   7.403   2.515  14.371  0.0229 -0.1005  0.1465
13464W        W28933  14.649  14.893   1.753 -0.0021  0.1018  0.2059
13465W        W28934   0.544   8.070   9.998 -0.0393 -0.1439  0.0109
13466W        W28935  12.158  16.169  11.767  0.1440  0.0815  0.0141
13467W        W28936  15.070  10.020  13.727 -0.1788  0.1757 -0.3270
13468W        W28937  13.794  14.820   2.788  0.0957  0.1722  0.0555
13469W        W28938  13.951  12.639   4.071 -0.0023  0.0370 -0.1486
13470W        W28939   0.289  18.391  14.388 -0.2098 -0.0089  0.0299
13471W        W28940  13.725  11.205  14.807  0.1991  0.1910 -0.1363
13472W        W28941   8.541  18.204  12.383 -0.0990  0.3380  0.3472
13473W        W28942   8.152   2.361   1.864  0.2866  0.0324 -0.1616
13474W        W28943  12.575   3.633  13.585 -0.2384 -0.0225  0.3061
13475W        W28944  18.240  16.281   0.993 -0.1038 -0.0358  0.1097
13476W        W28945   1.948  10.303   2.453  0.0173 -0.2214  0.2109
13477W        W28946   6.953  14.252   3.289 -0.1545  0.2142 -0.0462
13478W        W28947   3.647  16.425  12.125  0.0862 -0.2177  0.1634
13479W        W28948  12.819  13.386  13.503  0.3217 -0.0939  0.2040
13480W        W28949   1.779  10.538  14.189 -0.0726 -0.0709 -0.1053
13481W        W28950   4.381  17.249  13.790  0.2149 -0.1433  0.1424
13482W        W28951  17.589   4.185   3.261  0.1868 -0.1142 -0.2890
13483W        W28952   5.539   6.635  11.197 -0.3461  0.1166 -0.0576
13484W        W28953   4.641   7.951  12.708 -0.1753  0.3206 -0.3771
13485W        W28954   8.881   3.462   2.401 -0.0902  0.1887  0.0660
13486W        W28955  11.671  10.172   2.102 -0.2403 -0.2832 -0.1344
13487W        W28956   9.045   3.973  13.481 -0.0907 -0.2201  0.2995
13488W        W28957   0.565  15.184  12.607  0.2038  0.1084  0.1511
13489W        W28958  11.217  17.652   1.302 -0.3589 -0.0015  0.2609
13490W        W28959   2.658   2.036  15.410 -0.2148 -0.1466  0.0095
13491W        W28960   4.574  15.754  15.307  0.2259  0.3367 -0.0537
13492W        W28961  17.463  11.039   0.470  0.4577  0.1280 -0.1349
13493W        W28962  18.610  16.071   5.487  0.0506 -0.1628 -0.0683
13494W        W28963   5.551  10.153  14.455 -0.2299  0.0407  0.1035
13495W        W28964  13.003   4.315   4.600  0.0167  0.0755 -0.0137
13496W        W28965   0.999   9.924   4.340  0.5336 -0.0512  0.0794
13497W        W28966  14.202  13.073   5.716  0.6090  0.2488  0.1288
13498W        W28967   0.975  12.052   4.879 -0.0807 -0.1112  0.0319
13499W        W28968  11.865  14.953  14.384  0.1026 -0.1755 -0.1561
13500W        W28969  13.336  14.430   4.520 -0.0618 -0.0614 -0.3759
13501W        W28970  18.148   5.148   1.424 -0.4765 -0.2931 -0.2166
13502W        W28971  11.593  14.941  11.153  0.0321 -0.0379 -0.1503
13503W        W28972   0.149   0.891   2.384  0.0427  0.4747 -0.1037
13504W        W28973  10.547   4.207   2.624  0.0420 -0.1363  0.0372
13505W        W28974   7.012   7.977  14.006 -0.0635  0.3686 -0.5023
13506W        W28975   2.089   9.719   3.674 -0.0413  0.2189 -0.0827
13507W        W28976   3.255   0.879   4.521  0.2758  0.1312  0.2339
13508W        W28977   1.049  16.448   2.944  0.0357 -0.1350 -0.0156
13509W        W28978   6.623   9.273  14.327  0.0468  0.3171 -0.2196
13510W        W28979   0.983  16.695   0.770  0.2034 -0.3469  0.1167
13511W        W28980   6.964   1.115   3.020 -0.0587  0.2722 -0.0601
13512W        W28981   3.520  12.124  14.747  0.3704  0.1381  0.1190
13513W        W28982   8.392  14.210   5.270 -0.1371 -0.0408 -0.2545
13514W        W28983  11.894  14.521   1.319 -0.1274  0.0765 -0.1737
13515W        W28984  17.199   3.860   5.554 -0.0978  0.3884 -0.0758
13516W        W28985   8.094   7.754   0.900  0.0776  0.2545 -0.2624
13517W        W28986  15.866   0.485   1.963 -0.2156 -0.0040 -0.0970
13518W        W28987   3.897  14.062   3.755 -0.0259 -0.1340 -0.0191
13519W        W28988  16.373  12.860  14.584 -0.3140 -0.0922 -0.0631
13520W        W28989   5.647   8.119  11.781  0.1121  0.1895  0.2592
13521W        W28990   3.786   5.739   2.128 -0.4314  0.0946  0.0748
13522W        W28991  14.539   1.555  15.403 -0.0500 -0.0813 -0.0306
13523W        W28992  10.452  10.033   0.147 -0.1354  0.0604 -0.1908
13524W        W28993   5.311  14.991  15.518 -0.2595  0.3996 -0.3110
13525W        W28994  13.973  10.338  15.034  0.0686 -0.1541 -0.0326
13526W        W28995   3.074   1.128  12.427 -0.1121 -0.1369 -0.1361
13527W        W28996   5.191  11.374  12.304  0.0800  0.2853  0.1128
13528W        W28997  16.296   8.741   1.200 -0.0964 -0.1162  0.1117
13529W        W28998  12.205  13.897   4.968  0.1695  0.2346 -0.0344
13530W        W28999  14.934  15.048   3.618  0.0288  0.1688 -0.1045
13531W        W29000   2.439  16.714   4.555 -0.0134 -0.3511  0.0457
13532W        W29001   1.621  10.407  12.520 -0.1097 -0.1951 -0.1296
13533W        W29002  18.596   9.725  10.068 -0.0800 -0.2845 -0.1412
13534W        W29003  12.033   2.134   1.877 -0.1377 -0.0738  0.1694
13535W        W29004   0.738  12.983   2.840 -0.1253 -0.0604  0.2044
13536W        W29005   8.414  16.868   1.824 -0.1417  0.3060 -0.0465
13537W        W29006   6.176  16.085  12.693 -0.1679 -0.1113  0.2315
13538W        W29007  16.508  13.260   2.224 -0.0697  0.1257  0.1314
13539W        W29008   9.371   6.582   3.920 -0.1352  0.1150  0.1241
13540W        W29009   1.427  14.448  13.195  0.2438 -0.2560  0.3642
13541W        W29010   9.599  12.254   4.270 -0.0570 -0.0010  0.2431
13542W        W29011   0.215  15.244   9.681 -0.0296  0.0814  0.0058
13543W        W29012   1.103   4.403   1.573 -0.2946 -0.2888 -0.1429
13544W        W29013  11.106   5.517   1.487  0.1018  0.3926  0.0946
13545W        W29014   7.858  14.909   4.793 -0.2143 -0.0162 -0.0558
13546W        W29015  11.371  17.249  14.594  0.0156 -0.2344 -0.2224
13547W        W29016  17.431   2.059   3.764 -0.1151 -0.1139 -0.1648
13548W        W29017  13.251  14.246   1.275  0.4047 -0.1238 -0.0479
13549W        W29018   6.224   3.332  13.923 -0.0482  0.3735 -0.1372
13550W        W29019   2.177   9.876  15.542 -0.1733 -0.2008  0.0202
13551W        W29020   6.219  18.017   0.558 -0.0754 -0.0885  0.1010
13552W        W29021  10.162   8.376   5.542  0.1283 -0.2841  0.0411
13553W        W29022  14.214   1.205  10.971 -0.0941  0.1352  0.3811
13554W        W29023   6.599   0.623   1.259 -0.1970  0.2306 -0.0656
13555W        W29024  14.325   6.307   2.114 -0.0497 -0.0178 -0.0665
13556W        W29025   4.329  10.833   2.188 -0.2154 -0.2766 -0.1778
13557W        W29026   8.297   7.526  11.367 -0.0364  0.1112  0.0996
13558W        W29027   9.652   9.862   3.593 -0.1695 -0.1045 -0.0471
13559W        W29028  17.369  11.822   4.824  0.1291  0.0784 -0.1188
13560W        W29029   7.573   1.941  11.967  0.3211 -0.3617  0.0452
13561W        W29030  13.089   3.263   3.978 -0.0160  0.1492  0.1477
13562W        W29031  12.233   5.220   0.616 -0.0475  0.0797  0.0305
13563W        W29032   8.273  11.720  13.919  0.1559 -0.4056  0.2042
13564W        W29033   9.363   7.689   0.379  0.0515 -0.1788  0.0626
13565W        W29034  12.671  12.406  13.960 -0.0530  0.0804 -0.1580
13566W        W29035   8.820   6.642   1.255 -0.0865  0.2543 -0.0618
13567W        W29036  12.476   1.841   5.320 -0.2064  0.0799 -0.0965
13568W        W29037  17.262   9.383   4.379 -0.1844 -0.1060  0.1435
13569W        W29038  16.755  14.344   4.652  0.1064 -0.2233  0.0447
13570W        W29039   2.418  14.814  15.546  0.0336  0.1704 -0.2063
13571W        W29040  12.541   4.504  13.285  0.1039  0.2571 -0.0222
13572W        W29041   2.210   2.361   4.115  0.2310  0.0072  0.0600
13573W        W29042   5.825  16.022  11.775 -0.1487 -0.1165  0.4320
13574W        W29043  15.044   1.676   0.328  0.2448 -0.2741 -0.0487
13575W        W29044   7.479   6.610  12.188  0.1078  0.0710 -0.1147
13576W        W29045  12.348  14.670   3.023 -0.0864  0.0398 -0.0058
13577W        W29046  16.816  12.714   0.544 -0.1832  0.4711  0.3073
13578W        W29047  10.559   8.357   5.135  0.0248 -0.0573 -0.1239
13579W        W29048  11.071   5.340   5.727 -0.3807 -0.0939  0.0708
13580W        W29049   5.487  10.772   2.184  0.0817 -0.1114  0.0289
13581W        W29050   6.312  12.266  13.443  0.4622  0.2557  0.2733
13582W        W29051   9.069  17.084   0.999 -0.1226  0.2497 -0.2962
13583W        W29052  13.361   4.348   1.233 -0.1447  0.0729 -0.1354
13584W        W29053  14.514  17.396  12.343 -0.2900  0.0352 -0.1898
13585W        W29054  13.515   5.169  14.280 -0.1007  0.2840 -0.1160
13586W        W29055  18.618   8.773  15.280 -0.0812 -0.6399 -0.1302
13587W        W29056   9.141   4.309   0.180 -0.2352 -0.1124 -0.0030
13588W        W29057   5.363   7.721  10.069 -0.1681 -0.0376 -0.1192
13589W        W29058  11.806  14.510   0.748  0.0949 -0.1742 -0.0370
13590W        W29059   0.185   6.196   4.785 -0.0020  0.0346  0.0892
13591W        W29060   6.316   1.388  11.723  0.1099 -0.0029 -0.0315
13592W        W29061  10.850  12.280   1.685  0.2029 -0.0014 -0.2211
13593W        W29062  13.522  16.514  12.215  0.1124  0.3793  0.1946
13594W        W29063   1.006   2.167   1.886  0.2536 -0.1385 -0.2000
13595W        W29064   6.470   7.849   0.089 -0.0210 -0.1424  0.2248
13596W        W29065  13.364   2.414   2.454 -0.0304 -0.0697  0.2560
13597W        W29066  14.204   7.374  12.107 -0.2258 -0.1140 -0.2121
13598W        W29067   4.469  10.771   4.888  0.1385  0.0018  0.0880
13599W        W29068   8.753   8.812  10.573  0.2704 -0.0295  0.1125
13600W        W29069  13.533   6.718  15.672  0.1319 -0.0863 -0.1063
13601W        W29070  13.636  10.474  14.335 -0.1639  0.1640 -0.0375
13602W        W29071   4.005   7.373  11.861 -0.3300 -0.3503  0.2366
13603W        W29072  17.527   7.346   9.790 -0.1900 -0.3328  0.0801
13604W        W29073  17.843   3.488   0.356  0.1945 -0.2012 -0.3469
13605W        W29074  11.310   9.884   4.746  0.1528  0.0823 -0.0401
13606W        W29075  17.690   2.480  12.001  0.2683 -0.0346  0.2677
13607W        W29076   3.613  11.387  15.296 -0.0419  0.0523 -0.1447
13608W        W29077   4.968   4.662   0.436  0.2347  0.2246 -0.2461
13609W        W29078  12.142  16.040   2.086 -0.2342 -0.0015 -0.1715
13610W        W29079  15.108   8.814  11.536 -0.1492  0.0179  0.0766
13611W        W29080   7.636   6.144  12.412  0.0507  0.1495 -0.2091
13612W        W29081  14.284   6.917   0.804  0.1375  0.1801  0.0084
13613W        W29082   9.947   5.519   0.459  0.1442 -0.1842  0.2624
13614W        W29083   1.239  17.996  13.173  0.1112 -0.0060 -0.0113
13615W        W29084   0.582  16.268  13.714  0.3743  0.0698 -0.0829
13616W        W29085   2.790   9.490   0.195 -0.0229  0.0032 -0.0461
13617W        W29086   7.244  10.240   3.653 -0.0911 -0.2433  0.0685
13618W        W29087  14.551   9.501   2.820  0.3153  0.1188  0.1243
13619W        W29088   2.874  15.952   2.126 -0.2084 -0.0618  0.0708
13620W        W29089  16.920   5.491  14.317  0.2057  0.2617 -0.1102
13621W        W29090   0.233   2.101  14.226  0.2639 -0.0217  0.0948
13622W        W29091   3.182  18.236  12.454  0.3081 -0.4971 -0.1486
13623W        W29092   5.273  15.742   1.807  0.0422 -0.0512 -0.3241
13624W        W29093  13.378   3.224   1.524  0.0070  0.2239  0.1516
13625W        W29094  16.687   2.852   1.433 -0.3110 -0.1367 -0.1395
13626W        W29095  14.388  14.174   3.015  0.0672  0.0381  0.4611
13627W        W29096  14.385   1.367  12.718  0.0073 -0.2323 -0.1189
13628W        W29097   4.958   7.651  10.309  0.2542 -0.1551 -0.1765
13629W        W29098  14.250  17.933  11.174  0.1629  0.0258  0.2740
13630W        W29099  16.108   4.009  12.631 -0.1002 -0.2065 -0.1311
13631W        W29100   2.386   8.047  10.939  0.1460  0.0926  0.2800
13632W        W29101   8.391   4.517  13.849 -0.0849  0.0804 -0.1910
13633W        W29102   4.087  10.980  11.044 -0.3924 -0.0946  0.1352
13634W        W29103   2.336  15.804  14.672  0.1697  0.1326  0.3118
13635W        W29104   4.993   1.573   4.390 -0.0384 -0.0002  0.1493
13636W        W29105   5.061  12.172  14.732 -0.0554 -0.0241 -0.0909
13637W        W29106  10.380  16.513   4.746  0.4070 -0.1476  0.0279
13638W        W29107   2.146   4.575   4.389  0.2002 -0.1388 -0.2297
13639W        W29108  13.222   8.050  10.984  0.0686 -0.0040  0.2173
13640W        W29109   1.759   3.505   9.935 -0.2422  0.2910  0.4092
13641W        W29110   5.206  11.018   1.217  0.1195  0.2177 -0.1553
13642W        W29111  15.910  18.375   5.596 -0.0596 -0.1053  0.1288
13643W        W29112   8.135   2.232  14.764 -0.0803  0.0461 -0.0667
13644W        W29113   1.761   5.152  10.289  0.0116  0.0817  0.1018
13645W        W29114   6.212   4.597  13.297  0.0838  0.2127  0.2462
13646W        W29115  10.987   1.818  15.762  0.1343 -0.1083 -0.1701
13647W        W29116   1.906   2.221   1.703  0.0713  0.5208 -0.0382
13648W        W29117   7.876   1.474   5.567 -0.2784 -0.2629 -0.0506
13649W        W29118  12.795  14.103  10.606  0.2133  0.1336  0.0401
13650W        W29119  14.747  16.508   4.279  0.0152 -0.0324 -0.1118
13651W        W29120  14.782  18.391   4.908 -0.1682 -0.4163  0.1426
13652W        W29121   4.395  14.427   0.449 -0.0604  0.1085  0.0815
13653W        W29122  18.509  11.827  13.689 -0.0231 -0.1513  0.4178
13654W        W29123   4.046  14.475   3.056 -0.0777  0.1205 -0.0913
13655W        W29124  18.060   3.798  11.999  0.3955 -0.0765  0.2845
13656W        W29125   6.291   5.136   0.939 -0.1729 -0.0155  0.0000
13657W        W29126   4.810   9.685  13.851 -0.0215  0.0886 -0.1299
13658W        W29127  13.200   5.967   2.215  0.1330  0.3445 -0.3466
13659W        W29128  16.019  17.415   0.587 -0.1883 -0.0147  0.1274
13660W        W29129  15.858   8.198  15.510  0.0314  0.2296  0.0441
13661W        W29130  13.784   2.468  11.895  0.0478 -0.0383  0.2496
13662W        W29131  16.024   1.348  15.640 -0.0929 -0.0188  0.2335
13663W        W29132   6.333   1.463  13.606  0.1384 -0.0530 -0.4009
13664W        W29133  10.838  11.753   1.528  0.4873 -0.0020  0.1895
13665W        W29134  18.394  10.821  12.119 -0.0140  0.2183  0.1798
13666W        W29135   3.633  11.210   1.972  0.2994  0.1263  0.0395
13667W        W29136   9.887   2.867   0.434  0.1384  0.0852 -0.0418
13668W        W29137   7.805   4.726   0.830 -0.1420 -0.2341 -0.3213
13669W        W29138  13.728  14.860   5.732 -0.2991  0.1820 -0.1456
13670W        W29139  16.969  18.060   2.065  0.1292  0.0465  0.0938
13671W        W29140   4.074  15.656   2.650 -0.0385 -0.0212 -0.2616
13672W        W29141   3.487   3.992   0.179  0.2063  0.4084 -0.3114
13673W        W29142   9.710  14.379   0.986 -0.3431  0.1094  0.1548
13674W        W29143   2.321  14.292   0.950 -0.1027 -0.1102  0.0192
13675W        W29144   5.374   1.156   2.006 -0.2570  0.0138 -0.1660
13676W        W29145  11.088   6.102  12.694  0.0910 -0.0908  0.0810
13677W        W29146  13.099  12.576  11.634  0.2354  0.0579 -0.0119
13678W        W29147  16.970  12.119   3.893 -0.1333 -0.0067 -0.0584
13679W        W29148  11.994   9.924  14.218  0.0086 -0.3297  0.1788
13680W        W29149  15.502   7.354   0.684  0.1254  0.1906  0.0795
13681W        W29150   7.309  12.720  12.058 -0.1691  0.1093 -0.0783
13682W        W29151  12.954   8.720   4.654  0.2343 -0.0279 -0.0515
13683W        W29152  12.658   4.197   3.287 -0.0178  0.0366 -0.0010
13684W        W29153   1.744  13.974  11.832  0.0907  0.0350 -0.1815
13685W        W29154  17.095  12.459   2.870  0.1155  0.0067 -0.0169
13686W        W29155  15.637   7.654  13.316  0.0459 -0.0219 -0.3877
13687W        W29156   5.816  11.378   0.406  0.0343 -0.0109 -0.2069
13688W        W29157  12.290  12.417  13.616  0.0446 -0.1073 -0.1206
13689W        W29158  11.958   0.657  11.054  0.1615 -0.0091  0.2657
13690W        W29159   2.282   6.772  13.186  0.1628  0.3284 -0.1604
13691W        W29160   8.525   6.342   5.348  0.1628 -0.4559 -0.1307
13692W        W29161  15.941   4.307  13.106 -0.0709 -0.2805 -0.1301
13693W        W29162   2.037   0.978  11.655  0.1017 -0.0988 -0.1542
13694W        W29163   1.893   8.442   0.852 -0.2123 -0.1757  0.0810
13695W        W29164   9.245  15.881  10.081  0.0727 -0.2653 -0.4724
13696W        W29165   1.399  14.818  15.320 -0.1092 -0.1503  0.0065
13697W        W29166   4.839  12.206   3.117  0.4380 -0.0282 -0.0145
13698W        W29167  17.765  10.562   1.929 -0.0767  0.2382 -0.1819
13699W        W29168   6.041   9.944   3.018  0.0489  0.0927  0.6590
13700W        W29169   3.392  10.195   3.890  0.1802 -0.1688 -0.3611
13701W        W29170   3.204   1.583   1.972 -0.1392  0.0570 -0.1835
13702W        W29171   9.057   3.966   3.501  0.0266 -0.1907  0.1861
13703W        W29172   9.332  18.438   4.184  0.1768  0.0662 -0.0154
13704W        W29173   8.732  13.271   0.685  0.3869  0.4582  0.3665
13705W        W29174   5.323   3.312   4.578 -0.1060 -0.0617  0.0271
13706W        W29175   3.025  13.821  13.635  0.0762 -0.0030 -0.0177
13707W        W29176   3.185  11.070   4.000  0.0012  0.1701  0.0087
13708W        W29177   1.268  18.261  10.807  0.0327  0.0559 -0.0515
13709W        W29178  17.050  13.250   1.380  0.1093 -0.1901 -0.0157
13710W        W29179  12.557  14.635  14.267 -0.0041 -0.3836  0.2572
13711W        W29180   7.929   3.489  15.622 -0.0400 -0.0234  0.2428
13712W        W29181  12.331  11.020   5.958  0.1012 -0.0278 -0.0241
13713W        W29182  15.812  18.005  12.215  0.0756  0.1936 -0.0808
13714W        W29183   0.593  18.557  15.339 -0.0219  0.1782  0.1788
13715W        W29184  17.556   7.768   0.391 -0.3927 -0.1770 -0.0324
13716W        W29185   6.530   5.579   1.111  0.0304 -0.1220 -0.1041
13717W        W29186   9.981   7.058   1.102 -0.1918  0.1489  0.2490
13718W        W29187   6.764  11.821  14.125 -0.2480 -0.0292 -0.1069
13719W        W29188  18.070   8.997  12.240  0.0822  0.0561 -0.2245
13720W        W29189   7.116   3.681  15.128  0.0178 -0.2229 -0.0889
13721W        W29190  18.317  16.882  11.428  0.1692 -0.5823 -0.4628
13722W        W29191   0.069  12.503  12.713 -0.4314  0.0270 -0.0236
13723W        W29192  13.976   3.146   5.405  0.0266  0.0385 -0.0552
13724W        W29193  12.244  16.121   0.890 -0.3514  0.1544  0.0826
13725W        W29194   0.341  15.738  14.977 -0.0793 -0.0951 -0.1641
13726W        W29195  14.124  15.715   0.428  0.2718  0.2440 -0.2104
13727W        W29196  16.969   2.847   0.961 -0.1102  0.2675  0.3006
13728W        W29197   9.214   4.157   4.856 -0.1577 -0.0445 -0.1576
13729W        W29198   3.303  16.288  14.807 -0.0709 -0.1120 -0.4678
13730W        W29199   6.610  14.298   4.574  0.0156 -0.1239  0.0841
13731W        W29200   4.498   6.759  15.415  0.1011 -0.0994  0.1398
13732W        W29201   2.720  12.627  10.950 -0.1142  0.1871 -0.1143
13733W        W29202   8.824  13.827   0.164  0.0082  0.4192  0.2326
13734W        W29203   6.283  12.005   3.628 -0.1685  0.0007 -0.1289
13735W        W29204  16.192   2.172  11.032 -0.0219 -0.0882  0.0474
13736W        W29205   4.041  16.061   3.792  0.0179 -0.0787  0.1311
13737W        W29206  13.488   0.318  13.692 -0.0493  0.1284 -0.0773
13738W        W29207   1.042  13.473  13.214  0.1204 -0.0165  0.1005
13739W        W29208   3.187  18.026  13.321 -0.1285  0.0640  0.0005
13740W        W29209  15.186  14.223   1.763 -0.2275 -0.2145  0.1905
13741W        W29210  17.627  12.068  15.351 -0.3924  0.2525  0.2913
13742W        W29211   0.794   7.146  10.573  0.1568 -0.0326 -0.0068
13743W        W29212   4.248   5.262  11.159  0.0266 -0.0377  0.4270
13744W        W29213   7.924   5.507  15.526  0.0020  0.2781  0.2035
13745W        W29214   7.114   2.461  15.520 -0.1243 -0.1867  0.3512
13746W        W29215  11.085   3.075  14.419 -0.1341  0.0669  0.0216
13747W        W29216  16.894   2.987  11.963 -0.0456 -0.0309  0.1347
13748W        W29217   0.697   0.685  13.176  0.2303  0.2000 -0.0041
13749W        W29218   1.307   9.666   2.332  0.2090 -0.1779 -0.1691
13750W        W29219  16.794   9.051  15.170  0.0588 -0.0234  0.0453
13751W        W29220   0.744  15.814  14.628 -0.1504  0.1836 -0.1979
13752W        W29221   7.809   0.811   3.349 -0.0138 -0.0192  0.3510
13753W        W29222   7.359  15.707  13.490  0.1884  0.1496  0.4034
13754W        W29223  15.688   4.452   3.822 -0.4319 -0.1175 -0.2307
13755W        W29224   9.402  18.466  12.641 -0.2587 -0.0073  0.0424
13756W        W29225   7.308  13.716  12.913  0.1002 -0.2930 -0.1377
13757W        W29226   1.582   5.499   1.647 -0.3683  0.4708  0.2618
13758W        W29227   4.356   2.226   1.472 -0.1938  0.0558  0.1521
13759W        W29228  10.007   9.801   4.320  0.0620  0.0306  0.0539
13760W        W29229   0.913   2.434  13.053  0.2244  0.0209  0.4051
13761W        W29230  12.034   3.116  15.531 -0.0499 -0.0994 -0.1165
13762W        W29231   1.606   6.943   2.204  0.3817  0.0845  0.1740
13763W        W29232  10.010   6.391   2.175  0.0451 -0.1488  0.0440
13764W        W29233   3.298  15.136   0.243  0.1275  0.1793 -0.2327
13765W        W29234   2.550   8.857  11.073 -0.1957 -0.0801 -0.1776
13766W        W29235   2.695  13.384  10.678 -0.0080 -0.1269  0.1427
13767W        W29236  11.478   6.463   4.917  0.2631 -0.0057  0.0662
13768W        W29237   3.153   1.899  14.433  0.0160 -0.1309 -0.0500
13769W        W29238   4.967  17.899  15.171 -0.1007  0.0460 -0.2356
13770W        W29239   7.052  15.040  14.171 -0.0398 -0.1868 -0.0627
13771W        W29240   6.504  18.541   6.012  0.4593  0.0406 -0.0756
13772W        W29241   9.282  11.456   2.238  0.4006 -0.0773 -0.0079
13773W        W29242   0.868  13.015  12.877 -0.0252  0.0819  0.0582
13774W        W29243   2.749   0.594  13.606 -0.0451 -0.2869  0.0048
13775W        W29244   5.984  14.382  13.895 -0.3439 -0.1331  0.0579
13776W        W29245  13.947  11.078   1.659 -0.0094  0.0071  0.0623
13777W        W29246  10.819   3.882   2.327 -0.0773  0.0485 -0.0161
13778W        W29247  17.871  10.648   1.023  0.2085  0.2861 -0.0257
13779W        W29248   6.680  17.477   3.828  0.2554  0.0047  0.0967
13780W        W29249  16.176   3.435   3.284 -0.2748 -0.0098 -0.0694
13781W        W29250   8.260   7.128   4.350  0.2411 -0.3515  0.0072
13782W        W29251   1.883  14.401   6.116 -0.2319  0.0632  0.3945
13783W        W29252  17.909  13.753   4.706  0.0576  0.0901 -0.1525
13784W        W29253   9.415   8.629  13.649  0.1285 -0.0012 -0.0928
13785W        W29254   6.732   7.915   1.769 -0.1581  0.1109 -0.0886
13786W        W29255  16.860   1.341  12.240 -0.1031  0.2874 -0.2870
13787W        W29256   6.863  11.448   2.771  0.0438 -0.2835  0.1559
13788W        W29257  15.324   5.741  13.066  0.1979 -0.0895 -0.0176
13789W        W29258   2.201  14.231  14.215  0.0141 -0.1541  0.1171
13790W        W29259  13.600   4.519  14.273 -0.1501 -0.1388  0.2383
13791W        W29260   2.365  15.942   0.769 -0.0583 -0.1928 -0.0186
13792W        W29261  18.412  10.059   1.659  0.0064  0.0862 -0.0357
13793W        W29262  16.269   0.486   3.363  0.0915 -0.1228 -0.1842
13794W        W29263   1.216  17.093  12.436 -0.0243  0.0777 -0.1880
13795W        W29264  11.984   8.632  14.166  0.0871  0.0706 -0.0808
13796W        W29265   3.943  15.320  13.534  0.1104  0.1474  0.2779
13797W        W29266   8.205   9.697  13.935  0.0019 -0.0865  0.0270
13798W        W29267   3.378   4.149   3.664 -0.4166 -0.2099 -0.3984
13799W        W29268   3.674  12.817   4.263 -0.1480 -0.0510 -0.1133
13800W        W29269  17.409   2.606  13.340  0.1435 -0.2692 -0.2408
13801W        W29270  17.122   6.334   3.299  0.2172 -0.0338 -0.1218
13802W        W29271   6.968  12.838   0.056  0.2015  0.1560 -0.4217
13803W        W29272   6.175   6.792  11.911  0.1477  0.0269 -0.2535
13804W        W29273   5.368   3.329  13.014 -0.1095 -0.2955  0.1695
13805W        W29274  13.882   1.686   5.097  0.1048 -0.3478 -0.0768
13806W        W29275   0.182  10.232  12.449 -0.1826 -0.2022  0.4771
13807W        W29276  14.529   1.593   1.894  0.1073 -0.0939 -0.1897
13808W        W29277   7.171  15.846  15.349 -0.1661  0.0232 -0.0426
13809W        W29278   3.397   1.275   5.352  0.3935  0.0490  0.0364
13810W        W29279   5.285  10.915   3.269  0.1055  0.2091  0.2742
13811W        W29280   4.012   6.190  11.606  0.2691 -0.0938 -0.0678
13812W        W29281  12.804   7.402   2.592  0.1900 -0.2157  0.1319
13813W        W29282   9.698   4.206   4.675 -0.0355 -0.0283 -0.1113
13814W        W29283   6.001  13.291   1.317 -0.0069 -0.1903  0.3384
13815W        W29284   4.549   2.572   5.559  0.0500 -0.2713  0.3088
13816W        W29285   9.438   4.004  14.695 -0.0190  0.2528 -0.0519
13817W        W29286   8.983   2.434  15.428 -0.1627  0.0266  0.0217
13818W        W29287   7.651   6.982  12.591  0.1098 -0.1700  0.2282
13819W        W29288   7.783  13.674   0.623 -0.0038 -0.0338 -0.1338
13820W        W29289   9.072   0.937   2.396 -0.0179  0.3805  0.1859
13821W        W29290   2.877   0.112   3.511 -0.0267  0.0833 -0.1544
13822W        W29291   2.765  16.724   4.095  0.3381 -0.2921  0.1410
13823W        W29292   9.003   4.200  14.335 -0.1354 -0.0353 -0.0728
13824W        W29293  13.272   4.105  12.966  0.1049  0.1399 -0.0161
13825W        W29294  11.917   2.511  15.473 -0.1148 -0.1985  0.0000
13826W        W29295   4.487   3.321   5.195  0.0709  0.1514 -0.2541
13827W        W29296   3.709  14.659  14.860 -0.0333 -0.1972  0.0319
13828W        W29297   9.421  16.749   4.813 -0.0234 -0.3294  0.3363
13829W        W29298   9.575   3.490   4.156  0.2021 -0.1214 -0.0659
13830W        W29299   3.295  11.685  11.825 -0.0637  0.0310  0.0459
13831W        W29300   4.127  15.826  15.026 -0.1536 -0.2754 -0.0254
13832W        W29301  13.005   8.843  11.988  0.0268  0.0175  0.3580
13833W        W29302  10.178  13.093   0.060 -0.0502  0.2651 -0.2274
13834W        W29303  18.449  11.730  14.182  0.0325  0.0200 -0.1520
13835W        W29304   8.273  17.667  10.568  0.1362 -0.2535  0.2071
13836W        W29305   2.645   1.722  13.773  0.0296 -0.0240 -0.0128
13837W        W29306   1.708  16.799   0.960 -0.2775  0.0938 -0.0051
13838W        W29307  15.236   5.367   1.257 -0.1235 -0.2664 -0.0396
13839W        W29308   9.470   3.625   3.102 -0.0494 -0.2043 -0.1846
13840W        W29309   8.753  14.774   4.163  0.2184 -0.2878 -0.1177
13841W        W29310  12.307   7.477   5.410  0.1937  0.1416 -0.0390
13842W        W29311  12.680   4.183  12.042  0.2808  0.1316  0.1520
13843W        W29312  12.612  15.078  11.488 -0.0016  0.3067  0.1137
13844W        W29313  11.042  11.688  13.116  0.1594 -0.4463  0.1352
13845W        W29314   6.037  18.159  13.097  0.0985  0.1312 -0.2653
13846W        W29315  13.752  18.284  12.338  0.0448 -0.2821 -0.2398
13847W        W29316  12.357   1.509   3.546 -0.0041 -0.0395 -0.3747
13848W        W29317   8.818  15.320  11.432 -0.1068 -0.1207  0.0322
13849W        W29318   7.976  14.308  14.582  0.2422 -0.0967 -0.1342
13850W        W29319   8.742  13.541  14.661  0.0430  0.3940  0.0794
13851W        W29320   2.285  10.942  15.151 -0.0894  0.1417  0.2318
13852W        W29321   7.417   7.738  14.983 -0.3079  0.3046  0.3036
13853W        W29322  16.715   1.667   0.091  0.1200 -0.2605  0.3447
13854W        W29323  15.060  15.305  15.091  0.1269  0.0542 -0.4758
13855W        W29324   5.579  12.305   3.074 -0.1269  0.0070 -0.2848
13856W        W29325  12.869   1.183  11.824 -0.1047 -0.1119  0.0655
13857W        W29326   6.274   6.349   3.742 -0.1055  0.3090  0.0303
13858W        W29327   6.251   2.715  13.208  0.0703  0.0305  0.2355
13859W        W29328   6.012   9.400   3.728 -0.1877 -0.0724  0.1357
13860W        W29329  11.312  10.584  11.466 -0.0661 -0.0357  0.2542
13861W        W29330  10.496  16.270   0.252  0.2243  0.1016  0.0024
13862W        W29331   3.175  10.077  15.196  0.1274 -0.0833  0.3826
13863W        W29332  14.306   2.130  11.271  0.1745 -0.2568  0.1861
13864W        W29333   8.003   0.799  14.458  0.3719 -0.1372  0.0569
13865W        W29334   9.880  10.925   9.884 -0.1842 -0.1450  0.0341
13866W        W29335   4.627   2.013   5.274  0.1659  0.0327  0.0292
13867W        W29336  12.087  12.242   3.467 -0.0008 -0.0323  0.1811
13868W        W29337  12.893   6.606   1.582 -0.0551 -0.0667 -0.2647
13869W        W29338   4.802  16.677  14.898  0.2687 -0.1380  0.2728
13870W        W29339  15.176  14.913  15.388 -0.2703  0.4270 -0.2996
13871W        W29340   4.628   7.118   3.924 -0.2319 -0.1237 -0.1664
13872W        W29341   1.393   9.227   2.972  0.1837  0.2089 -0.1039
13873W        W29342  14.040  13.781   0.942  0.1925 -0.3736 -0.2178
13874W        W29343   7.199  10.974   2.823 -0.2140  0.0357  0.0283
13875W        W29344   6.803   1.462   2.014  0.0837 -0.0121  0.0176
13876W        W29345   4.732  14.544  10.635  0.3449 -0.0545  0.3698
13877W        W29346   0.290   1.859  12.045 -0.0581 -0.1199 -0.0429
13878W        W29347   6.475   2.549   2.534 -0.2268 -0.0179 -0.2256
13879W        W29348  11.880   7.527  14.305 -0.0574 -0.0785 -0.0805
13880W        W29349  15.087  18.393  11.017 -0.0212  0.2620 -0.1286
13881W        W29350  13.031  13.068   3.769 -0.0203  0.1270 -0.5386
13882W        W29351  16.928  12.632  11.541  0.0369  0.0051 -0.2023
13883W        W29352   7.821   0.332  11.566 -0.1233  0.1695 -0.3422
13884W        W29353   2.072  15.290   4.911  0.0351 -0.2153 -0.0009
13885W        W29354  16.031   7.190   4.691  0.0843 -0.0237  0.1647
13886W        W29355  13.022   3.234   0.541  0.0455 -0.1321  0.0740
13887W        W29356   9.035   3.014  12.739 -0.1384  0.2977  0.0357
13888W        W29357   0.485  10.293   2.548 -0.0142  0.0020 -0.4467
13889W        W29358   0.825  10.248  14.284  0.1055  0.2792 -0.0575
13890W        W29359   6.291   0.552   2.904 -0.2597 -0.3073  0.0802
13891W        W29360   6.840   1.502  13.017 -0.1749 -0.0372  0.0335
13892W        W29361  12.722   4.349  11.267  0.0921 -0.0261  0.1292
13893W        W29362  15.776  17.210  11.404  0.1814  0.0885 -0.1817
13894W        W29363   7.592  16.585   9.662 -0.1670 -0.0069 -0.1679
13895W        W29364  11.526  17.318   4.271 -0.1388 -0.0522 -0.4409
13896W        W29365  13.885  11.189  12.453  0.1030  0.1240 -0.0684
13897W        W29366   9.305   1.586   0.890 -0.1804 -0.2662  0.1029
13898W        W29367  18.039  12.839  14.974 -0.2728 -0.0945 -0.0883
13899W        W29368   4.661  17.057   4.565 -0.3328 -0.3854 -0.0471
13900W        W29369  17.817   5.671   0.666  0.4176 -0.2777 -0.2678
13901W        W29370   6.505   1.324   0.044 -0.0011  0.0235 -0.1574
13902W        W29371   0.968   9.593   1.198 -0.2330 -0.2163 -0.3507
13903W        W29372  18.260   2.126   1.188  0.1769  0.1104  0.0702
13904W        W29373   4.892   7.944   2.961  0.1904 -0.0364 -0.2257
13905W        W29374   5.329   0.082   4.427 -0.0876 -0.1275 -0.1191
13906W        W29375   7.635   4.087  10.729 -0.0574 -0.1544 -0.0472
13907W        W29376   7.548  11.032  13.477  0.0446 -0.2819  0.0080
13908W        W29377   7.642  11.555  15.005 -0.0723  0.1623 -0.1612
13909W        W29378  16.792  11.210   1.088  0.2776 -0.1345  0.1933
13910W        W29379   6.770   0.705  12.995 -0.2363  0.1117  0.0928
13911W        W29380   6.901   9.379   4.453  0.2951 -0.1380  0.0149
13912W        W29381  11.515   4.269  12.795  0.3477 -0.1977 -0.2863
13913W        W29382   1.284   8.616   4.834 -0.0631 -0.0160  0.1840
13914W        W29383   7.422   9.793  11.727 -0.1506  0.0216  0.1133
13915W        W29384  11.263  15.711   1.097  0.0139  0.1384 -0.0739
13916W        W29385   1.771  15.374   1.929  0.0941 -0.0480 -0.0229
13917W        W29386   2.853  14.827  11.906  0.0090  0.0076 -0.0357
13918W        W29387  15.628  13.797   0.873  0.0730 -0.4950 -0.4248
13919W        W29388   0.678   6.098   1.228  0.0710 -0.3004 -0.0145
13920W        W29389   5.728   1.573  15.680  0.2511 -0.1493  0.1374
13921W        W29390   9.955  13.941   2.484  0.1719  0.2516 -0.2410
13922W        W29391   8.610   1.922   5.843  0.1662  0.1228  0.1826
13923W        W29392   3.435  13.223   0.748 -0.4652  0.0475  0.2968
13924W        W29393   2.023   6.881  14.115  0.3083 -0.0132  0.0652
13925W        W29394   2.188   6.074   9.327 -0.1078 -0.0745  0.0019
13926W        W29395  14.351   4.871   0.280  0.0619  0.0289 -0.0314
13927W        W29396   3.340  14.605  12.030  0.1367 -0.0846 -0.0068
13928W        W29397   8.630  13.371   0.110 -0.4822 -0.1067 -0.2114
13929W        W29398  12.923  10.560  13.417  0.0883 -0.0642  0.0200
13930W        W29399  17.028   5.618  15.355 -0.1843  0.0426 -0.2640
13931W        W29400  16.305   5.845   1.874 -0.0201  0.1683  0.3411
13932W        W29401  15.398   5.996   3.388 -0.2196  0.2941  0.1935
13933W        W29402   2.303   4.416  12.074  0.0570 -0.0658 -0.0968
13934W        W29403  17.036   5.556  11.481  0.0266  0.2497  0.2741
13935W        W29404  12.672   3.068   0.925  0.1370 -0.2460  0.0485
13936W        W29405   7.125  11.450  12.294 -0.0309 -0.0400  0.0018
13937W        W29406  11.114   6.154   2.002  0.2140 -0.0165  0.0190
13938W        W29407  17.864   9.958   2.527 -0.0072 -0.1959 -0.1281
13939W        W29408  15.901   4.993  10.273  0.0968  0.1609  0.0508
13940W        W29409  14.494  13.556   1.661  0.0516  0.1996  0.2942
13941W        W29410   7.639  11.440  12.243 -0.0786  0.0049 -0.3353
13942W        W29411  13.786   5.416   5.030  0.1858 -0.1326  0.0266
13943W        W29412  15.431  11.710  11.172 -0.1864 -0.2255  0.0864
13944W        W29413  10.803   0.437  14.733 -0.0487  0.2771  0.1930
13945W        W29414  17.695  17.732  13.964  0.0728 -0.0132 -0.0139
13946W        W29415  15.275   7.305  14.336 -0.0526 -0.1918  0.0258
13947W        W29416   1.244   0.101   4.762  0.2853 -0.0957  0.1103
13948W        W29417   2.826   8.462  10.685  0.2702 -0.4194 -0.0793
13949W        W29418  17.819   3.390   3.863  0.2382  0.0107  0.4936
13950W        W29419   1.000   4.152  11.318  0.2152  0.0118  0.2988
13951W        W29420   0.260   1.194  15.399 -0.0254  0.0397  0.0287
13952W        W29421  16.012   8.395  14.674  0.0141 -0.2723  0.2041
13953W        W29422   4.025   2.572  13.525  0.1751  0.1380 -0.1269
13954W        W29423   4.540   7.583   1.544  0.1311  0.0228 -0.0674
13955W        W29424  15.076  17.671   4.161  0.0551 -0.0649 -0.0125
13956W        W29425   2.496  15.087  13.286  0.0365 -0.1499 -0.1999
13957W        W29426  15.706  16.395  14.333  0.2548 -0.0948  0.1637
13958W        W29427  15.344  13.338   0.916 -0.2902  0.4266  0.3393
13959W        W29428  17.100   4.075  10.025  0.1752 -0.1857  0.2538
13960W        W29429   5.444   9.597   4.417  0.2257 -0.1837  0.2058
13961W        W29430   9.087   9.512  12.505  0.0904  0.3131 -0.1544
13962W        W29431   8.711  10.641   1.462 -0.2115 -0.1942  0.0091
13963W        W29432   6.014   9.453  10.273 -0.1137  0.0865  0.1230
13964W        W29433   0.666  15.528   0.069 -0.1827 -0.4011  0.0668
13965W        W29434   0.343  15.179  13.054 -0.2118 -0.0314  0.1837
13966W        W29435  15.623   3.541  13.739 -0.0644  0.1348  0.0996
13967W        W29436  12.720   6.076  11.603 -0.0086 -0.1279  0.1532
13968W        W29437   3.576  10.179   2.758  0.0967  0.2246  0.2214
13969W        W29438   6.759  15.314  11.855 -0.0559 -0.2716 -0.2061
13970W        W29439   7.472  14.182   0.272 -0.2068  0.2136 -0.0236
13971W        W29440  15.557   1.804  11.252  0.3034 -0.1871 -0.0208
13972W        W29441  12.209   6.252   1.952 -0.0273  0.2121  0.2104
13973W        W29442  14.284   3.732   3.270 -0.2174 -0.0553  0.1767
13974W        W29443   7.937  14.105   0.411 -0.1289 -0.1085  0.0205
13975W        W29444   4.893  16.203  13.384  0.1363 -0.1458  0.1438
13976W        W29445   4.650   9.082   1.644  0.3441 -0.1368  0.3622
13977W        W29446  11.178  18.097   2.709 -0.0753  0.0361  0.1262
13978W        W29447   8.353   9.648  11.602 -0.0763 -0.0451 -0.2733
13979W        W29448  12.870   4.022  10.457 -0.1761 -0.1868 -0.0588
13980W        W29449   8.563   2.219  13.834  0.4277 -0.0448  0.2570
13981W        W29450  11.722   2.422  13.852 -0.1135 -0.1125 -0.2861
13982W        W29451   0.428   7.267   0.817 -0.0301 -0.1848  0.3354
13983W        W29452   0.004   8.534   0.728  0.0796  0.0737 -0.0555
13984W        W29453   1.618  13.596   4.435 -0.1906 -0.0837  0.3479
13985W        W29454   3.932   7.287  15.672  0.0710  0.1459 -0.3425
13986W        W29455   8.328  18.507   1.337 -0.1382 -0.1359 -0.1357
13987W        W29456   4.439   8.356  15.155 -0.1779  0.1747 -0.1221
13988W        W29457  12.786   1.727   3.080  0.0472 -0.2991  0.0454
13989W        W29458   1.693   9.532   3.877 -0.2185  0.0707 -0.0787
13990W        W29459  16.701   7.499  13.655 -0.0315 -0.0819 -0.1421
13991W        W29460   0.311   3.240  10.450  0.1396 -0.2593 -0.1274
13992W        W29461  11.947   6.265   5.128 -0.1306 -0.2978  0.0293
13993W        W29462   1.821   3.592   2.112  0.1094  0.0701  0.3230
13994W        W29463   8.900   9.282  15.558  0.1593 -0.1390  0.1885
13995W        W29464   5.144   5.945   1.658 -0.1775 -0.3133  0.3412
13996W        W29465  13.743  12.083  11.510  0.1732  0.0179 -0.2743
13997W        W29466  17.062   3.284   4.218 -0.2186  0.1614  0.1447
13998W        W29467   4.173   7.266  11.358 -0.0447  0.0031 -0.3898
13999W        W29468  11.237   3.511  15.656 -0.1586 -0.3685 -0.3813
14000W        W29469   8.288  13.694   3.209  0.2471 -0.1413 -0.2458
14001W        W29470   8.717   0.994   0.364  0.1388  0.0936  0.2991
14002W        W29471   1.549   6.020  14.130 -0.2469 -0.0171 -0.0494
14003W        W29472  12.069   5.381   4.225  0.0977 -0.3911 -0.2419
14004W        W29473   0.898   3.559   2.197  0.2783 -0.2613 -0.1287
14005W        W29474  16.389  12.792   4.036  0.0277  0.1005  0.1377
14006W        W29475   7.256  12.590   0.561 -0.0404  0.0852 -0.0856
14007W        W29476   1.953   2.992  15.291  0.0613  0.2263  0.0453
14008W        W29477  13.086  15.533  13.547 -0.0010  0.1042 -0.2880
14009W        W29478  11.553  14.695   0.323  0.1286  0.0435 -0.0419
14010W        W29479  13.910  13.951   3.470  0.1643 -0.0224 -0.0089
14011W        W29480  15.949  13.909   3.459 -0.1838  0.1632 -0.1799
14012W        W29481   9.155  14.966   4.702  0.0369  0.2450 -0.1097
14013W        W29482  13.985   7.887   4.641  0.1270 -0.3122 -0.0021
14014W        W29483  11.858  15.546   4.641  0.3411  0.1268  0.0085
14015W        W29484   1.416  15.328  14.713  0.0594  0.1061 -0.1515
14016W        W29485   0.113   0.989  13.813 -0.0315 -0.3847 -0.2562
14017W        W29486   9.024   3.825  12.419  0.1935  0.1454 -0.1083
14018W        W29487   4.812  18.371   1.476 -0.1670 -0.1861 -0.2286
14019W        W29488   4.697  12.880  15.455 -0.0674 -0.0072  0.0113
14020W        W29489  11.744   6.808  12.224  0.3264 -0.0415 -0.2169
14021W        W29490   2.668   8.037  15.462  0.0054 -0.0874 -0.1327
14022W        W29491  17.794  17.242  11.405 -0.0815  0.4642  0.1010
14023W        W29492  10.097   6.436   3.470  0.0484 -0.0066  0.1011
14024W        W29493   4.405   8.257  11.890  0.2793  0.3525  0.2864
14025W        W29494   3.305  14.368  14.008 -0.6827  0.1190 -0.0148
14026W        W29495  10.945  13.147  10.895 -0.1180 -0.0406 -0.0473
14027W        W29496   3.520   5.793  14.113  0.1231 -0.1933 -0.1697
14028W        W29497   3.054   4.358  11.306 -0.1045  0.0267  0.0868
14029W        W29498  10.210  14.166   3.410 -0.0946 -0.4690  0.1257
14030W        W29499   2.856   0.555   0.528 -0.0691 -0.0356 -0.3538
14031W        W29500  13.055   0.622  11.371  0.0369 -0.1560  0.0368
14032W        W29501   0.050   2.112   0.196 -0.0580  0.2463 -0.1432
14033W        W29502   0.098  10.797   3.993 -0.0374  0.2294  0.0079
14034W        W29503   9.633   0.958  11.496 -0.1517 -0.1947  0.0145
14035W        W29504   2.965  16.747   0.254  0.1476 -0.1312 -0.1422
14036W        W29505   1.658  10.287  13.037 -0.2820 -0.3185  0.0777
14037W        W29506   5.450   0.291   1.549 -0.0483 -0.0759 -0.2659
14038W        W29507  10.910  11.857  15.591  0.4754  0.4040  0.0184
14039W        W29508   5.184   7.326   2.096 -0.1107 -0.0132  0.2014
14040W        W29509  15.331   7.436   4.098 -0.1519 -0.1120 -0.0517
14041W        W29510   6.734   8.909   0.713  0.0657 -0.2099 -0.0118
14042W        W29511   0.279   0.057  10.553 -0.2744 -0.0301 -0.1724
14043W        W29512  17.409   3.136   0.879  0.2020  0.1102  0.0356
14044W        W29513   0.625   5.248  12.482  0.2615 -0.1839  0.1414
14045W        W29514   9.835  14.057  11.300  0.2146  0.1394  0.0062
14046W        W29515  10.746   9.679   0.011 -0.2195  0.0386  0.1810
14047W        W29516  11.311  12.419   5.051  0.1756 -0.2928 -0.1554
14048W        W29517  11.415  17.800   0.759 -0.0576 -0.0565  0.0237
14049W        W29518   7.269   0.593  14.704 -0.1054 -0.2063  0.1902
14050W        W29519   8.380   8.576  11.640  0.0214  0.0733 -0.0555
14051W        W29520  13.596   8.921  13.198  0.0792 -0.1396 -0.0643
14052W        W29521  18.527  10.852  14.350 -0.0996 -0.1293  0.1695
14053W        W29522  17.457   1.193   0.338 -0.0588  0.0238  0.0186
14054W        W29523  15.866  17.624  13.841  0.0780  0.4836  0.1268
14055W        W29524  12.500  15.896   1.277  0.2051 -0.0858 -0.0864
14056W        W29525   5.794  11.191   2.173 -0.2046  0.2220  0.0708
14057W        W29526   7.406  10.317   1.767  0.4407 -0.1886 -0.1338
14058W        W29527  12.198   4.048  11.654  0.2524  0.0479 -0.2683
14059W        W29528  13.374  15.386   5.876 -0.0773  0.1811  0.4379
14060W        W29529  10.033  10.829  11.128 -0.1244 -0.3213 -0.0408
14061W        W29530   4.324   8.410  13.722 -0.1356  0.2336 -0.2705
14062W        W29531   3.743   1.739  13.627 -0.1585 -0.0442  0.2616
14063W        W29532  12.187  16.269   5.649 -0.0779  0.2263 -0.2372
14064W        W29533   3.920   7.516  12.969  0.1791  0.1570  0.1240
14065W        W29534   8.574  14.461  10.324  0.0184 -0.1571 -0.3276
14066W        W29535  14.220  18.033   3.461  0.0022  0.2150  0.0952
14067W        W29536   4.829   1.536   1.801  0.1209 -0.0007 -0.1178
14068W        W29537   2.755  15.571  12.801 -0.1074  0.0292 -0.0776
14069W        W29538   6.028  15.681   2.986 -0.1203  0.0958 -0.0004
14070W        W29539  12.254  18.553  13.815 -0.3258  0.1112  0.1596
14071W        W29540  10.701  11.709  14.244  0.1871 -0.1568  0.0895
14072W        W29541  12.452   8.925  11.290 -0.0084  0.0388 -0.0425
14073W        W29542  10.611   5.356  13.632 -0.2254  0.1855  0.0716
14074W        W29543   5.366   2.926   5.269 -0.2176 -0.0254  0.0802
14075W        W29544   4.986  12.805   3.124 -0.3885 -0.1193  0.1299
14076W        W29545   0.080   4.169  10.098  0.1183  0.1315  0.0311
14077W        W29546   8.895  15.487   0.953  0.0553  0.0074  0.0855
14078W        W29547  12.856  13.313   1.139 -0.1829  0.1058 -0.3811
14079W        W29548   4.587   7.893  14.422 -0.2049 -0.1721  0.0551
14080W        W29549  18.118  18.588   1.904  0.3145  0.1511 -0.0291
14081W        W29550  12.958  13.826  13.667 -0.0329 -0.2334  0.2869
14082W        W29551  13.422  13.842   4.314  0.1987 -0.0972 -0.1703
14083W        W29552  10.412   5.132  12.994  0.3393 -0.1334 -0.0371
14084W        W29553   4.919   3.666   1.206  0.0482  0.0475  0.1865
14085W        W29554   5.251   8.899  12.226  0.2289 -0.1410  0.2367
14086W        W29555  11.393   0.071   1.725 -0.2281 -0.0246  0.1058
14087W        W29556   9.884   7.094   0.358  0.2214 -0.3649  0.0129
14088W        W29557  12.802  15.167  12.279 -0.0443  0.2791 -0.0344
14089W        W29558   3.683   4.450  13.436  0.1220  0.2108  0.0415
14090W        W29559   6.157  17.991  12.366  0.3681  0.2382  0.0486
14091W        W29560  14.403   5.507   1.100  0.0773  0.1513 -0.0283
14092W        W29561  10.434  17.163   2.925  0.0391  0.1797 -0.1244
14093W        W29562   3.183  10.509   0.858  0.0723 -0.1847 -0.0272
14094W        W29563  12.609   7.326  15.610  0.0327 -0.4073  0.0903
14095W        W29564   7.961  11.948   1.638 -0.1733 -0.2482 -0.2800
14096W        W29565  10.282  18.030  15.179  0.2586  0.1070  0.0094
14097W        W29566  17.747   8.318  13.650 -0.0603  0.1031 -0.0778
14098W        W29567   0.685   3.680   4.829  0.1473 -0.0595  0.1365
14099W        W29568   6.200   9.127  10.584  0.0199 -0.1229 -0.2371
14100W        W29569  14.752   3.778   2.483 -0.0923 -0.0530 -0.5501
14101W        W29570   9.372   4.599  12.514 -0.0771 -0.1350 -0.2678
14102W        W29571  11.498   3.114  15.748  0.0150 -0.3697 -0.0588
14103W        W29572  14.504  15.754   6.178 -0.1453 -0.1948 -0.3201
14104W        W29573  17.413  13.553  13.292 -0.1521 -0.1508 -0.0874
14105W        W29574   9.120   7.608  11.857  0.0255  0.0082 -0.2150
14106W        W29575   1.757   3.871  11.595 -0.0399  0.1387  0.0618
14107W        W29576   6.010   5.265   4.634 -0.3081 -0.0799 -0.3318
14108W        W29577   8.104   5.036  12.070 -0.3061 -0.0700 -0.0630
14109W        W29578   2.464  14.182  14.652 -0.1024 -0.2072 -0.1978
14110W        W29579  11.031   8.663   0.949  0.1449 -0.1228 -0.2898
14111W        W29580   1.512   0.630   1.690  0.1844  0.1821 -0.1267
14112W        W29581  18.292  12.906   2.828  0.1111 -0.1299 -0.0416
14113W        W29582   6.475   2.987  12.855  0.0582 -0.0663 -0.0317
14114W        W29583  11.482   1.726   3.689  0.1287  0.1284  0.2436
14115W        W29584  10.855  10.258  10.631  0.1733  0.0268 -0.0029
14116W        W29585   3.580  17.193   0.705  0.2565  0.0635 -0.1700
14117W        W29586   6.561   4.707  11.293 -0.0811 -0.3565 -0.3502
14118W        W29587  15.296  15.963  14.881 -0.3754 -0.0767 -0.2638
14119W        W29588  15.410  10.700  11.737 -0.0550 -0.1304  0.1386
14120W        W29589  12.541   5.276  12.149  0.0351 -0.3528  0.2023
14121W        W29590   5.172  10.857   3.732  0.1916  0.1730 -0.1622
14122W        W29591  12.936  12.459  15.158  0.2224  0.1096  0.1700
14123W        W29592   1.138  11.914  13.215 -0.5988  0.2069  0.1463
14124W        W29593  17.499  14.470  14.309 -0.1110 -0.1819 -0.2302
14125W        W29594  15.219   7.505  13.071  0.2921 -0.3259  0.2264
14126W        W29595  12.464   5.641   4.564  0.0974  0.2572  0.1095
14127W        W29596  14.415   7.659  14.991  0.1439  0.0365 -0.2335
14128W        W29597  17.466  17.780   0.103 -0.2646  0.0451 -0.0260
14129W        W29598  16.682  12.025  13.469 -0.2324  0.0941  0.1737
14130W        W29599  14.384   2.613  12.679  0.0653  0.0964 -0.2479
14131W        W29600   8.647  17.792   5.095  0.0299 -0.0053  0.0809
14132W        W29601  18.015   6.938  13.531  0.3420  0.4359 -0.1766
14133W        W29602   1.692  17.278   0.608 -0.1639  0.0356  0.2969
14134W        W29603  12.447   4.474   0.243  0.2596 -0.2509 -0.1550
14135W        W29604   6.895   9.389   1.351  0.0680 -0.3425 -0.3542
14136W        W29605   8.367  10.538   3.011  0.0598 -0.2771  0.1889
14137W        W29606   5.578   4.180   0.329 -0.2183 -0.2658  0.0629
14138W        W29607  14.376   0.639  14.309 -0.0146 -0.2206  0.0155
14139W        W29608   6.761  14.701   3.362 -0.1592 -0.0378  0.0790
14140W        W29609   6.261  11.106   9.944 -0.0032 -0.0619 -0.2208
14141W        W29610   6.943  17.848   2.055  0.2311 -0.0143  0.3176
14142W        W29611  10.016  16.601   3.452 -0.1319 -0.0232  0.0098
14143W        W29612  11.038  12.386  11.160  0.0226  0.0193 -0.3158
14144W        W29613   9.862   9.872   0.235 -0.1905  0.0566  0.3140
14145W        W29614   4.754   9.258  15.147 -0.1630  0.0875 -0.0901
14146W        W29615   2.215   2.505   0.161  0.2122  0.0351 -0.1339
14147W        W29616  10.276   4.348   5.697 -0.0303 -0.3627  0.2840
14148W        W29617   9.142   7.074   2.290 -0.2047  0.2206  0.0470
14149W        W29618  11.499  12.401   5.521  0.0526  0.2976  0.0550
14150W        W29619  11.125   0.926   3.679 -0.1609  0.1608 -0.2981
14151W        W29620   4.715   2.230  12.113 -0.4584  0.0764  0.0215
14152W        W29621  12.770  15.609  12.815 -0.0247  0.2347  0.1599
14153W        W29622   9.563   9.445   4.522 -0.0751 -0.1109  0.0195
14154W        W29623  14.771  13.212  14.179 -0.0246 -0.4927  0.0844
14155W        W29624   6.654   8.496  13.343 -0.1092  0.0300 -0.0474
14156W        W29625  16.856  14.635  12.978  0.0701 -0.3782 -0.1702
14157W        W29626   8.980  13.161   9.869 -0.0475 -0.1163  0.1316
14158W        W29627  11.099   9.475   2.031  0.1132 -0.2280 -0.1715
14159W        W29628   3.903   5.477   9.985 -0.3950  0.0939  0.1587
14160W        W29629  15.852   5.301   3.394 -0.3929  0.0916 -0.0749
14161W        W29630  11.274  16.572   1.862  0.0882 -0.1835  0.1203
14162W        W29631  11.944   4.703  12.651  0.1522 -0.0173  0.0765
14163W        W29632  10.621   1.699  12.532 -0.1348 -0.0512 -0.2684
14164W        W29633  10.498  13.108   5.155  0.1341 -0.0858  0.0668
14165W        W29634  16.041   7.025  11.233  0.0767 -0.1491  0.1976
14166W        W29635   4.958   4.039   5.649  0.0610 -0.0351  0.1204
14167W        W29636   2.133  16.305  13.131 -0.2709 -0.2396  0.0692
14168W        W29637   7.429   8.713  10.983 -0.0264 -0.1011 -0.1082
14169W        W29638  11.801   5.944   5.800 -0.1874  0.3652  0.0119
14170W        W29639  13.629   5.672  13.646 -0.2545  0.0663 -0.1910
14171W        W29640  14.021  11.689   5.068 -0.2245  0.2021  0.3336
14172W        W29641   6.179   2.880  14.295 -0.0023 -0.1266  0.1436
14173W        W29642  15.152   0.626   4.156 -0.1917  0.1266 -0.1905
14174W        W29643  16.511   5.277   9.738 -0.0931  0.0024  0.1122
14175W        W29644   0.214   6.964   5.208 -0.3328 -0.0309  0.0613
14176W        W29645   1.109   3.650  13.962  0.2054  0.0023  0.1233
14177W        W29646   2.058   0.979   5.230  0.3415 -0.0088 -0.0312
14178W        W29647   3.662   0.534   0.499  0.0786 -0.2940 -0.1673
14179W        W29648  12.181  15.265  15.426 -0.1313 -0.0201  0.1371
14180W        W29649  17.719  17.495  15.504 -0.5829 -0.4140  0.1883
14181W        W29650   3.991  11.561  14.966 -0.1298 -0.4134  0.0854
14182W        W29651   4.975  16.012   1.502 -0.1867  0.2278  0.1843
14183W        W29652   5.976   4.459  10.741 -0.1299  0.1687  0.2216
14184W        W29653  10.517   8.577   2.279  0.1845 -0.1219  0.2258
14185W        W29654  17.611  10.472  10.343  0.0527 -0.3076  0.0677
14186W        W29655  11.883   4.188   1.414 -0.0390 -0.2533  0.0994
14187W        W29656  17.128   9.267  13.419 -0.1423 -0.1917 -0.0799
14188W        W29657   3.858   3.167  15.409 -0.0020 -0.0801  0.0591
14189W        W29658   5.278   7.238   0.972  0.1614  0.0585  0.1333
14190W        W29659   5.559  17.182   6.420 -0.1272 -0.1845 -0.1516
14191W        W29660   5.260  11.942  13.199 -0.0171 -0.1872  0.2742
14192W        W29661   2.853   9.990  12.174 -0.1897  0.1455 -0.1407
14193W        W29662  14.123   9.462  12.863 -0.2060 -0.0054  0.3644
14194W        W29663   1.879  15.487  14.482 -0.0371 -0.3181  0.2330
14195W        W29664  12.849   3.259  12.072  0.1105 -0.0726 -0.0693
14196W        W29665  16.378  15.947  14.605  0.0634 -0.2848  0.0916
14197W        W29666  14.370   9.315   4.885  0.1055 -0.0210  0.1082
14198W        W29667   1.523  17.288   1.529 -0.0791  0.0054  0.0124
14199W        W29668  14.295   2.173  13.787  0.2840 -0.0042 -0.2610
14200W        W29669   1.199   1.136   1.119 -0.0877 -0.3196 -0.2102
14201W        W29670  13.129   2.121  13.896  0.1272  0.3546  0.0340
14202W        W29671  12.142  18.602   5.041  0.0710  0.3710  0.2551
14203W        W29672   7.787  18.427  11.804  0.1970  0.1222 -0.3370
14204W        W29673  16.973   5.733   0.836  0.0504  0.2490  0.0538
14205W        W29674  12.191   7.345   1.782 -0.0377 -0.0197 -0.2182
14206W        W29675  18.540  12.736   1.374 -0.0381  0.0069 -0.0337
14207W        W29676   6.540  11.518   1.766 -0.0722 -0.1664 -0.2612
14208W        W29677   6.736  17.321  12.634  0.1707 -0.0353  0.1620
14209W        W29678   2.939   1.637  12.487 -0.0453 -0.0309  0.3165
14210W        W29679   2.899  10.190   4.043  0.1091 -0.1103 -0.0983
14211W        W29680  17.978   8.574   3.661  0.0559 -0.0465  0.0891
14212W        W29681   6.589  14.652  14.000  0.1152 -0.0934 -0.3984
14213W        W29682   0.702  14.110  13.936 -0.0527  0.0768  0.0304
14214W        W29683   6.080  13.615   2.697 -0.0510 -0.0201  0.0148
14215W        W29684  15.074  13.098  11.573  0.0764 -0.2498 -0.1219
14216W        W29685  16.195   9.163  15.210  0.0773  0.0098 -0.1117
14217W        W29686   3.432   5.044   2.120 -0.0819 -0.0616  0.1829
14218W        W29687  16.069   6.788  14.425  0.1961 -0.0824 -0.1143
14219W        W29688  17.073   4.370   1.412  0.0333  0.3694 -0.2050
14220W        W29689   0.002   4.332  15.649  0.0427 -0.0423  0.2389
14221W        W29690   2.520  12.433  14.781 -0.0773 -0.1222  0.0513
14222W        W29691   6.942  12.125  11.649 -0.2429 -0.1770 -0.1525
14223W        W29692  10.875  16.116  12.462 -0.1939 -0.1953 -0.1400
14224W        W29693  10.971   2.126   4.324  0.2088  0.2522 -0.2439
14225W        W29694  12.850  15.943  14.073 -0.0259 -0.0337  0.2475
14226W        W29695  13.136  17.952   1.858  0.3003  0.1148 -0.1323
14227W        W29696   5.983  10.677  14.279 -0.0736 -0.1140 -0.0642
14228W        W29697  14.168   5.298   0.049  0.1780 -0.0480  0.2732
14229W        W29698   8.577  13.368  12.503  0.0832 -0.0373 -0.1983
14230W        W29699  15.958   5.287   0.849  0.1122 -0.1793  0.1834
14231W        W29700   9.027  10.486  12.634 -0.0069  0.1861 -0.2526
14232W        W29701   3.087   8.517  11.173  0.1257  0.1714 -0.2866
14233W        W29702  12.825   8.153   4.198  0.1529 -0.0707 -0.0855
14234W        W29703  12.086   6.962   1.397 -0.2780 -0.0203  0.0980
14235W        W29704   1.454   8.876  10.619 -0.1316 -0.2109  0.1610
14236W        W29705  13.663  18.179   4.080  0.2753 -0.4259 -0.2582
14237W        W29706   5.727  14.530  12.401 -0.0392 -0.2025  0.1755
14238W        W29707   6.226   6.068   0.569 -0.0953 -0.0313  0.0055
14239W        W29708  17.178   7.217  12.164 -0.0735  0.3240 -0.1515
14240W        W29709   4.005   7.336   4.349  0.3711 -0.0922 -0.0389
14241W        W29710   5.177   8.091   0.440  0.1710 -0.0626  0.1741
14242W        W29711  17.662  10.891   5.314  0.2962 -0.1015 -0.1163
14243W        W29712  14.112  17.299  15.336 -0.2046  0.1171 -0.4006
14244W        W29713   8.311  16.517  10.744  0.0399 -0.3630 -0.1403
14245W        W29714   6.656  17.798   2.929  0.2010 -0.2034 -0.2328
14246W        W29715   1.523  11.821   1.803  0.0608  0.0789  0.1760
14247W        W29716  14.497  18.513   5.834 -0.0541  0.0897 -0.1690
14248W        W29717  15.027   0.134  11.393  0.0052  0.1409 -0.2203
14249W        W29718  16.983   8.413   2.415  0.4257  0.1032 -0.1356
14250W        W29719  10.950  12.244   0.598  0.1507 -0.2404 -0.0016
14251W        W29720   3.797  12.436   3.204 -0.0266  0.0280  0.0689
14252W        W29721   6.713  13.563   9.920  0.2457 -0.2258 -0.2434
14253W        W29722  10.459   1.980   1.754  0.0767 -0.1361  0.1964
14254W        W29723  17.930  10.566   3.315  0.1389 -0.3609 -0.0649
14255W        W29724   3.099  13.853   0.170  0.0417 -0.0123 -0.0921
14256W        W29725  11.197   1.731   5.404  0.0795  0.2409 -0.1162
14257W        W29726  11.057  13.308   3.181  0.1579 -0.2589  0.0429
14258W        W29727  13.789   8.119   6.035 -0.2121 -0.0952 -0.0090
14259W        W29728   8.702  17.232   5.772  0.0658 -0.0956  0.1129
14260W        W29729  18.474   0.662  12.809 -0.0129 -0.0743 -0.0975
14261W        W29730   9.182   2.301   3.506 -0.0756  0.1702 -0.2117
14262W        W29731  11.744  11.920  12.174 -0.1620 -0.2361  0.1894
14263W        W29732   5.413   4.293  15.376  0.0030  0.1838 -0.2025
14264W        W29733  11.481  14.043  10.455  0.0249 -0.0969 -0.1379
14265W        W29734   8.286  18.322  13.547  0.3057 -0.1238 -0.2578
14266W        W29735  13.058   4.339   3.052 -0.3436 -0.1880  0.1116
14267W        W29736  18.581  18.295   3.067  0.0485  0.1994  0.1503
14268W        W29737  16.197  12.126   2.482  0.0171  0.0459  0.2882
14269W        W29738   6.451   1.610  11.049 -0.3145 -0.2660  0.1610
14270W        W29739   7.673  17.996  12.067 -0.3672 -0.3648 -0.3705
14271W        W29740   2.452   9.410   4.565 -0.1752  0.0365 -0.0194
14272W        W29741   8.681   5.737   2.610  0.0784 -0.1057 -0.1475
14273W        W29742  13.655  17.895  15.640 -0.2624 -0.0398 -0.0776
14274W        W29743   6.352   2.202  10.845  0.3136  0.0869 -0.0477
14275W        W29744   6.484   8.639   4.680 -0.2012 -0.0976 -0.0035
14276W        W29745   8.870   4.044  14.803 -0.0302  0.1081 -0.1297
14277W        W29746  13.996   6.955  10.566 -0.0709 -0.0487 -0.0337
14278W        W29747  13.820  10.937  10.629  0.1993 -0.0393 -0.0673
14279W        W29748   5.726  13.653   0.202  0.0222  0.1442  0.5918
14280W        W29749  10.487  16.747  12.788 -0.1800 -0.1175 -0.1609
14281W        W29750  12.296   5.725   3.326  0.0116  0.0350 -0.1174
14282W        W29751   7.112   2.264   4.463 -0.1066  0.0168 -0.0734
14283W        W29752   3.261   0.368   1.298  0.2795 -0.2683 -0.0375
14284W        W29753  11.594  11.988  10.499 -0.1127  0.0249 -0.1690
14285W        W29754  16.299  13.546  10.572  0.0507 -0.0435 -0.1048
14286W        W29755  14.372  11.068   1.970  0.0589 -0.1375 -0.1992
14287W        W29756   4.723  15.099  14.568 -0.2268  0.3010  0.4145
14288W        W29757   2.273   4.023   1.092 -0.0710 -0.2212  0.2926
14289W        W29758   0.790   4.773  12.290  0.4874 -0.3507  0.0282
14290W        W29759  15.402  10.565   4.724 -0.0880  0.1981 -0.1760
14291W        W29760   7.891   7.732  14.724  0.0941  0.0941 -0.1205
14292W        W29761   1.431   5.969  12.835 -0.0846  0.1901  0.0795
14293W        W29762   4.548   6.300   3.340  0.1712  0.1147  0.1369
14294W        W29763  14.838  16.336  11.998  0.2236 -0.0517 -0.1653
14295W        W29764   6.568  18.367  11.180  0.2665 -0.3805  0.2102
14296W        W29765   3.133   6.925  13.672  0.1643 -0.1802  0.0212
14297W        W29766   9.680   4.683   0.889 -0.2535 -0.0311 -0.0059
14298W        W29767  15.176   3.852   1.873  0.0665 -0.4500 -0.0121
14299W        W29768  11.120   3.496   5.583  0.0676  0.0660  0.0155
14300W        W29769   4.839  17.044   6.003 -0.1756  0.2304 -0.0307
14301W        W29770   8.487   8.502  14.394 -0.0657 -0.0737 -0.2288
14302W        W29771   3.181   4.019   0.608  0.1557 -0.3653  0.1602
14303W        W29772   9.652   2.081  12.402  0.1331 -0.1035 -0.0252
14304W        W29773   1.751  13.536  12.195  0.0527 -0.0393  0.1198
14305W        W29774  10.944   7.699  13.919 -0.0892 -0.0048  0.4013
14306W        W29775   3.299   8.287  14.435  0.0478 -0.2398 -0.1276
14307W        W29776   7.146  17.369  11.438  0.1274  0.0960 -0.1010
14308W        W29777   3.119  12.603   4.155 -0.1201 -0.1118  0.0147
14309W        W29778  10.985  18.287  15.201 -0.1310  0.1560  0.3422
14310W        W29779  14.719   3.576   0.840 -0.0592 -0.0021  0.1156
14311W        W29780   1.102  12.364  15.182  0.1157  0.0492  0.2104
14312W        W29781   7.852  12.174   0.935 -0.0071 -0.1905 -0.4677
14313W        W29782   0.839  10.830  10.318  0.0886  0.2052  0.0254
14314W        W29783  11.955  15.107   1.473 -0.5101  0.0394 -0.1114
14315W        W29784  16.233   5.041  14.389 -0.0054  0.2779  0.1202
14316W        W29785  14.955  15.664  14.574 -0.1804  0.1122 -0.2471
14317W        W29786   0.028   6.285  11.929  0.0515  0.2187  0.3325
14318W        W29787   3.532   4.561   4.538 -0.4016 -0.2407 -0.3306
14319W        W29788   0.300   6.095   4.289 -0.1180 -0.1232  0.0286
14320W        W29789  11.513  12.236  11.726 -0.0132 -0.0411  0.3704
14321W        W29790   2.265  16.390   3.026  0.2725  0.2263 -0.3704
14322W        W29791   5.054   8.528  14.741  0.0771  0.1605  0.0573
14323W        W29792   3.907  13.552   1.647  0.0450  0.1395  0.1561
14324W        W29793  12.661  11.446   3.544  0.2340 -0.1606 -0.0708
14325W        W29794   4.197   8.541   4.987 -0.0609 -0.0224 -0.1898
14326W        W29795  18.018  17.976   0.769  0.0680  0.3215  0.0901
14327W        W29796   4.482   6.820   2.315  0.1808  0.0683  0.1321
14328W        W29797  12.198  15.842  13.319  0.1753  0.3634  0.1830
14329W        W29798   0.967   9.824  14.182 -0.1670 -0.1197 -0.2698
14330W        W29799  18.542  15.120   1.800  0.0575  0.2825 -0.2629
14331W        W29800   6.049   4.073   3.965  0.1538 -0.1373  0.1975
14332W        W29801   6.360   5.545   3.175  0.0199 -0.1660 -0.0021
14333W        W29802   8.686  14.773  15.690  0.0814 -0.3864  0.1838
14334W        W29803  12.866   2.630  10.837  0.0208  0.0802 -0.0703
14335W        W29804  13.186   1.399   3.096  0.1026 -0.1689 -0.0540
14336W        W29805   5.714  13.389   3.879  0.0963  0.1980  0.1857
14337W        W29806   4.491  16.978  12.766 -0.4505 -0.2838  0.0171
14338W        W29807   7.671  13.488  11.830 -0.1177  0.0049 -0.0472
14339W        W29808   1.954  16.341  11.317 -0.1052  0.0071 -0.2199
14340W        W29809  13.901   8.373  10.440  0.0919 -0.2307 -0.1704
14341W        W29810   0.160   1.530   0.468  0.2186  0.3491 -0.1659
14342W        W29811   9.396  14.349  14.573 -0.0633  0.2748 -0.1930
14343W        W29812   4.714   5.402   2.495 -0.0368 -0.1716  0.0948
14344W        W29813  15.691   8.108  12.999 -0.1699  0.0716 -0.0263
14345W        W29814   6.738   2.590  13.055 -0.0153 -0.0849  0.0281
14346W        W29815   9.933  15.487  14.274 -0.1069 -0.1205 -0.0034
14347W        W29816   4.786   1.099  15.129 -0.1371  0.0262 -0.1480
14348W        W29817   9.233  11.620   1.249 -0.0495 -0.0291  0.1634
14349W        W29818   3.649   5.866  11.839  0.0969  0.0127  0.0184
14350W        W29819  10.758  13.170  13.477 -0.1776  0.1979 -0.1107
14351W        W29820   4.149  14.004   3.147  0.0719  0.2206 -0.0224
14352W        W29821   3.598   8.664  15.111  0.1574 -0.1438  0.0553
14353W        W29822  11.569   0.256  13.391 -0.0493  0.1272 -0.2187
14354W        W29823   6.942  13.833   1.731 -0.0450  0.0152 -0.0269
14355W        W29824  17.022   4.331  10.463  0.1677  0.1359 -0.1134
14356W        W29825   1.189   6.115  15.611  0.0173 -0.0308 -0.3299
14357W        W29826   9.284   7.509   5.277  0.0260  0.1276  0.2943
14358W        W29827  11.006   4.588  10.919  0.1912  0.2430 -0.4442
14359W        W29828  10.113  17.235  11.228  0.2004 -0.2569 -0.0618
14360W        W29829   7.264  17.624  13.646 -0.3748 -0.0084  0.1574
14361W        W29830   9.133  14.976  10.473  0.0094 -0.3406 -0.3338
14362W        W29831  11.567   4.199   1.010  0.0978  0.0450  0.1475
14363W        W29832   1.487  14.819  13.698  0.2319 -0.1827 -0.1109
14364W        W29833   0.059   5.733  15.010 -0.0915  0.2058  0.0177
14365W        W29834   8.811  10.093  10.968 -0.0913  0.0057 -0.1056
14366W        W29835   6.330  16.976  12.560  0.0077  0.0698  0.1126
14367W        W29836  17.858   2.594   2.973 -0.0381 -0.2260  0.1278
14368W        W29837  11.295  13.265   2.692 -0.2094  0.2753 -0.1009
14369W        W29838  11.962  10.338   1.385 -0.2922 -0.2072  0.1599
14370W        W29839   2.514   9.243  11.558  0.0102  0.1214  0.1407
14371W        W29840   3.958   6.741  14.172 -0.3077 -0.0180  0.0180
14372W        W29841   1.132  12.860  15.022 -0.0005  0.2992  0.1697
14373W        W29842   1.765  17.583   1.870 -0.0284 -0.2433 -0.0886
14374W        W29843   2.132  11.178   2.307 -0.0460  0.2300 -0.0432
14375W        W29844   7.459   6.896  14.613 -0.0362  0.0689  0.0369
14376W        W29845  17.053   5.222   3.943 -0.1747  0.1301  0.1018
14377W        W29846  12.136  11.570   2.703 -0.0204 -0.2623 -0.1646
14378W        W29847  15.325  15.431   3.011  0.0818 -0.0647  0.2134
14379W        W29848  10.489  13.250   3.236 -0.0071 -0.1251  0.0465
14380W        W29849   2.866   8.377  13.176 -0.0389  0.1670 -0.0820
14381W        W29850   3.553  12.825   3.371 -0.2081  0.0879  0.1591
14382W        W29851  17.828  16.901  11.748 -0.1822 -0.1045 -0.4120
14383W        W29852  15.417  12.092   2.780 -0.0989 -0.1018 -0.1216
14384W        W29853   6.302   8.967   2.864 -0.3274  0.0894  0.0327
14385W        W29854   8.183  17.956  10.101  0.2374 -0.0292  0.2394
14386W        W29855  14.351   6.434   5.077 -0.0725  0.0993  0.0333
14387W        W29856   2.623   3.176   0.996  0.0351 -0.2093  0.6037
14388W        W29857   4.566  15.589  11.056  0.1367 -0.1114 -0.1517
14389W        W29858  10.808  15.956   3.647 -0.2388  0.2667  0.2984
14390W        W29859  17.471   0.793  15.470  0.0897 -0.0203  0.0042
14391W        W29860  15.857  11.365   5.881  0.2273  0.2981  0.0065
14392W        W29861  14.660  15.156   0.274  0.1215  0.0847 -0.0456
14393W        W29862  15.675   1.120   5.263  0.2306 -0.0259  0.2499
14394W        W29863  16.199   6.553  11.030 -0.5396 -0.1941  0.2511
14395W        W29864  11.328  18.436   5.596 -0.0155 -0.0838 -0.2961
14396W        W29865  15.176   2.412   3.068  0.0113  0.0783  0.0542
14397W        W29866   3.999   6.825   4.566  0.0257  0.0488  0.1208
14398W        W29867   4.395   7.510  13.994  0.1404  0.0940  0.1366
14399W        W29868  16.809  10.014   2.812 -0.4053 -0.0435  0.2490
14400W        W29869   8.522  10.256   0.205 -0.2213  0.3787 -0.2734
14401W        W29870  11.151   8.917   3.422 -0.1959 -0.0800 -0.3996
14402W        W29871   9.614   3.237   5.440 -0.3473  0.1030 -0.1398
14403W        W29872   4.275  16.474   0.087 -0.0256 -0.2076 -0.2488
14404W        W29873   6.834   9.300   5.247 -0.1651 -0.1571  0.1276
14405W        W29874   8.112   1.418   3.891  0.1529  0.1012 -0.3577
14406W        W29875   6.399   6.165  11.067 -0.1457  0.1149 -0.0967
14407W        W29876   9.364   1.456  13.784 -0.0169 -0.4121 -0.1206
14408W        W29877   3.347   6.837   2.747  0.0715 -0.1203  0.2413
14409W        W29878  16.943  13.788   4.808 -0.1888  0.0407  0.0819
14410W        W29879  16.297   4.921  11.472  0.2257  0.2285 -0.0886
14411W        W29880   1.552   0.123   1.796  0.2743 -0.0874 -0.0291
14412W        W29881   3.735  18.074  10.405 -0.1239  0.2287 -0.2292
14413W        W29882  14.313  16.978   1.152  0.3276  0.1070 -0.0125
14414W        W29883   1.518   1.134   1.608 -0.0658 -0.1911 -0.1325
14415W        W29884   8.777  11.562  13.528  0.0742  0.0746  0.1520
14416W        W29885  17.998   0.940   4.093 -0.1348 -0.0858  0.1348
14417W        W29886  11.112  14.406  10.726  0.2575 -0.0944 -0.1583
14418W        W29887   1.140  18.096  14.742 -0.0507  0.2155 -0.0276
14419W        W29888  16.632  12.044  15.030  0.0811  0.2463 -0.0900
14420W        W29889   3.091  18.457  10.898  0.0277  0.1947  0.0482
14421W        W29890   7.753   4.803   1.841  0.5810 -0.2122 -0.0930
14422W        W29891  11.852   8.973   0.185  0.1439 -0.4445  0.1027
14423W        W29892   7.711   5.914  14.572  0.2298 -0.1567 -0.1989
14424W        W29893  13.314  10.204   4.504 -0.1547  0.2129  0.2381
14425W        W29894  16.234  13.954  10.852 -0.0616 -0.3696 -0.1656
14426W        W29895  13.190   8.379   3.101  0.2185 -0.0718  0.0933
14427W        W29896   4.871   3.570   4.249 -0.4168 -0.1164  0.0874
14428W        W29897  12.451  13.525  13.796  0.2624 -0.3176 -0.0710
14429W        W29898   7.765  16.262  14.622  0.1612 -0.1854 -0.1586
14430W        W29899  11.128   3.818   0.613  0.2052 -0.1788 -0.3438
14431W        W29900   7.207   1.201  12.720 -0.1115  0.2813  0.1113
14432W        W29901   9.830   7.899   0.029  0.1326  0.4363 -0.1007
14433W        W29902  11.055  14.389   3.357  0.2198  0.1763 -0.1213
14434W        W29903  14.938  13.733  10.760 -0.2900 -0.1605 -0.3462
14435W        W29904   0.668   1.101   1.200 -0.1627 -0.0496 -0.0558
14436W        W29905  17.710   2.100  14.755 -0.0872 -0.1310  0.0401
14437W        W29906   4.539  18.306  14.295 -0.0131  0.0760  0.0283
14438W        W29907   0.223   7.650  14.393 -0.1808  0.0912 -0.0492
14439W        W29908  13.405  14.221   4.051 -0.0066  0.0747  0.2523
14440W        W29909  12.886   8.883  13.995  0.0300 -0.0947  0.0514
14441W        W29910  11.932   7.879   1.514 -0.2887 -0.0969 -0.2882
14442W        W29911   9.853  18.096   5.413  0.3364  0.3237 -0.0559
14443W        W29912   7.387  14.648  15.730 -0.3356 -0.1033  0.2571
14444W        W29913   6.446  13.466  13.678  0.0316 -0.0454 -0.1052
14445W        W29914  14.235   8.057  15.181 -0.0389  0.0123 -0.3876
14446W        W29915   6.195   4.989   5.400 -0.1821 -0.3808 -0.0834
14447W        W29916   3.759   9.562   0.502  0.1320  0.0598  0.1662
14448W        W29917  10.582   9.240   0.888  0.3323 -0.1669 -0.1790
14449W        W29918  15.186   7.696   1.353  0.1931 -0.1064 -0.1469
14450W        W29919  15.163   9.741  14.298 -0.3042 -0.0427 -0.1454
14451W        W29920   1.932  14.522   1.553 -0.0357 -0.0349 -0.1797
14452W        W29921   9.736  10.711   0.006  0.0908  0.0031  0.1111
14453W        W29922  18.289  16.896   5.692  0.0268 -0.2652 -0.0617
14454W        W29923  15.971   5.616   1.571 -0.1748 -0.1809 -0.1807
14455W        W29924   8.024  16.575   4.658  0.2373  0.0272  0.2587
14456W        W29925  11.360   1.660   0.709  0.3043  0.1511  0.0640
14457W        W29926  12.988   2.329  14.366 -0.1588  0.0489 -0.1374
14458W        W29927   2.093   8.678   9.487  0.2241 -0.2284 -0.1683
14459W        W29928   9.853  12.368   0.626 -0.1908 -0.1756  0.0291
14460W        W29929   6.322   9.109  15.748  0.2759 -0.3130  0.0747
14461W        W29930   3.451  10.099  13.859 -0.3413 -0.2003 -0.0425
14462W        W29931   5.822   7.720  12.159  0.0230 -0.3258 -0.4232
14463W        W29932  11.771  17.158   4.813  0.3362  0.0560 -0.0237
14464W        W29933  12.927  14.356   3.889 -0.1678  0.0478 -0.1045
14465W        W29934   3.508   1.588  12.328 -0.1566  0.0568 -0.2792
14466W        W29935   3.543   1.803   3.969  0.0745 -0.0139 -0.0633
14467W        W29936   5.184  17.398   0.699 -0.0650  0.0169 -0.2741
14468W        W29937  15.904  18.181  11.313 -0.1697 -0.0894  0.1859
14469W        W29938   0.694   5.374   3.620 -0.1692  0.1177 -0.0858
14470W        W29939   8.359  10.578  12.039  0.1728  0.1831 -0.2034
14471W        W29940   2.776   0.868  12.110  0.1896 -0.2388  0.1206
14472W        W29941   2.782  18.082  11.393  0.2290  0.3273  0.1355
14473W        W29942   9.529  16.299   0.528 -0.2760  0.3725 -0.0591
14474W        W29943   5.656  12.940   3.600  0.4238  0.0017 -0.2155
14475W        W29944  10.076   9.980  11.695  0.2532 -0.2460 -0.1470
14476W        W29945  11.454   8.768  12.109  0.0285  0.1132  0.2855
14477W        W29946   1.585  11.152   2.169  0.1481 -0.2369  0.1609
14478W        W29947   0.582  10.108   2.008  0.1360  0.4380  0.3576
14479W        W29948   1.606   5.085   5.201 -0.1139 -0.2235 -0.1326
14480W        W29949  14.592  17.551   2.236  0.0105 -0.2032 -0.1003
14481W        W29950   9.151  11.046   4.683 -0.0871 -0.1118  0.1473
14482W        W29951   1.651   6.489   4.345 -0.1558  0.1512  0.0928
14483W        W29952  18.294  17.542  10.830 -0.0407 -0.0670  0.2052
14484W        W29953   2.560   1.277   2.076  0.2880  0.1240 -0.3473
14485W        W29954  16.439  16.690  14.892 -0.1369  0.0300 -0.0982
14486W        W29955   6.709   9.808  11.908 -0.1977 -0.3318  0.1067
14487W        W29956   6.983  12.631   1.856  0.2274 -0.0865  0.3401
14488W        W29957  14.704   9.852   4.650  0.1378 -0.0164 -0.2348
14489W        W29958   6.361  11.249   4.041 -0.2290 -0.2713  0.0115
14490W        W29959  18.310   8.517   0.278 -0.0786 -0.1721 -0.0581
14491W        W29960  14.397   5.021  14.711 -0.2596  0.3599 -0.3040
14492W        W29961  16.721  11.518  13.337  0.0909  0.2538 -0.1490
14493W        W29962  13.807  17.088  14.582  0.1951  0.0476 -0.0200
14494W        W29963  13.355  14.914   1.272 -0.1028  0.0275  0.1690
14495W        W29964  13.490   1.502  10.005 -0.1793  0.1431 -0.4553
14496W        W29965   9.777   1.732   4.779  0.2501  0.1311  0.0500
14497W        W29966  12.125  13.630   2.391  0.3742  0.1464  0.0070
14498W        W29967  15.066   9.850  14.774  0.2335  0.1971  0.1763
14499W        W29968   2.163   5.243   4.456 -0.2343  0.1712  0.0805
14500W        W29969  14.913  13.895   3.273  0.4740  0.0883 -0.0560
14501W        W29970   9.855  15.885  13.899 -0.6113  0.1779  0.0456
14502W        W29971  17.596   3.926   4.927 -0.2063  0.0703  0.3236
14503W        W29972  16.753   3.847  10.533  0.3093 -0.1468 -0.1513
14504W        W29973   5.976   8.114   0.099 -0.1851  0.3118 -0.0883
14505W        W29974  16.553   6.266  11.315  0.1273  0.1119 -0.1515
14506W        W29975   1.996   5.716  11.503  0.0720 -0.0013  0.1104
14507W        W29976   8.982   1.367  13.468 -0.2710  0.1966 -0.4408
14508W        W29977   5.456   4.137  13.325 -0.1757  0.1807 -0.6194
14509W        W29978   5.495   7.351  11.351  0.0631 -0.0211  0.0682
14510W        W29979   9.629  16.088   3.832  0.1889 -0.1233 -0.0343
14511W        W29980   5.760   6.108  13.457 -0.1137  0.1186  0.3445
14512W        W29981  15.910  13.950   0.292  0.0872 -0.0552 -0.1554
14513W        W29982   2.879   4.691   3.207  0.0465 -0.0390  0.0043
14514W        W29983  17.260  13.600   0.339  0.1994  0.0122 -0.1732
14515W        W29984   3.084  10.297   1.335  0.2221  0.1436  0.1577
14516W        W29985   0.234   3.848   2.532 -0.2426  0.1819  0.3579
14517W        W29986   8.582  10.567  13.827  0.1086  0.4587  0.0284
14518W        W29987   6.694   3.494   0.543  0.3599  0.0217  0.1127
14519W        W29988   9.000   6.189   0.950  0.1730  0.0094  0.0624
14520W        W29989  12.598   9.911  11.361 -0.1548 -0.0804  0.3047
14521W        W29990   8.854   2.311  11.954  0.0585  0.2206 -0.0600
14522W        W29991  15.798  16.695  15.764 -0.0986 -0.1249  0.2840
14523W        W29992   9.436  17.896   3.395  0.1127  0.0492  0.1877
14524W        W29993   8.749   0.423  14.561 -0.0217  0.4405 -0.0696
14525W        W29994  11.186   9.217  12.651 -0.2645 -0.1000 -0.2343
14526W        W29995  10.443   0.510   1.483 -0.0387  0.3036 -0.2349
14527W        W29996  10.188   4.839  11.510 -0.3667  0.0150  0.0845
14528W        W29997  16.822   7.502   2.173 -0.0860  0.1493  0.1017
14529W        W29998  15.818  18.078   4.543 -0.5320 -0.3217  0.2098
14530W        W29999   5.555   8.415  15.545 -0.1342  0.1122  0.1350
14531W        W30000  10.507   9.037  13.576  0.2725 -0.0167 -0.1318
14532W        W30001  14.467  17.528  14.209  0.1682 -0.2265 -0.2167
14533W        W30002   3.164   6.933  15.271 -0.0805 -0.1465  0.3854
14534W        W30003   3.065   2.383   3.807 -0.1362  0.0404 -0.0837
14535W        W30004  12.536   3.681  13.092  0.0075  0.0512  0.0996
14536W        W30005  16.187   6.424  10.473  0.0966  0.0181 -0.2191
14537W        W30006   9.266   9.189  13.569  0.2522  0.1017 -0.2283
14538W        W30007   9.685   7.043   3.163  0.0397 -0.4757  0.2243
14539W        W30008   8.370   6.687   0.218  0.0629  0.0261 -0.1072
14540W        W30009  12.794  14.229   0.686  0.3630 -0.2870 -0.2029
14541W        W30010   2.465  10.775  12.263 -0.0054 -0.1701 -0.3822
14542W        W30011   3.726   0.644   3.707  0.0230  0.0429 -0.0070
14543W        W30012  11.100  11.045   5.145 -0.0798 -0.2121  0.1560
14544W        W30013   8.693  10.644  10.555  0.0928 -0.1086  0.0826
14545W        W30014   6.175  15.420   5.046  0.0677  0.2560  0.2686
14546W        W30015   2.923  14.733  13.989  0.1450  0.2083 -0.0415
14547W        W30016  18.181   6.230  14.872  0.0210  0.1595 -0.2169
14548W        W30017   5.597   5.633  14.509  0.2594  0.1099  0.0306
14549W        W30018  14.186  11.679  15.665  0.3425  0.2081 -0.1189
14550W        W30019   2.835  10.731   4.605 -0.2320  0.1507 -0.3614
14551W        W30020   0.316  16.850   2.732 -0.1394 -0.0445 -0.1157
14552W        W30021   1.038   1.074   2.956  0.1967  0.1232  0.4247
14553W        W30022   0.488   6.193  14.221 -0.0230  0.1433  0.5101
14554W        W30023  12.657  15.276  13.834 -0.0068 -0.3447 -0.2577
14555W        W30024   2.975   9.541  14.296  0.5413 -0.1877 -0.1735
14556W        W30025   4.795  17.598  12.085  0.1333 -0.2430 -0.1020
14557W        W30026   7.877  12.332   4.388 -0.1994 -0.2135 -0.2907
14558W        W30027  13.454  10.113  12.365 -0.0791 -0.0099  0.3190
14559W        W30028   0.749  12.004  14.313 -0.2564  0.3157  0.0237
14560W        W30029  11.082  12.022   3.042  0.0004 -0.0469 -0.2325
14561W        W30030   5.454   0.875   0.807 -0.0025  0.0224  0.0865
14562W        W30031  18.446   0.312   3.558  0.0777 -0.0418  0.2251
14563W        W30032   8.378   8.534   4.646  0.0323  0.3147 -0.1717
14564W        W30033   9.627   1.647   5.308 -0.0745 -0.0222  0.0700
14565W        W30034  10.173  12.119   2.144 -0.1122  0.3982  0.0367
14566W        W30035  12.512  11.002   4.840 -0.1537 -0.1830  0.1405
14567W        W30036   6.056  10.002  11.651 -0.1740 -0.0539  0.1897
14568W        W30037  14.844  17.396   5.492 -0.0581 -0.1818 -0.0121
14569W        W30038  14.016  16.944  12.910  0.0232  0.0385 -0.1824
14570W        W30039  16.826  15.303  12.326  0.0250  0.0885  0.1632
14571W        W30040  15.219   6.553  14.197  0.2436  0.1606  0.0758
14572W        W30041   8.231   5.281  10.114 -0.2814  0.1111 -0.1094
14573W        W30042  10.588   3.878   0.332  0.1351  0.0997  0.1205
14574W        W30043  10.955   5.089   1.761 -0.0601  0.1763  0.1378
14575W        W30044  17.322  11.972  11.815  0.1412  0.0639 -0.0319
14576W        W30045  13.742  17.178   4.852 -0.0718 -0.1579  0.2816
14577W        W30046  16.064   0.995   6.049  0.1671  0.1944  0.0393
14578W        W30047   4.195   1.744  13.837 -0.1795  0.0382  0.0132
14579W        W30048   0.305   3.405   4.094 -0.1382 -0.0140  0.1726
14580W        W30049  17.707   4.254   1.920  0.0983  0.0908 -0.1460
14581W        W30050   4.891  17.524  14.722 -0.2212  0.2180 -0.0158
14582W        W30051   9.547   7.156   5.469 -0.1049 -0.0566  0.0502
14583W        W30052   3.154   7.271   1.972  0.1993 -0.0026 -0.2460
14584W        W30053  14.187  15.790  14.246  0.0365  0.0967  0.0595
14585W        W30054   3.099   1.734   0.476  0.0099  0.1063 -0.1515
14586W        W30055   5.768   7.631   0.209 -0.1937 -0.2166 -0.0414
14587W        W30056   8.390   8.783   2.273  0.1648 -0.3055 -0.1424
14588W        W30057   7.534   9.304   3.443  0.0005 -0.1454  0.1596
14589W        W30058   8.071   6.163  14.137 -0.1217 -0.0200 -0.2023
14590W        W30059   1.314   9.185   1.512  0.0489  0.3448  0.3060
14591W        W30060  18.406  13.059  11.833  0.1381 -0.1024 -0.3169
14592W        W30061   6.958  14.311   4.175  0.1181 -0.1865  0.0402
14593W        W30062   8.644  16.314   2.622  0.3270  0.2718  0.3293
14594W        W30063  15.520  12.173   0.492  0.1380  0.2716 -0.2717
14595W        W30064   2.354   4.323  13.806 -0.0627 -0.2004 -0.1701
14596W        W30065  10.692  10.621  12.661 -0.2950 -0.2120 -0.1458
14597W        W30066   0.094   2.950   4.092  0.1329 -0.1395 -0.2391
14598W        W30067  12.687   6.854   0.012  0.2856  0.1872  0.0617
14599W        W30068   3.336   3.093  13.553 -0.2039  0.2625  0.2321
14600W        W30069  15.342   8.209  13.412  0.2624  0.0137 -0.0775
14601W        W30070   6.077   3.765   5.806 -0.0558 -0.0582 -0.2744
14602W        W30071  14.532  13.894   2.138 -0.1900  0.1083  0.1839
14603W        W30072  14.810   7.815  13.347 -0.1167  0.1939  0.0636
14604W        W30073  18.178  18.557  14.857  0.1192  0.2397 -0.0379
14605W        W30074  15.288   1.220   1.116 -0.0131 -0.5157 -0.0044
14606W        W30075  15.728  12.177  11.984  0.0707 -0.2103 -0.3671
14607W        W30076   4.775  18.072   0.901 -0.0178  0.0276  0.1894
14608W        W30077   1.492  16.859  15.044  0.0711  0.1242 -0.0494
14609W        W30078   2.621  13.911  10.295 -0.0468 -0.1514  0.0633
14610W        W30079   3.014   1.973  15.087 -0.2568  0.1176 -0.3195
14611W        W30080  12.361  17.874   4.843 -0.1499 -0.2492  0.1020
14612W        W30081   8.172  14.532  11.208 -0.3161 -0.2719 -0.2851
14613W        W30082   1.967   4.057   5.129  0.1778 -0.1828 -0.0146
14614W        W30083   4.127   0.480  12.386  0.2447 -0.1799  0.2687
14615W        W30084   0.987  10.350   1.125 -0.0881 -0.3827  0.0192
14616W        W30085   4.623   9.372  12.535  0.3333 -0.0099  0.0424
14617W        W30086   5.589  17.003   4.823  0.0119  0.2874  0.0757
14618W        W30087  14.320   5.905   2.430 -0.2266  0.2567 -0.0087
14619W        W30088   1.526  10.579   2.080 -0.2162 -0.1308 -0.0781
14620W        W30089  11.721  14.564   4.635  0.0900  0.0056  0.0330
14621W        W30090   7.496  11.807   1.808 -0.4050 -0.2630 -0.2625
14622W        W30091   5.892   1.809   1.489 -0.0047 -0.2116  0.2945
14623W        W30092   0.541  15.312   1.215  0.0306 -0.3539 -0.1060
14624W        W30093   2.085  17.001  14.956  0.0481  0.1157 -0.1749
14625W        W30094   2.297   1.234  15.254  0.3306  0.2065  0.1032
14626W        W30095   1.393   5.154  15.755 -0.2714 -0.0321  0.2451
14627W        W30096   7.116  14.878  11.203 -0.2848  0.0160  0.2740
14628W        W30097   1.560   7.871  10.794 -0.0080  0.3413  0.1428
14629W        W30098  17.590   9.798   3.521 -0.0223 -0.1146 -0.0043
14630W        W30099   3.376   5.439  13.737  0.3135 -0.0298  0.2608
14631W        W30100  16.152  15.371  11.643  0.2155  0.0965  0.1513
14632W        W30101   2.963   8.088  15.047 -0.0591  0.0870  0.0334
14633W        W30102  10.380   3.704   2.464 -0.2079  0.0529 -0.0072
14634W        W30103  16.382   5.876   2.374 -0.1465  0.1597 -0.3381
14635W        W30104  17.493   8.372  10.562  0.0243 -0.0438  0.3083
14636W        W30105   6.969   8.621   3.919 -0.0082 -0.0940 -0.0608
14637W        W30106   8.935  18.273   5.211  0.0224 -0.1512  0.2910
14638W        W30107   0.315   1.748  15.360 -0.0283 -0.3465 -0.1274
14639W        W30108  18.287   3.981   0.837 -0.2061 -0.0310 -0.2305
14640W        W30109   5.997  16.646   1.641 -0.2681  0.1902 -0.3300
14641W        W30110  17.674  14.082   4.165 -0.0232  0.0283 -0.3296
14642W        W30111   2.519  18.337  12.224  0.1147 -0.0713 -0.0295
14643W        W30112  11.842  15.654   2.163  0.2121 -0.3184 -0.2568
14644W        W30113  16.673   2.193   4.587  0.2545 -0.1681 -0.1938
14645W        W30114  14.291   0.894  13.352  0.1179  0.3053 -0.2904
14646W        W30115   1.737  13.532  13.321 -0.1736  0.0906  0.0919
14647W        W30116   2.761   6.715   2.189  0.2501  0.1228  0.3428
14648W        W30117   9.259   0.129   2.760 -0.1004  0.0111  0.2640
14649W        W30118   3.508  17.578   3.307  0.2908  0.5502  0.0509
14650W        W30119   3.794   2.091   4.834  0.1185 -0.1691  0.0543
14651W        W30120   5.298  11.786  11.951 -0.0392  0.0576  0.3246
14652W        W30121   4.757  15.069   2.449 -0.0794 -0.2009  0.1071
14653W        W30122   7.090  11.649  11.212 -0.0781  0.3290  0.1335
14654W        W30123   1.523   4.257  11.392  0.2259  0.0946  0.0785
14655W        W30124   6.760  13.285   5.170 -0.2711 -0.1258  0.2340
14656W        W30125   2.999  12.437  12.440 -0.2640 -0.3180  0.1774
14657W        W30126  12.198   9.797   2.770  0.0502 -0.0152 -0.3167
14658W        W30127   3.989  17.519   2.511 -0.0547 -0.0112 -0.1868
14659W        W30128   1.690  15.887   4.307 -0.0890  0.2290  0.2362
14660W        W30129   9.633   4.512  13.471  0.2389  0.1375  0.0164
14661W        W30130   5.065  11.473   1.002  0.1227 -0.0889 -0.0839
14662W        W30131   3.261  17.268  11.003 -0.1626 -0.2756 -0.2079
14663W        W30132  17.168   2.291   2.047  0.0380 -0.1725 -0.0683
14664W        W30133  17.829   7.458   5.144  0.2872  0.1088 -0.0285
14665W        W30134   3.356  11.552  15.730 -0.0485  0.2931 -0.1008
14666W        W30135  11.553   0.470  14.276 -0.0504  0.1121 -0.3227
14667W        W30136  15.379   9.443  12.343  0.1627 -0.1630 -0.0168
14668W        W30137  11.241   8.381  13.616 -0.1509  0.1097 -0.1338
14669W        W30138  14.938  13.415   2.727  0.0215 -0.0675  0.1504
14670W        W30139  17.979   8.044  15.264 -0.2782 -0.2053 -0.3595
14671W        W30140  14.204  17.260   4.656 -0.1017  0.0335  0.2413
14672W        W30141   8.138   8.016  15.141 -0.0250  0.0242  0.2019
14673W        W30142   1.685  11.205   5.524  0.0425  0.2135 -0.1046
14674W        W30143  17.406  11.898   0.162 -0.0306  0.0565 -0.2132
14675W        W30144  14.089   3.270   4.024 -0.0339  0.0072 -0.0739
14676W        W30145   8.198   1.328   2.632 -0.1427 -0.2003 -0.0391
14677W        W30146  18.527  11.695  12.353  0.0489 -0.1154  0.1400
14678W        W30147  11.649  11.122   2.497  0.1355 -0.2425 -0.0005
14679W        W30148   3.361  16.067  13.382 -0.2680 -0.1242 -0.2487
14680W        W30149   5.896   1.362  13.978 -0.2150  0.0798 -0.0743
14681W        W30150  16.421  13.879   4.657  0.0324  0.1383  0.0361
14682W        W30151   1.123   6.940   0.256 -0.0124  0.1601 -0.2216
14683W        W30152   9.683   6.741  13.129 -0.2957 -0.0787  0.1867
14684W        W30153   2.005   5.906  11.040 -0.1057  0.1065 -0.1864
14685W        W30154   3.113   3.062   2.568  0.2524 -0.0990 -0.2318
14686W        W30155  11.788  13.094  13.176  0.4285  0.0327 -0.0910
14687W        W30156   5.824   3.257  11.494 -0.1784 -0.0405  0.0307
14688W        W30157   5.576  13.013  13.440 -0.2016 -0.2687  0.0325
14689W        W30158  17.429   2.677  10.982 -0.0895 -0.1339 -0.0327
14690W        W30159   4.023   9.337   2.074 -0.2122  0.0558  0.2605
14691W        W30160  10.127   4.891   3.029 -0.0322  0.1234  0.0788
14692W        W30161  14.121  11.233  13.014 -0.1463  0.0770  0.3869
14693W        W30162  12.816   5.589   0.428 -0.0188  0.0027  0.2229
14694W        W30163   6.771  17.429  11.813  0.2775  0.2687  0.1074
14695W        W30164   5.690   6.813   0.558  0.1093 -0.0847 -0.3309
14696W        W30165   7.650  15.035   5.858 -0.1557 -0.0534 -0.1028
14697W        W30166   6.703   5.848   4.274 -0.1503  0.1703  0.1638
14698W        W30167   9.731   9.247  13.674 -0.1361 -0.1921  0.3222
14699W        W30168  16.452   1.166   2.059 -0.0818  0.0208 -0.0140
14700W        W30169   5.511  10.245   2.210 -0.4324  0.0468  0.0977
14701W        W30170  11.292   4.867  15.585 -0.2543  0.2637  0.1689
14702W        W30171  10.159  16.680   2.953 -0.1063  0.2006  0.0955
14703W        W30172  18.419   5.451   1.730 -0.4497  0.0477  0.0411
14704W        W30173  10.259   6.733  13.740 -0.0327 -0.1403  0.1554
14705W        W30174   4.611   4.813   0.738  0.0190 -0.4727 -0.0381
14706W        W30175   8.241   6.840  12.887  0.0518 -0.0618  0.0035
14707W        W30176  18.119   8.050  13.780 -0.2101 -0.3728  0.3015
14708W        W30177   6.060   4.395  12.864 -0.4723 -0.3960  0.3001
14709W        W30178  14.999   5.729   2.647 -0.2501  0.0111 -0.3872
14710W        W30179   8.445   6.851   3.988  0.0632  0.2202  0.0121
14711W        W30180   8.217   1.814   0.546  0.0919  0.1287  0.3128
14712W        W30181  13.749   4.151  12.807 -0.1668 -0.0695  0.1137
14713W        W30182   9.485  12.397  12.299  0.1017  0.2519  0.0788
14714W        W30183  16.809  14.042  13.638  0.1050 -0.0021 -0.0149
14715W        W30184   6.734   0.624  10.910 -0.1929  0.0076 -0.0373
14716W        W30185   3.787  12.280   4.918 -0.2021 -0.3155 -0.4956
14717W        W30186   5.862  15.069  12.398 -0.1236 -0.1196  0.1763
14718W        W30187  14.418  11.999  12.898 -0.2577 -0.2161  0.0796
14719W        W30188   7.629  10.653  13.138 -0.1972 -0.2864  0.2230
14720W        W30189   4.229  12.145  15.288  0.0889 -0.0019  0.2442
14721W        W30190  12.720  16.920   0.073  0.0784  0.0472 -0.1145
14722W        W30191   2.692   3.807   9.492  0.3707  0.2274  0.1810
14723W        W30192   6.945   4.034  11.977 -0.2709 -0.1754 -0.1594
14724W        W30193  15.544  17.784   0.765  0.1101  0.1321  0.0426
14725W        W30194   9.045  12.293   4.472  0.0900  0.2705 -0.1780
14726W        W30195  13.342   1.876   3.713 -0.0158  0.1413  0.3978
14727W        W30196   5.879   8.023   5.241 -0.0727 -0.1165  0.1954
14728W        W30197   6.429   0.866   0.588  0.0298  0.1219  0.2854
14729W        W30198  17.905  10.487   2.432  0.4648 -0.0603 -0.0175
14730W        W30199  16.398  14.951  11.798 -0.1372 -0.0185  0.0514
14731W        W30200   3.879   4.360   4.913 -0.2276 -0.3186 -0.3632
14732W        W30201   7.834   2.410   1.414  0.3057 -0.2512  0.0382
14733W        W30202   1.016   5.242   5.010  0.2482 -0.0442 -0.2828
14734W        W30203  12.844   9.974  13.111  0.1338 -0.1669 -0.2256
14735W        W30204  15.496   5.439  12.670 -0.0244 -0.3158  0.2568
14736W        W30205  11.769  17.831  15.200  0.1473 -0.1757 -0.0176
14737W        W30206   8.906   7.112  13.799  0.0452  0.1352  0.1509
14738W        W30207   4.084  13.452   1.158  0.0291 -0.3138 -0.1085
14739W        W30208  12.457  14.192   4.146  0.3011  0.3279  0.2573
14740W        W30209   6.491  14.190   3.296 -0.2344  0.0068  0.2657
14741W        W30210   2.678  17.527   2.246  0.1879  0.0500  0.0272
14742W        W30211  15.965   9.990  11.731  0.0002 -0.0372  0.1656
14743W        W30212   9.528   4.032  13.603 -0.1567 -0.2574  0.1273
14744W        W30213   1.804   0.066   3.129  0.0074  0.0945 -0.0712
14745W        W30214   3.298   0.400  11.523  0.2366  0.2903 -0.2825
14746W        W30215  14.267   2.815  14.242  0.3206  0.1172 -0.3356
14747W        W30216  11.624  10.822   0.782  0.3524  0.0777  0.0173
14748W        W30217   4.090   5.631  10.873  0.0875 -0.0773  0.2389
14749W        W30218   0.990   6.451   0.163  0.0965  0.0349 -0.2166
14750W        W30219  17.383   8.662  14.350 -0.2287 -0.0685  0.1148
14751W        W30220  11.700   0.988   1.950  0.1169 -0.0144 -0.1974
14752W        W30221   7.291  14.444  13.989 -0.0387 -0.1302 -0.0142
14753W        W30222   2.721  16.233   1.627  0.0435 -0.0183  0.3165
14754W        W30223   0.673   5.084   2.055 -0.1013  0.0570  0.1003
14755W        W30224   4.577  10.393   2.015  0.0775 -0.1304 -0.1916
14756W        W30225   6.197   7.933  15.332  0.0345 -0.2323  0.0242
14757W        W30226   9.627   9.527   5.357  0.2755  0.2912  0.1047
14758W        W30227  15.871  15.834  15.376  0.0567 -0.0415  0.1875
14759W        W30228  13.245  15.821   4.244 -0.1028  0.1446 -0.3990
14760W        W30229   7.237  14.876   1.491  0.0841 -0.3008 -0.0468
14761W        W30230  12.282  11.201  14.560  0.1913  0.0117 -0.0302
14762W        W30231  10.187   8.150   2.364 -0.1823 -0.0655  0.0122
14763W        W30232  17.159   0.544  12.569 -0.1061 -0.2323  0.0726
14764W        W30233   7.974  13.632  11.434  0.3437  0.1862 -0.0637
14765W        W30234   7.592  11.965   3.788 -0.1158  0.0549  0.3651
14766W        W30235  16.929  13.851  12.484  0.1437 -0.2067  0.2126
14767W        W30236  12.897   5.348  13.277  0.2073  0.0962 -0.0950
14768W        W30237   2.417   2.968   4.282 -0.4994  0.1323 -0.2578
14769W        W30238  10.992  10.783   3.026 -0.1341 -0.2236  0.1772
14770W        W30239  14.521   3.131   0.726  0.1290  0.0049 -0.2023
14771W        W30240  12.025   4.862  14.122 -0.4674 -0.0053 -0.0881
14772W        W30241   9.537   8.400   5.416 -0.2629 -0.1376  0.1901
14773W        W30242   2.737   6.526  12.379  0.1269 -0.2169  0.0598
14774W        W30243   2.778   5.736  10.782  0.1499 -0.3781  0.0621
14775W        W30244  12.949  17.937   3.787 -0.1187  0.0301 -0.1380
14776W        W30245   0.534   2.580   1.475 -0.1992 -0.1747 -0.2921
14777W        W30246  11.204  17.918  11.962  0.1074 -0.1634 -0.2201
14778W        W30247  18.428   5.937   5.013  0.2059  0.0531  0.3076
14779W        W30248  13.036   2.747   0.599  0.1858  0.0220  0.2986
14780W        W30249   9.872   1.928  12.890  0.0779  0.3404 -0.2012
14781W        W30250   8.068  18.238   4.646  0.2859 -0.3076  0.0567
14782W        W30251  17.951   9.396  11.752 -0.0185  0.0201  0.0748
14783W        W30252   4.340   5.471  13.922 -0.3349  0.2749  0.0178
14784W        W30253   7.004   5.185   2.337 -0.2211 -0.1748 -0.0392
14785W        W30254   1.502   2.291  15.083  0.0996 -0.0851  0.3855
14786W        W30255  13.796  12.957   6.138  0.2968 -0.1020  0.2438
14787W        W30256  13.634  18.269   5.909  0.1068  0.2343 -0.0068
14788W        W30257   8.761  13.776   0.775  0.1234  0.0349  0.0486
14789W        W30258   4.641   2.961  15.198 -0.0942 -0.1010 -0.2814
14790W        W30259  15.408   5.080  11.803 -0.0477 -0.0389 -0.1540
14791W        W30260   3.582   7.791  15.224 -0.0997  0.2183  0.0644
14792W        W30261  15.968   1.672  14.312 -0.5005 -0.0692 -0.1293
14793W        W30262   9.596   5.679  14.203  0.3554  0.2143  0.0194
14794W        W30263   5.616  15.312  12.859  0.0396 -0.0906 -0.0001
14795W        W30264   0.697   8.959   2.413 -0.0309 -0.0205 -0.2087
14796W        W30265  11.401  12.787   2.561  0.4194 -0.2840 -0.1812
14797W        W30266  10.713  13.499  10.697 -0.0523  0.1164  0.0951
14798W        W30267   8.263   4.579   3.395  0.2292  0.1415 -0.1404
14799W        W30268   8.551  15.224   0.156  0.0128  0.1516  0.2083
14800W        W30269  13.259  14.823   4.017  0.4333  0.4461 -0.0408
14801W        W30270   5.726   2.151  14.971  0.0386 -0.1707  0.0980
14802W        W30271   6.020  11.674  15.185 -0.3884  0.0863  0.0280
14803W        W30272   4.358   1.408  15.438 -0.3459 -0.1135 -0.0164
14804W        W30273  15.648   4.511   5.288  0.1088 -0.0508  0.3108
14805W        W30274  18.401  17.699   3.266 -0.0403  0.0376  0.1289
14806W        W30275   1.135   6.139   9.125 -0.0009 -0.1858  0.0214
14807W        W30276  18.074  17.814  11.755 -0.4712  0.2026  0.0838
14808W        W30277  10.007  10.483  11.497  0.1621  0.0261  0.1627
14809W        W30278   0.070   9.630   0.218 -0.0734  0.0421 -0.0844
14810W        W30279   2.371   6.265  13.871  0.0708  0.3151 -0.3302
14811W        W30280   4.017  13.865  10.806  0.1170  0.1489 -0.0846
14812W        W30281   6.868   7.593  13.558  0.1415 -0.2549  0.1007
14813W        W30282  16.222  18.260  10.476  0.2079  0.0064 -0.3227
14814W        W30283  16.732   1.406   4.005  0.1259  0.1769 -0.4846
14815W        W30284  18.551   9.825  12.686 -0.1487  0.0842  0.1988
14816W        W30285  17.324  17.784   4.325 -0.1570  0.1268  0.3106
14817W        W30286   9.670   1.969  11.710  0.3852 -0.0499 -0.0246
14818W        W30287   7.936  16.901  13.367  0.0671  0.0806 -0.3292
14819W        W30288  12.130  15.342  13.595 -0.0334 -0.1033 -0.3178
14820W        W30289   9.333  11.088   3.194  0.1739 -0.2190  0.0596
14821W        W30290   7.763   0.979   5.972 -0.0361 -0.2006 -0.0446
14822W        W30291  12.181   9.692  13.447  0.1929  0.0524  0.0330
14823W        W30292   8.448   3.349  11.501  0.0200 -0.1136  0.0040
14824W        W30293  18.285  13.666   5.096 -0.1492  0.1030 -0.1661
14825W        W30294  15.450   8.457  11.340  0.3706 -0.0953  0.0798
14826W        W30295   5.594  14.520   3.627 -0.2583 -0.0100  0.0291
14827W        W30296   1.101   3.286  13.530 -0.1065  0.0365 -0.0396
14828W        W30297  16.961   8.314  10.486 -0.3919  0.0355 -0.3213
14829W        W30298   5.546  16.875   4.339  0.2152 -0.3547 -0.0620
14830W        W30299   8.942   6.079  12.544 -0.0039 -0.1192  0.2318
14831W        W30300  13.774   6.675   3.753 -0.0320 -0.1154  0.0489
14832W        W30301  18.060  13.003  11.440  0.0532 -0.1442 -0.2410
14833W        W30302  12.145   8.864   3.213 -0.3644  0.3551  0.0517
14834W        W30303  15.787  14.343   1.116 -0.2380  0.0950  0.0336
14835W        W30304  17.008  11.363   0.694  0.0027 -0.0671 -0.2072
14836W        W30305  14.826  10.302   3.503 -0.0672 -0.0686 -0.1356
14837W        W30306   7.303   5.535  11.805 -0.1284 -0.0347 -0.1706
14838W        W30307  18.480   6.484   1.618  0.2489  0.0135  0.0460
14839W        W30308  15.238  12.975  12.335  0.0943  0.1305  0.3223
14840W        W30309   0.934  12.813  11.204 -0.6081 -0.3164 -0.0775
14841W        W30310  16.203   4.471  14.331 -0.1103 -0.2111 -0.3321
14842W        W30311   7.763   5.018  12.477 -0.1546 -0.0239 -0.0442
14843W        W30312  15.986  10.900  14.648  0.2288  0.0581  0.1345
14844W        W30313  11.640  17.215  14.120  0.2938  0.1978 -0.0001
14845W        W30314  10.694  13.734   0.047 -0.2391  0.1799 -0.1459
14846W        W30315  17.124   4.306   4.651  0.1483  0.2028  0.2055
14847W        W30316  12.264  13.430   1.897 -0.1402 -0.0097  0.1685
14848W        W30317   7.289   2.331   3.083 -0.3511 -0.0011 -0.0061
14849W        W30318   6.020  10.605   1.088 -0.3646  0.0022 -0.0708
14850W        W30319  16.354   9.643   0.913 -0.1660  0.2065 -0.1250
14851W        W30320  16.768  15.762  10.613  0.0790  0.0484  0.0427
14852W        W30321   3.765  17.810   1.593  0.0994 -0.1730 -0.1431
14853W        W30322   8.258   1.839  15.174  0.0060 -0.0953  0.4649
14854W        W30323  17.884   7.578   4.461 -0.3888  0.4547 -0.2089
14855W        W30324   7.286   2.378   1.747 -0.3985  0.0884  0.1043
14856W        W30325   2.350   3.703  13.501  0.1598 -0.1700 -0.1564
14857W        W30326   3.257   6.083   2.860  0.2152  0.2622  0.0588
14858W        W30327  14.127  12.517   4.523 -0.1856  0.2937  0.0963
14859W        W30328  14.866  13.118   4.849 -0.1902  0.1020 -0.3290
14860W        W30329  13.821   1.085  11.975 -0.2066 -0.0299  0.1073
14861W        W30330  11.945   3.592  13.003 -0.0703  0.1679 -0.1788
14862W        W30331  17.126   1.388  10.328 -0.2505  0.1038  0.0733
14863W        W30332  15.720  13.458  13.667 -0.1295  0.0840  0.0428
14864W        W30333  15.794   9.924   1.424  0.3877  0.1312 -0.2219
14865W        W30334  18.485   3.125   1.326  0.1642  0.0040 -0.1437
14866W        W30335  10.762   9.819   2.967 -0.0900  0.0510 -0.0776
14867W        W30336   3.532  16.898  11.827 -0.0060  0.0263 -0.0253
14868W        W30337  17.415   1.168  12.485  0.1753  0.1756 -0.2888
14869W        W30338  14.162   6.999  11.406 -0.2061 -0.2825 -0.1334
14870W        W30339  17.881  18.271   2.357  0.1012 -0.1948 -0.1870
14871W        W30340   5.824  12.108  13.302 -0.0370 -0.0008  0.0569
14872W        W30341  14.104  15.862   5.840  0.0058  0.0401  0.2681
14873W        W30342  18.455  12.208  14.011 -0.0287 -0.2172  0.0782
14874W        W30343   0.052  18.263   5.319 -0.0845 -0.1584  0.0825
14875W        W30344   2.928  15.810  13.473 -0.2877 -0.0540 -0.3355
14876W        W30345   7.105  10.528  13.537  0.0719  0.0480 -0.0726
14877W        W30346   5.467   7.553  11.783 -0.2277  0.3812 -0.2610
14878W        W30347   5.614  10.675  10.507 -0.1254 -0.0535  0.2025
14879W        W30348   2.999   1.473  13.390 -0.0420 -0.1572 -0.0932
14880W        W30349   9.626   5.102   4.410  0.2646  0.1154 -0.1231
14881W        W30350   8.341   3.966  15.606  0.0688  0.1032 -0.0355
14882W        W30351   0.435   2.730   3.108  0.0825 -0.0085  0.0130
14883W        W30352  11.067   3.625  14.936 -0.0778  0.0575  0.1221
14884W        W30353   3.648  15.224   4.055 -0.0483  0.0152 -0.0355
14885W        W30354   0.858  12.616  12.538 -0.0364 -0.0250  0.0938
14886W        W30355  16.379   2.647  10.912 -0.1533 -0.0409 -0.0668
14887W        W30356  14.382   1.993  15.573  0.0839  0.1210 -0.0635
14888W        W30357  11.771   7.924   3.249  0.4166  0.0014 -0.3180
14889W        W30358  17.317  11.140   1.028  0.1265  0.2773 -0.0813
14890W        W30359  11.613  13.411   3.131 -0.2617  0.0883  0.0049
14891W        W30360  11.915  14.273  10.887 -0.3047 -0.1579 -0.1134
14892W        W30361   1.061   9.037  14.099 -0.1049  0.2165 -0.1153
14893W        W30362   2.097   1.492  11.535  0.1851  0.3262  0.3394
14894W        W30363   3.198   1.284   4.898 -0.2406  0.0534  0.1608
14895W        W30364  14.001  16.208   1.302  0.0919 -0.0582 -0.2672
14896W        W30365  10.200   2.250  14.412 -0.0542  0.0555  0.3167
14897W        W30366   4.065   3.936  15.289 -0.0295 -0.1693  0.0994
14898W        W30367  14.597  17.942   5.598 -0.0321  0.0475 -0.1095
14899W        W30368   8.031   0.006   0.903 -0.3307 -0.0464  0.1189
14900W        W30369   4.973   7.319  12.189 -0.3680 -0.0154  0.0351
14901W        W30370   7.806   6.170  13.719 -0.2284 -0.4021  0.0305
14902W        W30371   8.426   3.239  15.553  0.2509  0.1787  0.2554
14903W        W30372   1.222  10.070  11.250  0.0025  0.1292 -0.1050
14904W        W30373   0.542   0.160   3.262  0.0087  0.3813 -0.1349
14905W        W30374  15.624  17.961  13.526  0.1661  0.0839  0.2750
14906W        W30375  16.015   9.274  14.148  0.4222  0.2343 -0.0964
14907W        W30376   2.232  10.750   3.296  0.1903 -0.1067  0.0558
14908W        W30377   4.536  15.927  14.623  0.0276  0.1632 -0.1321
14909W        W30378  18.330   9.619  12.222  0.3187  0.1915 -0.1325
14910W        W30379  10.914   3.533   4.919 -0.0513 -0.2266 -0.1625
14911W        W30380  16.206  11.032   4.598  0.3444 -0.1040 -0.2826
14912W        W30381   1.158   7.220   9.183  0.0275 -0.2588  0.3469
14913W        W30382   7.442  11.124  14.376 -0.0988  0.0290 -0.1569
14914W        W30383   3.198  15.325  10.802 -0.2753  0.1165 -0.1287
14915W        W30384  11.145   2.275   0.091 -0.0003 -0.0336  0.0985
14916W        W30385   0.989  13.753   5.067  0.0723 -0.0375  0.1046
14917W        W30386   8.983   7.532   3.636 -0.0061 -0.1282 -0.1159
14918W        W30387  11.949   9.615   5.957  0.0040  0.1897  0.0597
14919W        W30388  14.826   8.458  13.814  0.0056 -0.0893 -0.0093
14920W        W30389   8.714  13.123   3.542  0.0581  0.0496 -0.1876
14921W        W30390   4.965   7.803   1.307  0.2584  0.3742  0.2462
14922W        W30391   0.487   8.059  15.738  0.2043 -0.1914 -0.0126
14923W        W30392   2.127  17.699   5.644  0.0407  0.1003  0.4605
14924W        W30393  11.973   3.682   3.756  0.0374 -0.0840 -0.1128
14925W        W30394   0.403  17.725   4.236  0.2482 -0.0149  0.4502
14926W        W30395   5.634  12.263   2.569  0.2371  0.2488 -0.2851
14927W        W30396   3.110  17.095   4.116 -0.2530 -0.1315  0.4941
14928W        W30397  14.237   2.354   3.624 -0.0401  0.1099 -0.1913
14929W        W30398  11.303  15.082   3.123  0.1821 -0.0500 -0.2308
14930W        W30399  16.495  17.179  14.477  0.0084  0.0451 -0.3067
14931W        W30400   7.787   8.797   0.328 -0.0812 -0.2075  0.2931
14932W        W30401   2.505  10.872  11.148 -0.4972  0.2767  0.0081
14933W        W30402  17.185   8.127  14.977 -0.4029 -0.0808 -0.2788
14934W        W30403  14.808   3.920   3.118  0.0142 -0.0360  0.0286
14935W        W30404  17.334   1.068   1.219 -0.2593  0.0779  0.4029
14936W        W30405  10.304  13.028  15.337  0.1976 -0.0097 -0.2187
14937W        W30406   2.076  14.746  10.138 -0.1920 -0.1875 -0.1563
14938W        W30407  14.678  12.137   3.584  0.0523 -0.1609  0.0730
14939W        W30408  17.030  11.284  11.325 -0.0018  0.0103  0.0079
14940W        W30409  10.105   4.455  11.872  0.2606  0.1213  0.0540
14941W        W30410  17.810   3.709   2.466  0.0243 -0.2262 -0.1087
14942W        W30411   9.070  15.483  13.255 -0.1570  0.1682  0.0413
14943W        W30412  16.257   8.226  11.886 -0.0554  0.0085 -0.0802
14944W        W30413   8.641   2.978  14.493  0.0238  0.0446 -0.2825
14945W        W30414   5.804  12.946  11.414  0.0622 -0.0249 -0.0786
14946W        W30415  14.332  16.104   0.060 -0.2143 -0.1561 -0.0187
14947W        W30416  16.938  13.539  14.205 -0.1778 -0.4453 -0.2819
14948W        W30417  13.310   9.890  12.811  0.2368 -0.1715  0.0756
14949W        W30418  13.535   9.615   2.374  0.0488 -0.1339  0.2864
14950W        W30419   1.921  17.979   2.847  0.1048 -0.1049 -0.0549
14951W        W30420   0.212  18.534  13.379  0.0245  0.1691  0.0262
14952W        W30421   0.864   4.820  12.833  0.1305 -0.1431 -0.0243
14953W        W30422  16.688  18.351   1.643 -0.2975 -0.2092  0.0678
14954W        W30423   2.645   7.918  12.153 -0.0345 -0.2166 -0.1236
14955W        W30424   0.911  14.834   5.471 -0.0894  0.0976 -0.3527
14956W        W30425   2.187   3.007  13.885 -0.0313  0.0656  0.0974
14957W        W30426   2.793  11.470   3.411 -0.2011 -0.2045  0.1465
14958W        W30427  16.170  11.234  11.473 -0.2828 -0.1063 -0.2633
14959W        W30428   0.057   2.418   1.649  0.1673  0.2131  0.1061
14960W        W30429   9.741  15.040  12.893  0.1561  0.0917 -0.1066
14961W        W30430   2.202  12.889  15.083 -0.0259 -0.0016 -0.1985
14962W        W30431   8.046  14.531  12.517  0.1921  0.3038 -0.3046
14963W        W30432   4.830  11.157  11.969  0.0075 -0.1311  0.2028
14964W        W30433   9.258  10.240   4.237  0.2491  0.0129 -0.0318
14965W        W30434   1.645   5.344   3.578  0.0113 -0.2008 -0.2589
14966W        W30435   1.718   3.571  10.938  0.1787  0.2089  0.0108
14967W        W30436  14.330  15.694   1.993  0.0159 -0.0239 -0.1262
14968W        W30437   5.610   8.178   1.921 -0.3435 -0.1154 -0.1557
14969W        W30438  12.849   7.582  13.372  0.1896  0.1836  0.0972
14970W        W30439   0.441   7.053   3.329  0.1237  0.1815  0.0725
14971W        W30440  15.603  10.317   0.449 -0.0466  0.0939 -0.1021
14972W        W30441  15.926  12.118   1.796 -0.1609  0.0932 -0.0026
14973W        W30442  13.697   0.586  15.626 -0.3803 -0.1949  0.0674
14974W        W30443  14.164   7.912   1.037 -0.1059  0.0580 -0.0702
14975W        W30444   8.266  14.820   3.209  0.0441 -0.0416  0.1106
14976W        W30445   5.090  10.940  14.116 -0.1608  0.3090  0.2834
14977W        W30446   3.740  13.733  14.610  0.0620  0.2589  0.3221
14978W        W30447  18.574  13.097  14.742 -0.2511 -0.1871 -0.1312
14979W        W30448  17.434  16.552   2.442 -0.1890 -0.2586  0.3103
14980W        W30449  14.474  18.573   4.517 -0.0692 -0.1377  0.2564
14981W        W30450  10.722  16.446  13.205 -0.2182 -0.0079 -0.0655
14982W        W30451  13.750   6.179  15.453  0.1887 -0.0784 -0.0594
14983W        W30452   9.505   1.377  14.654  0.0696 -0.0069  0.2619
14984W        W30453  13.403  16.991   2.404  0.1174  0.2928 -0.0396
14985W        W30454  18.272   1.712   0.285 -0.2532 -0.0531  0.0316
14986W        W30455  15.705   3.374  13.264 -0.0094 -0.0992  0.0083
14987W        W30456  11.254  12.561  13.212  0.4293  0.2371 -0.1459
14988W        W30457   8.677   0.670   1.251 -0.0550 -0.1770 -0.0649
14989W        W30458  10.606  13.296  12.258 -0.0205  0.1036 -0.0966
14990W        W30459   9.580  17.356  14.296 -0.0107 -0.2229  0.0002
14991W        W30460   5.824   3.508  10.932  0.0487 -0.0385  0.1628
14992W        W30461  11.657   1.642   5.824 -0.1782 -0.0733  0.0282
14993W        W30462  13.266  15.630  14.802  0.0578  0.0425  0.0768
14994W        W30463   1.523  15.444  12.846 -0.0751 -0.0739 -0.4969
14995W        W30464   8.735   9.737   2.554 -0.2331 -0.2601  0.1722
14996W        W30465   8.715   6.283   2.650 -0.0884 -0.2642 -0.2264
14997W        W30466   9.207  18.309  13.144 -0.1740  0.1989 -0.0023
14998W        W30467   8.761  15.134  15.119  0.0041  0.1938  0.2844
14999W        W30468  15.773   6.837   2.954  0.1523 -0.1109 -0.2387
15000W        W30469   2.735   0.143   1.287 -0.0484  0.2192 -0.0187
15001W        W30470  16.623   9.009  11.331 -0.0779 -0.2321  0.1827
15002W        W30471   3.857   8.492  14.452  0.0195  0.0283  0.1850
15003W        W30472   7.780  15.346  12.521 -0.0966 -0.0991  0.2681
15004W        W30473   6.009   1.176  13.380  0.0785 -0.0329  0.2990
15005W        W30474   0.258  16.336  10.453 -0.4339  0.2717  0.0808
15006W        W30475  14.743  18.326   0.104  0.2366 -0.4034 -0.1180
15007W        W30476   5.821   6.602   4.664 -0.1228  0.4815  0.1465
15008W        W30477  17.375  16.640   4.574 -0.1660 -0.0410  0.0542
15009W        W30478  11.338  10.449   1.213  0.0263  0.1412 -0.1018
15010W        W30479  14.137   7.318  10.191 -0.0420 -0.2262  0.2544
15011W        W30480  12.527  15.049   0.320 -0.0928 -0.2673 -0.2497
15012W        W30481   8.253   5.091  15.172 -0.0301 -0.1972  0.1478
15013W        W30482   0.949   6.235   0.650  0.0581  0.1281 -0.1934
15014W        W30483   9.774   3.954  15.091 -0.0304 -0.2585  0.3806
15015W        W30484   6.631   1.102  12.775  0.0678 -0.1660  0.0187
15016W        W30485  14.038   2.440   4.656 -0.0793  0.0291  0.1318
15017W        W30486  18.518  11.241   4.440  0.1689 -0.0098 -0.0520
15018W        W30487   5.814   3.552  14.776 -0.0329 -0.2816 -0.0552
15019W        W30488   0.451   9.469  15.726  0.1331  0.1270 -0.4317
15020W        W30489  13.760  12.168  14.977  0.1363 -0.1155  0.0018
15021W        W30490  17.461  16.823  14.177  0.2027 -0.0978 -0.1237
15022W        W30491   7.328  11.570   3.854 -0.0783  0.0620 -0.0912
15023W        W30492  10.236   4.410  13.580  0.0258 -0.2625 -0.3123
15024W        W30493   7.771   6.863   0.844  0.0386  0.0358 -0.1907
15025W        W30494  17.610  14.207   4.821 -0.0723  0.0622 -0.2102
15026W        W30495   0.918  13.623  14.154 -0.1415  0.1420 -0.3829
15027W        W30496  18.433   6.385   1.127  0.4148 -0.1407 -0.0447
15028W        W30497   4.777   9.954   4.717 -0.0678 -0.1459 -0.1608
15029W        W30498   5.460  13.575  13.229 -0.0240 -0.0990 -0.0540
15030W        W30499  10.074  11.936  13.450  0.1476  0.1138 -0.2299
15031W        W30500   2.546  14.958   3.035  0.0893 -0.1394  0.2009
15032W        W30501   7.484  14.506   0.742 -0.2001  0.0449  0.0241
15033W        W30502  12.926  17.249  14.250 -0.0515  0.2112 -0.1253
15034W        W30503  12.593   5.009   2.743  0.3019 -0.2936  0.1304
15035W        W30504   2.582   1.524   1.680  0.0540 -0.1287  0.0540
15036W        W30505   7.115  15.430   2.534  0.1254 -0.0236  0.3201
15037W        W30506   8.200   7.310   1.007 -0.0126 -0.0465 -0.1574
15038W        W30507  16.946  18.571  13.920  0.0273  0.1714 -0.4345
15039W        W30508  14.699  13.145   3.764  0.1568  0.2663 -0.0378
15040W        W30509  14.782  14.966   4.182  0.0523  0.3169  0.2618
15041W        W30510   4.941   4.506   4.407  0.1017 -0.0950 -0.0601
15042W        W30511  14.435  14.827  13.591  0.1219 -0.1700 -0.1752
15043W        W30512   8.474  12.811   5.070  0.0294  0.0328  0.1899
15044W        W30513   1.791   4.524   3.273 -0.0333 -0.1320  0.0373
15045W        W30514   4.401   3.122  11.922 -0.0260  0.0997  0.2895
15046W        W30515  11.002  14.956  12.394  0.1576  0.1130 -0.2900
15047W        W30516  15.873  18.555  12.900 -0.0982  0.2372  0.0243
15048W        W30517  10.347  10.677   2.852  0.0384  0.0094 -0.0776
15049W        W30518  13.319   1.087   1.364 -0.0478 -0.0967 -0.1304
15050W        W30519  10.220  14.401   2.661 -0.2510  0.0692 -0.3344
15051W        W30520  18.324   8.818   0.954  0.0152  0.0568 -0.1908
15052W        W30521   5.425  13.001   2.001  0.0537  0.0381  0.2774
15053W        W30522  13.785  12.736   2.601 -0.2677 -0.4622  0.1294
15054W        W30523   1.689   7.744   2.579  0.2889  0.1281 -0.1708
15055W        W30524   2.864   2.678  13.249 -0.0165  0.3483  0.0141
15056W        W30525  16.801  10.222   4.926  0.5054  0.0032 -0.0019
15057W        W30526   4.033   5.565   0.985 -0.0955  0.0226 -0.1424
15058W        W30527   4.412  13.113   0.996 -0.2481  0.0324  0.0432
15059W        W30528   6.841  16.852   4.185  0.1050  0.0319 -0.1171
15060W        W30529   3.151   3.473  10.932 -0.1110 -0.1341  0.3719
15061W        W30530   6.056  18.236   9.930 -0.2250  0.0256  0.0047
15062W        W30531  13.937  15.525  13.922 -0.0069 -0.3088  0.0766
15063W        W30532  10.363   2.483   1.555 -0.1617 -0.1716  0.0984
15064W        W30533  10.015   7.776   0.931 -0.2599  0.0847 -0.1423
15065W        W30534   8.445   8.741  11.114 -0.2400  0.0953  0.0656
15066W        W30535   8.991   4.256  11.332  0.0745  0.0201  0.3138
15067W        W30536  13.739  17.276   0.413  0.2304 -0.1107 -0.1232
15068W        W30537   3.605   9.266  11.649 -0.2494 -0.3467  0.0668
15069W        W30538   3.900  16.754   5.871 -0.1442  0.0213 -0.2673
15070W        W30539   3.128  13.347  13.384  0.3437 -0.1058 -0.2032
15071W        W30540   0.061  14.588  13.579 -0.0257  0.0206 -0.0163
15072W        W30541   7.778   4.885   4.230 -0.1101 -0.2122 -0.0611
15073W        W30542  12.333   8.913  13.878  0.1814  0.1308 -0.5569
15074W        W30543  11.157   4.442  13.784 -0.0166  0.0766 -0.1909
15075W        W30544  10.175   1.944   1.027  0.0336  0.0458  0.2177
15076W        W30545  14.894  17.324   2.577 -0.1431 -0.1548  0.3162
15077W        W30546   3.999  10.618  14.962  0.0421 -0.1396 -0.4225
15078W        W30547   7.065   2.536  12.662  0.0703 -0.1159  0.0656
15079W        W30548  15.321   5.168  14.144 -0.1941 -0.2602  0.1753
15080W        W30549   8.132  17.598  12.182  0.0450  0.0027  0.0970
15081W        W30550   7.992  15.969  14.964  0.2837 -0.1815  0.0594
15082W        W30551   7.148   0.981  15.245 -0.1431 -0.1124 -0.4314
15083W        W30552  10.569   4.360   4.903  0.2777 -0.1104 -0.3873
15084W        W30553   3.386  10.829   2.260  0.1506  0.1480 -0.2069
15085W        W30554  11.759   2.105  15.215  0.2430 -0.3649  0.0602
15086W        W30555   4.257  17.879  13.006 -0.0591 -0.1325 -0.0371
15087W        W30556   7.815   8.527  12.215  0.1902  0.0137 -0.0392
15088W        W30557   6.389   8.498   3.918 -0.0861 -0.1833  0.0057
15089W        W30558   0.910   7.295   0.765  0.3181 -0.2203  0.0103
15090W        W30559  12.564  13.705   9.587 -0.2535 -0.0025 -0.1592
15091W        W30560   8.141  17.584  12.726 -0.2327 -0.0963 -0.0152
15092W        W30561  17.590  11.499   5.120  0.0853  0.0553 -0.2345
15093W        W30562  13.112  11.560  15.015 -0.0171 -0.1827  0.0401
15094W        W30563   4.737   7.691  13.142  0.0038 -0.2545  0.0187
15095W        W30564   7.670   6.437   5.117  0.1769 -0.1168  0.0025
15096W        W30565   3.896   7.026   2.497  0.1490  0.4918 -0.2408
15097W        W30566   4.845   7.192   1.500  0.3294  0.0637 -0.1005
15098W        W30567   1.474   2.834   0.122  0.2266 -0.0739  0.1944
15099W        W30568   9.750  14.939   1.121  0.1792 -0.0311  0.0650
15100W        W30569  17.568  14.607  10.530 -0.4295 -0.0085  0.2180
15101W        W30570   0.552  18.155  15.006 -0.1431 -0.0919 -0.0721
15102W        W30571  18.285  16.192  13.606  0.0476 -0.1463  0.1738
15103W        W30572   8.245   8.244  12.015  0.0321 -0.1413  0.0197
15104W        W30573  10.036   7.803  14.748  0.0548 -0.0781  0.2656
15105W        W30574   9.717   1.167  13.529 -0.0925  0.2221  0.0112
15106W        W30575   6.262  14.018   3.687 -0.3407 -0.0585 -0.1338
15107W        W30576   3.668  18.612   5.325 -0.1321 -0.0893  0.0459
15108W        W30577  12.117   3.737   4.334  0.2014 -0.0274 -0.0964
15109W        W30578  15.751  11.306  11.150 -0.0632  0.3899 -0.0384
15110W        W30579   1.163   1.504  10.515 -0.1490  0.0806  0.0885
15111W        W30580  17.199   0.420  14.503  0.0252  0.2441 -0.3051
15112W        W30581   8.425   3.291   2.902  0.1911  0.1218 -0.2571
15113W        W30582  16.609  14.289   1.370  0.2867 -0.0942 -0.0674
15114W        W30583   7.461  17.264  15.576  0.2957  0.3385 -0.1603
15115W        W30584  18.355  15.003  14.283 -0.3223  0.0155 -0.1619
15116W        W30585   9.944  17.279  12.548  0.0987  0.3059  0.0282
15117W        W30586   3.010   9.996   3.395  0.0784  0.0700  0.3022
15118W        W30587  12.032  13.909  15.162  0.0243 -0.2263 -0.1071
15119W        W30588  10.631  15.682  12.349  0.5116 -0.3679 -0.3085
15120W        W30589  18.428  18.574  10.838  0.1513  0.0280  0.1960
15121W        W30590   2.923   2.705   0.402 -0.0324  0.0897 -0.0523
15122W        W30591   4.095  13.633   4.340  0.2951  0.0059 -0.1194
15123W        W30592  13.439   2.071  11.805  0.1592 -0.1626  0.2184
15124W        W30593  17.303  14.813  10.908  0.0952  0.1130  0.1538
15125W        W30594   6.627   0.400   3.787 -0.0620  0.2338  0.1159
15126W        W30595  15.242  14.569   0.826 -0.1722 -0.0436 -0.2438
15127W        W30596   4.664   7.198  11.287  0.0298 -0.3005  0.2155
15128W        W30597  13.357   2.037   0.681  0.3328 -0.5815  0.1292
15129W        W30598   3.037  13.892  14.177  0.2125  0.0743  0.1737
15130W        W30599  12.157  12.844  11.302  0.0800 -0.1955 -0.0827
15131W        W30600  15.532   4.693   4.783  0.2711 -0.0046 -0.2506
15132W        W30601   4.470   9.499   1.797  0.0987 -0.2332 -0.1830
15133W        W30602  13.520  17.401   1.244  0.0511  0.0897 -0.0303
15134W        W30603   5.649  17.121  15.102 -0.0978  0.0541 -0.2045
15135W        W30604  14.775   2.594  11.348 -0.4268 -0.2246  0.2055
15136W        W30605  13.113   7.383   4.759 -0.2376  0.1692  0.2360
15137W        W30606  12.992  11.616   2.327  0.4414 -0.0788  0.0370
15138W        W30607   6.506   7.788  11.357  0.1017 -0.0542  0.1423
15139W        W30608  15.249  16.373  15.578 -0.2266 -0.1952  0.2282
15140W        W30609   0.334  18.313  15.726 -0.1675  0.1793  0.1032
15141W        W30610   7.747  13.250  14.762  0.3239 -0.0938  0.1909
15142W        W30611   8.208  11.225   0.967 -0.0362  0.0891  0.1758
15143W        W30612   9.889   3.611   2.138  0.2778 -0.0500  0.0834
15144W        W30613  15.383   2.673   2.723  0.4760 -0.0274 -0.0687
15145W        W30614   7.867  16.029  11.812 -0.0923 -0.0040  0.1805
15146W        W30615  11.565  17.593   0.234  0.2530  0.0047  0.0247
15147W        W30616   3.362  16.147   2.326 -0.1612 -0.0255  0.0913
15148W        W30617   3.088  11.687  11.330 -0.0224 -0.2679 -0.2475
15149W        W30618  15.328  13.134  13.847  0.3283  0.1498 -0.3259
15150W        W30619  10.329  16.228   3.679  0.1763  0.0432  0.0504
15151W        W30620  16.997  14.999   0.394  0.0323  0.0623 -0.0410
15152W        W30621  15.625  15.057   1.657  0.2710  0.1854  0.1818
15153W        W30622   5.991  16.137   2.852  0.2870 -0.3325  0.1958
15154W        W30623  10.341  10.746  14.169 -0.1462 -0.1733 -0.5182
15155W        W30624   9.256  15.574   4.742 -0.0278  0.0364 -0.2226
15156W        W30625  14.452   9.567  12.420  0.1175  0.0071 -0.0702
15157W        W30626   6.255  18.494  14.287  0.1004  0.1388 -0.1019
15158W        W30627  14.371  11.346   2.530 -0.1982  0.0984  0.1069
15159W        W30628  10.831   5.085  11.009 -0.0130  0.2739  0.0310
15160W        W30629  16.319  14.306  13.802 -0.0683  0.0975 -0.0341
15161W        W30630   6.751   9.889  11.013 -0.1684  0.1166 -0.2852
15162W        W30631   1.320   0.989   3.785  0.2217 -0.1127 -0.0396
15163W        W30632  18.223   1.961  11.268  0.0680  0.0798 -0.0585
15164W        W30633  14.129   7.952  11.394 -0.0539 -0.0746  0.0380
15165W        W30634  12.217   6.264  14.686 -0.0578  0.3753  0.1265
15166W        W30635   5.586  13.019   4.298 -0.0627  0.0608 -0.0362
15167W        W30636   4.194  10.425  11.729  0.2793  0.0379  0.1677
15168W        W30637   7.207   7.860  12.859 -0.1298 -0.0670  0.0477
15169W        W30638  10.856   9.951  15.398 -0.0949 -0.2081 -0.1776
15170W        W30639  13.236   6.024   4.022  0.1957  0.0524  0.0453
15171W        W30640  14.009   6.270  12.812 -0.3329 -0.0366 -0.1177
15172W        W30641   2.724   8.916   2.731  0.1890  0.1866  0.0177
15173W        W30642  13.576   1.961  13.039 -0.2303  0.0793  0.1704
15174W        W30643   4.312   0.317  12.946  0.0211  0.1798 -0.4112
15175W        W30644  16.123  16.245  15.643  0.0651 -0.2175 -0.2588
15176W        W30645   7.590   1.650   2.114  0.1689 -0.1829 -0.0728
15177W        W30646   8.328  11.675   6.111 -0.2471  0.2706 -0.2660
15178W        W30647  14.163  15.742   4.318 -0.1427  0.0036 -0.0872
15179W        W30648  18.147  16.415   3.057 -0.1703 -0.1340 -0.0009
15180W        W30649   7.729   1.865   1.437 -0.2098  0.1634 -0.1138
15181W        W30650  16.745  11.448  12.111  0.2685  0.0902 -0.1742
15182W        W30651   3.130   6.406  15.252  0.2859 -0.0771 -0.1667
15183W        W30652   8.000  16.650   3.779 -0.1546 -0.4781 -0.0735
15184W        W30653   8.510   7.542   4.602  0.2403 -0.0765 -0.0617
15185W        W30654   1.036  15.996  11.365  0.1507  0.0972  0.1574
15186W        W30655  14.433  11.274   4.948  0.3057 -0.1606  0.1841
15187W        W30656   2.972  17.273  14.366  0.0507  0.1550 -0.2063
15188W        W30657  17.129   5.486   1.686 -0.0700  0.0120 -0.0533
15189W        W30658  14.724   2.965   6.097  0.0518  0.0557 -0.1441
15190W        W30659   4.119  15.524   1.207 -0.2400 -0.0969  0.0355
15191W        W30660  17.808   1.140   5.498  0.2157 -0.0664  0.2729
15192W        W30661   9.175   2.841   1.769  0.3631 -0.4453 -0.2007
15193W        W30662  12.218   2.703  13.684  0.2260  0.3923  0.2412
15194W        W30663  15.302   5.709   0.724 -0.0802 -0.0299 -0.1637
15195W        W30664   9.377  11.888  15.557  0.0866 -0.0341 -0.0330
15196W        W30665  13.048  13.899  14.684  0.1862  0.0562 -0.0709
15197W        W30666   6.811   3.897  12.498  0.0776  0.2661 -0.0364
15198W        W30667  18.451   1.346  10.554  0.0980 -0.0493  0.0925
15199W        W30668   0.477   5.334  10.547  0.0885 -0.4204  0.2355
15200W        W30669   1.937   4.896  14.208 -0.0001  0.3741  0.0500
15201W        W30670   2.050  13.875  12.578 -0.0580  0.0939  0.1017
15202W        W30671  12.307  13.242   2.741  0.1005  0.2504  0.0522
15203W        W30672   5.215  17.690  11.268 -0.0037  0.0893  0.3346
15204W        W30673   0.145   6.978  15.127 -0.1062 -0.5075  0.1741
15205W        W30674  13.032  10.683  10.977 -0.0634 -0.1978  0.0813
15206W        W30675   3.735   1.692   1.841  0.1075 -0.1716 -0.3724
15207W        W30676   8.510   3.645  11.023 -0.0572 -0.1888  0.0473
15208W        W30677   3.564   7.648  11.021  0.0123  0.2499  0.3397
15209W        W30678   1.663   6.936  12.387  0.1550  0.0840 -0.0981
15210W        W30679   4.308  12.601  11.145 -0.0764  0.0770 -0.0848
15211W        W30680  17.686  16.277  14.504  0.2004  0.0239 -0.0333
15212W        W30681  13.707   5.780  13.049  0.1097 -0.4230 -0.1257
15213W        W30682  11.211   7.488   3.398  0.3050 -0.1705  0.1295
15214W        W30683   4.022  17.700  15.110  0.1481 -0.3101 -0.3395
15215W        W30684   4.950  14.288   5.711  0.3602  0.1898 -0.1635
15216W        W30685  10.742   7.400   1.734  0.3475  0.1105 -0.2293
15217W        W30686  17.454  18.119   2.576 -0.1956  0.1293 -0.3717
15218W        W30687  13.135  18.144   4.214  0.1967  0.1764 -0.2246
15219W        W30688   6.947   5.887  14.908 -0.2954 -0.0139  0.1256
15220W        W30689   1.918  13.511   1.849  0.1325 -0.0850 -0.0684
15221W        W30690  15.289   9.980  11.343  0.0503 -0.1080  0.5447
15222W        W30691   6.298  12.061  14.964  0.0013  0.2166 -0.2371
15223W        W30692   5.783  13.905  14.072  0.1409  0.2269 -0.1108
15224W        W30693  15.384   8.142   1.532  0.3896 -0.1058  0.0533
15225W        W30694  15.575   1.507  13.958  0.2083 -0.0526 -0.1376
15226W        W30695   8.088   5.377  12.447 -0.1973 -0.1361  0.2320
15227W        W30696  10.520   9.241  15.659 -0.0894  0.2141 -0.2945
15228W        W30697   7.096   8.998   4.752  0.0308 -0.0284 -0.0422
15229W        W30698  11.271  18.166  13.973 -0.0568  0.1320 -0.1763
15230W        W30699   0.371  16.300   4.496 -0.0152  0.1515  0.2276
15231W        W30700  18.471  10.395  13.397  0.2653 -0.3630  0.3722
15232W        W30701  16.445   4.374  15.668  0.3498  0.2905  0.0748
15233W        W30702  13.465   3.939  14.299 -0.0442  0.3216 -0.2001
15234W        W30703   4.320  10.116  12.214  0.0579  0.0476  0.0085
15235W        W30704  18.478  14.400   4.707 -0.0371  0.1038  0.0608
15236W        W30705   0.266   5.292  14.128  0.2462 -0.0925 -0.3267
15237W        W30706  11.232  17.554   1.808 -0.0282  0.0928  0.0416
15238W        W30707   4.121  11.384   0.660  0.1210  0.1739  0.1918
15239W        W30708   3.118  10.020  15.711 -0.0491  0.3785  0.4643
15240W        W30709  14.420   7.710  10.110 -0.1862 -0.3480  0.3658
15241W        W30710  17.710  10.558   4.877  0.0346 -0.0526  0.1015
15242W        W30711   9.670  17.945   4.007  0.2454 -0.2679 -0.3220
15243W        W30712  15.286  16.950   1.240 -0.2115 -0.0413 -0.1418
15244W        W30713   1.184   1.470   3.908  0.1418  0.1425  0.1499
15245W        W30714   4.443  15.909   2.112  0.3573  0.0697  0.0870
15246W        W30715   8.533   4.350   4.398  0.2022  0.2216 -0.2045
15247W        W30716  13.696  17.113   5.329 -0.0540 -0.0222 -0.1775
15248W        W30717  16.528   9.425  10.937  0.0812 -0.2378 -0.1215
15249W        W30718  15.253  12.825  14.284  0.1092  0.4448 -0.0922
15250W        W30719  10.140   4.910  12.096 -0.0640  0.2817  0.0690
15251W        W30720   2.150   5.859  12.891  0.0955  0.2008 -0.0713
15252W        W30721  12.498  10.446   5.186 -0.2923  0.3633  0.0641
15253W        W30722   7.256   0.244   4.897  0.0439  0.1585  0.0299
15254W        W30723  10.947   0.664  14.169  0.0788 -0.2296  0.0299
15255W        W30724   2.660  14.622  14.824 -0.2276 -0.1664 -0.1094
15256W        W30725  15.970   0.968   2.589 -0.3721 -0.0078  0.1605
15257W        W30726   4.611  18.341   3.997  0.2053  0.0199  0.2374
15258W        W30727   4.921  17.666   2.668  0.1668 -0.0438  0.2670
15259W        W30728  15.083   2.511   2.123 -0.1033  0.2078  0.0402
15260W        W30729  16.815   7.697   5.006  0.1438 -0.2063 -0.1985
15261W        W30730   9.273   2.140   2.840 -0.0982  0.1396 -0.0375
15262W        W30731   7.147   3.129   2.577  0.0334  0.2859  0.0076
15263W        W30732  13.395   8.707  13.594  0.1680  0.0175 -0.0125
15264W        W30733  15.127   8.688  13.470 -0.1166 -0.0717 -0.1543
15265W        W30734  12.032   4.871  11.418  0.2765  0.0943 -0.0138
15266W        W30735   6.026   3.489   9.954 -0.1444  0.2236 -0.1479
15267W        W30736  10.808   3.443  12.165  0.3617 -0.0709 -0.0052
15268W        W30737   9.043   6.615   0.274  0.0706 -0.3814  0.4053
15269W        W30738  12.853  16.409   0.532 -0.0138  0.0685  0.0206
15270W        W30739  13.416   5.142   3.150 -0.0690  0.0659 -0.0141
15271W        W30740  10.910   7.223  15.329 -0.1170  0.1024 -0.1246
15272W        W30741   1.845  10.109  11.259 -0.2276 -0.2499 -0.0693
15273W        W30742  18.427  10.498  15.698  0.2204  0.3415  0.1041
15274W        W30743  14.543   2.161   2.554 -0.0564  0.0594  0.1640
15275W        W30744   8.173  12.709   4.089 -0.1864 -0.0889 -0.0033
15276W        W30745  16.952  10.066  15.264 -0.2167  0.2963  0.0491
15277W        W30746  16.941  12.938   2.944  0.1731 -0.1284 -0.0099
15278W        W30747  15.831   3.611   3.716  0.1595  0.2453  0.2644
15279W        W30748   2.716   8.213   3.384  0.2143  0.1554 -0.3299
15280W        W30749   8.789  16.931  10.910  0.1649  0.1413 -0.0504
15281W        W30750  12.161   4.353   4.331  0.1268 -0.0904  0.0351
15282W        W30751  12.157   0.006   1.203  0.1013 -0.1901  0.1001
15283W        W30752  17.608  11.915   1.042 -0.0271  0.5946  0.1017
15284W        W30753  12.860  18.379   3.554  0.0234 -0.3227  0.0838
15285W        W30754   4.203   4.988  15.771  0.2786 -0.2136 -0.2547
15286W        W30755  14.431  16.230  11.586 -0.0382  0.3193  0.2665
15287W        W30756   2.697   3.720  10.420 -0.2814  0.1199  0.1779
15288W        W30757   2.099   3.393  15.710 -0.0962 -0.0104 -0.1277
15289W        W30758  12.717   1.149   0.526 -0.1423 -0.0948  0.1633
15290W        W30759   6.417   5.627   1.613  0.1595  0.0079  0.0753
15291W        W30760   4.894   5.422   1.501 -0.1546 -0.1303  0.1916
15292W        W30761  12.068   7.055  14.332 -0.0901  0.0726  0.0254
15293W        W30762   7.998   8.255  13.304 -0.1039 -0.0282 -0.0106
15294W        W30763  18.114  12.835   3.693 -0.1165 -0.2256 -0.1832
15295W        W30764   4.254  18.388   1.379 -0.0684  0.0162  0.2508
15296W        W30765   7.783  12.803   0.328 -0.0596  0.0429  0.1719
15297W        W30766   2.436  10.902  14.363  0.1315 -0.1067 -0.1745
15298W        W30767  16.391   8.410   2.460 -0.0479  0.1838  0.3213
15299W        W30768   4.747  17.197  15.090 -0.0548  0.0419 -0.2617
15300W        W30769   1.996  13.823   2.300  0.0090 -0.0248 -0.1178
15301W        W30770  17.529  14.114  15.200 -0.1693  0.0648  0.2037
15302W        W30771  12.359  17.825  12.801  0.0444  0.0604  0.1620
15303W        W30772  15.371  10.279   3.574  0.1737 -0.1535  0.0663
15304W        W30773  17.428  14.923  14.172  0.1265 -0.2253 -0.2302
15305W        W30774  12.372  17.360   3.040 -0.2138 -0.0305 -0.3475
15306W        W30775  17.894  10.431  12.544 -0.1316  0.0301 -0.0989
15307W        W30776  11.209   8.410  12.561 -0.0747  0.1416  0.0649
15308W        W30777   9.640   5.134   1.320 -0.0508  0.0555 -0.2404
15309W        W30778  10.256  13.078   4.578  0.0863 -0.0353 -0.1620
15310W        W30779   0.743  12.321   5.261  0.0160 -0.1659  0.1927
15311W        W30780   3.070   4.391   2.235  0.0892  0.0532  0.4395
15312W        W30781  17.581  10.581  13.753 -0.0453  0.0802  0.0608
15313W        W30782  13.459   8.065   5.192  0.1384  0.4244  0.2455
15314W        W30783  12.979  15.113  11.772  0.1647 -0.1299 -0.2531
15315W        W30784  14.064   4.762   5.697  0.1449  0.0322  0.1868
15316W        W30785  14.426  15.064   3.767 -0.1868 -0.2832 -0.0793
15317W        W30786   9.050  13.187  12.747 -0.1927 -0.0467 -0.2683
15318W        W30787  15.886  10.504  11.800 -0.1685 -0.2504 -0.1527
15319W        W30788   6.374  15.026   4.727  0.0724 -0.1723 -0.1904
15320W        W30789  17.870  15.095   4.965 -0.1312  0.0994 -0.2062
15321W        W30790   3.942   6.991   3.339  0.0852  0.2624  0.2451
15322W        W30791  14.613   5.839  13.195 -0.2278 -0.1136  0.1650
15323W        W30792  12.270  17.965  15.506 -0.0387 -0.1389 -0.0403
15324W        W30793  11.766  16.304   0.517  0.1230  0.1634  0.1222
15325W        W30794   7.623   5.968   5.852  0.0447 -0.0288 -0.2745
15326W        W30795  12.087  16.832   2.048  0.1328  0.0225 -0.1984
15327W        W30796  12.100  11.174   0.119  0.1792  0.1903  0.0987
15328W        W30797   2.470  15.583  13.247  0.2827  0.0372 -0.1541
15329W        W30798   0.819  10.147  10.896 -0.2583  0.0349  0.2348
15330W        W30799   0.163  18.350   1.060 -0.0854 -0.1916 -0.2161
15331W        W30800   0.105   2.478   5.361 -0.2690  0.1528  0.0375
15332W        W30801   8.050  17.950   4.289  0.0823  0.0439 -0.1646
15333W        W30802   2.368  10.402  13.432 -0.0547 -0.2621 -0.1833
15334W        W30803   4.368   6.946   1.058  0.1962 -0.4725 -0.0248
15335W        W30804  14.275   2.454   1.365 -0.3126  0.0629  0.0021
15336W        W30805   7.407   7.016  11.528 -0.0448  0.2678 -0.0415
15337W        W30806  11.342  16.617  10.427  0.1377 -0.1365 -0.1279
15338W        W30807   8.749   8.283   0.825 -0.0552 -0.0797  0.0262
15339W        W30808  10.844   2.958  13.074 -0.2177 -0.1122  0.0049
15340W        W30809  14.944   5.068  13.811 -0.3402 -0.1687  0.0217
15341W        W30810   4.546   8.728   4.580 -0.0682 -0.0929  0.0163
15342W        W30811   4.878  12.439   1.497 -0.1834  0.2127  0.2204
15343W        W30812   9.665   1.662  12.184  0.0488  0.1506  0.1090
15344W        W30813  17.506  14.821   2.958  0.1592 -0.1191 -0.1002
15345W        W30814  12.551  10.722  13.712  0.2088  0.0304  0.1728
15346W        W30815   1.415   4.260   2.567  0.1594 -0.0304 -0.1815
15347W        W30816   3.068   3.945  10.758  0.2286  0.0555  0.0434
15348W        W30817   2.233  18.100   1.886  0.0442 -0.4220  0.1916
15349W        W30818   2.914   0.887  10.911  0.1715  0.1162  0.1734
15350W        W30819   8.446  13.897  14.544  0.1435 -0.0165  0.1204
15351W        W30820  11.909  12.193  14.308  0.1624 -0.1046  0.0193
15352W        W30821   4.205   7.903  13.713 -0.1647  0.0379 -0.0306
15353W        W30822  15.028   6.977   2.061 -0.0299  0.0496 -0.0686
15354W        W30823   8.621   6.952   2.022 -0.1572  0.0565 -0.1802
15355W        W30824  11.178   3.137  11.672 -0.0097 -0.2721 -0.0847
15356W        W30825  11.509  10.758  13.570  0.2081 -0.1768  0.0473
15357W        W30826  14.186   5.521   3.243 -0.0827  0.1672 -0.0184
15358W        W30827  10.269  16.012  12.390  0.1346 -0.1054  0.1516
15359W        W30828  12.712   6.000   3.277  0.0524  0.0627  0.3412
15360W        W30829   9.797  10.585   4.975 -0.0829  0.0400  0.0948
15361W        W30830   2.854   0.923   4.155 -0.0651 -0.0955  0.2908
15362W        W30831   1.943  16.304   1.048  0.0129 -0.0627  0.0711
15363W        W30832  12.398   6.868  11.042  0.0145  0.0484  0.0164
15364W        W30833   8.983   2.241  14.862 -0.0706  0.0355 -0.1093
15365W        W30834   6.412   8.415   0.389  0.0209  0.1296 -0.1736
15366W        W30835  16.083  12.617   5.350  0.1938 -0.0221  0.2681
15367W        W30836   6.706  12.209  10.816 -0.3969  0.0697 -0.0992
15368W        W30837   3.293   5.067  11.810  0.0365  0.0383  0.1059
15369W        W30838   1.354  10.806  14.130  0.0590 -0.1097 -0.0622
15370W        W30839  16.663  17.204  13.094 -0.3541 -0.1083  0.1965
15371W        W30840  15.417   3.854   2.364 -0.2731 -0.1580  0.2270
15372W        W30841   1.699   0.388   3.904  0.2010 -0.1655  0.0491
15373W        W30842   0.523  14.731  13.040 -0.2116  0.1827 -0.0445
15374W        W30843  12.826  11.902  15.246 -0.3574 -0.1425  0.3935
15375W        W30844  14.008  17.014   1.611 -0.0479 -0.1461 -0.3608
15376W        W30845   8.739   6.102   2.155 -0.0015 -0.1126  0.1838
15377W        W30846   5.344  17.096  13.813 -0.1232  0.0759  0.0660
15378W        W30847  13.699   2.988   1.171 -0.3184  0.0553 -0.1856
15379W        W30848   8.107   0.866   1.204 -0.0787  0.2153  0.1648
15380W        W30849   2.779  15.550   5.938  0.0397  0.0941 -0.1368
15381W        W30850  13.621  15.162   3.196  0.3775  0.0450  0.0855
15382W        W30851  17.628   3.051  10.670  0.1686  0.1807 -0.0017
15383W        W30852  11.109  16.166   1.488  0.2890  0.0372  0.1691
15384W        W30853   8.672   5.140  10.817  0.0319 -0.1850  0.0180
15385W        W30854  18.080  14.926  11.688  0.0456 -0.2095  0.2136
15386W        W30855  10.048   7.043  15.165 -0.1109 -0.0824 -0.1101
15387W        W30856   7.239   6.637   5.328 -0.2223 -0.0464 -0.0782
15388W        W30857  12.436   5.306  11.629  0.1834  0.3835  0.1628
15389W        W30858  16.989  14.124   0.162  0.1310 -0.0962 -0.2463
15390W        W30859   5.569  18.424  11.979 -0.0757 -0.0338 -0.2786
15391W        W30860  16.227  18.147   3.466  0.0688  0.2799 -0.2218
15392W        W30861  12.812  11.927   0.357 -0.0426 -0.0909 -0.0451
15393W        W30862  17.064   9.889  11.603  0.1148 -0.2832  0.2373
15394W        W30863   3.524  13.472  10.389  0.1620 -0.2052  0.3646
15395W        W30864  15.750   2.458   3.589  0.0432 -0.1726 -0.2030
15396W        W30865   0.531  16.146  15.441  0.2227 -0.0600 -0.0792
15397W        W30866  14.472  15.252   3.316  0.1619 -0.0467 -0.0029
15398W        W30867   2.549   1.820   0.622 -0.1432 -0.0906  0.3415
15399W        W30868  11.127  12.154   2.072  0.1621 -0.1836  0.1969
15400W        W30869  15.917  12.797  15.482 -0.0583 -0.1074  0.2209
15401W        W30870  11.767   1.339   3.734 -0.0209 -0.0188 -0.1974
15402W        W30871   5.239   9.743  15.280  0.0750 -0.3504 -0.1158
15403W        W30872  15.420   5.075   3.193 -0.0941 -0.0491  0.2803
15404W        W30873   9.030   2.578  14.456  0.3609  0.0297  0.0787
15405W        W30874  17.479   9.198  10.902  0.0509 -0.1040  0.3215
15406W        W30875   7.078  16.520  13.197 -0.1341  0.2425 -0.1601
15407W        W30876  14.927   4.865  10.477 -0.5526  0.0144  0.0446
15408W        W30877  18.413   4.835  13.453 -0.0273 -0.0419 -0.2522
15409W        W30878  14.308  10.751   1.471  0.0955 -0.0323 -0.1020
15410W        W30879  13.957   6.222  11.124  0.4081  0.2112 -0.0399
15411W        W30880  10.360   0.233  14.836  0.1492 -0.3255 -0.0872
15412W        W30881   6.085   7.444  12.520  0.2437  0.3350  0.1330
15413W        W30882  15.970   2.354   2.647 -0.2092  0.3375 -0.3042
15414W        W30883  14.474   2.967   4.179 -0.1297 -0.1795 -0.3122
15415W        W30884  12.533   0.928   2.001  0.0663  0.0312  0.0576
15416W        W30885   6.506  12.916   1.990  0.3112  0.0685 -0.1160
15417W        W30886  12.524  13.604   0.985  0.1364 -0.2606 -0.2492
15418W        W30887   5.622   3.640  13.362 -0.0227 -0.2940  0.2085
15419W        W30888   7.347  15.849   1.500  0.1160  0.2565 -0.2148
15420W        W30889   7.810  10.488   0.568  0.1875 -0.3188  0.0953
15421W        W30890  13.098   9.329   5.289 -0.1678  0.1932  0.1207
15422W        W30891  15.740  18.456   0.042  0.1240  0.1085  0.0795
15423W        W30892  13.239  11.774   1.866  0.2451  0.3510  0.0464
15424W        W30893  17.001   9.126   1.381 -0.0297 -0.1908 -0.2932
15425W        W30894  12.866  14.627   1.311  0.2155 -0.1172  0.1888
15426W        W30895   4.618  10.700   4.437 -0.0698  0.0910  0.1843
15427W        W30896   2.882   0.888   2.558  0.2512  0.0697  0.0962
15428W        W30897   9.100   8.301   4.008  0.0251  0.0384  0.1166
15429W        W30898   1.161   8.086  13.378  0.0260  0.3269  0.0796
15430W        W30899   9.440   1.687  11.331 -0.2289  0.2380 -0.3904
15431W        W30900  15.583  14.772  11.666  0.1485  0.1680  0.0618
15432W        W30901  15.411   9.444  11.429  0.0173  0.3790  0.0382
15433W        W30902  12.660   7.462   1.980 -0.1034 -0.1808  0.3311
15434W        W30903   9.169  16.446  13.187 -0.0752 -0.0412 -0.0357
15435W        W30904   6.749   8.875   4.280  0.1551  0.2726 -0.0527
15436W        W30905   4.456  12.513   4.873  0.0156 -0.0777 -0.0595
15437W        W30906   3.743   4.919   3.365  0.1113 -0.1325  0.1032
15438W        W30907   2.201  11.788  12.316  0.3419  0.1656  0.1052
15439W        W30908  17.146  12.303  13.347  0.1493 -0.1136 -0.0560
15440W        W30909   2.790   9.292  14.710  0.2266 -0.3347  0.1502
15441W        W30910  12.001   2.062  11.138 -0.0728 -0.0239 -0.2072
15442W        W30911  17.558  11.927  13.725  0.1416 -0.1267 -0.1235
15443W        W30912  14.125  18.250   0.489 -0.1567  0.0470  0.0741
15444W        W30913   1.643   2.477  13.575  0.4228  0.1517 -0.1924
15445W        W30914   4.103  14.527   0.866 -0.4005 -0.1292 -0.2208
15446W        W30915   9.794  18.596   1.113 -0.1589  0.6187  0.2800
15447W        W30916   3.701   6.591   1.609 -0.1675 -0.0883 -0.1092
15448W        W30917  16.114   8.521   4.866 -0.2300  0.0305 -0.3078
15449W        W30918   8.287   0.068   0.392 -0.0089 -0.2028 -0.3422
15450W        W30919  14.560   1.655   4.509 -0.0961 -0.2445 -0.0564
15451W        W30920   5.474  10.255   4.348 -0.3379 -0.0007 -0.1268
15452W        W30921  14.565  11.779   5.172 -0.0990 -0.1451  0.0658
15453W        W30922  11.775   2.795   3.452 -0.0780  0.0684  0.0693
15454W        W30923  14.203   4.966  12.718 -0.2037  0.3858 -0.0449
15455W        W30924  13.845  18.080   4.984  0.1312  0.3301  0.0506
15456W        W30925  10.567   2.210   1.263 -0.0531  0.1062  0.1514
15457W        W30926  12.276   7.778   6.330  0.2328  0.1452  0.2393
15458W        W30927  10.700   2.424   1.927 -0.1989  0.1441 -0.2150
15459W        W30928  17.205  11.604   1.156 -0.0255 -0.0198 -0.1864
15460W        W30929   9.088  11.346  14.162  0.1307 -0.1613 -0.1495
15461W        W30930  11.884  15.621   1.682  0.4173  0.4416  0.1073
15462W        W30931  11.849  13.609  12.409  0.0622 -0.1456 -0.0048
15463W        W30932  18.249  15.469  10.981 -0.0164 -0.2047  0.5232
15464W        W30933  14.642   5.750   0.759 -0.2664  0.2056  0.0045
15465W        W30934   9.194   2.982   2.730  0.0798  0.0573  0.1712
15466W        W30935  17.024  17.891  15.565 -0.1004 -0.2885 -0.0707
15467W        W30936   9.067   8.881   1.442 -0.1705 -0.0204  0.0946
15468W        W30937   7.341  10.863  13.899 -0.1834  0.0434 -0.2786
15469W        W30938   4.537   3.120  14.264 -0.1379  0.1531 -0.2284
15470W        W30939   0.833   9.077   1.461 -0.0861 -0.0669  0.1221
15471W        W30940   9.561   2.054   1.948  0.1075  0.1934 -0.2768
15472W        W30941   0.320  14.479   0.869  0.1553  0.1582 -0.0847
15473W        W30942   6.988   7.564   4.743  0.3477  0.2474 -0.1016
15474W        W30943   1.236  11.372  14.640 -0.0270 -0.2245 -0.0628
15475W        W30944  17.192  11.103   5.274  0.0488  0.5096  0.3876
15476W        W30945  13.999  12.985   3.075  0.2646 -0.3387  0.0082
15477W        W30946   1.779   4.799  12.718 -0.1022 -0.1407 -0.1275
15478W        W30947   4.657  11.806  13.413  0.2313  0.1543 -0.0526
15479W        W30948   1.551   8.952  13.983  0.3401 -0.2778 -0.3198
15480W        W30949  15.762   9.065   0.426  0.2661 -0.0796 -0.1095
15481W        W30950  10.359   8.812   5.424 -0.2176 -0.2085  0.2189
15482W        W30951  17.742  12.989  11.025 -0.0849  0.0162 -0.1262
15483W        W30952  10.434  11.398   3.286  0.3278  0.0769  0.1627
15484W        W30953  10.429   0.538  10.659 -0.0387  0.0354  0.0724
15485W        W30954   5.007  12.863   2.277 -0.0235 -0.1767 -0.1736
15486W        W30955  18.276  18.473  12.655 -0.2546  0.1025 -0.1127
15487W        W30956   0.154  14.923  12.561 -0.1744  0.1566  0.1392
15488W        W30957  18.231   7.545  15.715 -0.3556  0.0651 -0.1218
15489W        W30958  15.796   6.792  12.229 -0.1135  0.2091  0.0368
15490W        W30959   8.794  13.058  12.086  0.0729  0.1406  0.3168
15491W        W30960   8.274  13.087   3.764  0.1967 -0.1575  0.1698
15492W        W30961   2.087  16.695  13.424  0.0312 -0.2983 -0.1801
15493W        W30962   2.609   3.009   3.231  0.3014  0.1260 -0.1266
15494W        W30963   5.828  11.739   3.486 -0.0123  0.0382 -0.1852
15495W        W30964  16.740  12.403  13.052  0.4263 -0.2809  0.2034
15496W        W30965   0.185   3.121  12.332  0.1566  0.0466 -0.1391
15497W        W30966  16.857  18.400   2.836  0.0333  0.0130  0.0690
15498W        W30967   8.301  13.204   3.269  0.1854 -0.1552  0.0262
15499W        W30968  12.872  12.791   1.002 -0.0422  0.0126 -0.1621
15500W        W30969   1.836   9.900   1.723  0.0158 -0.0577  0.0644
15501W        W30970   4.133   6.177   5.842 -0.0732 -0.0673 -0.1976
15502W        W30971   6.833  14.880   3.862 -0.0161  0.1722  0.1374
15503W        W30972  15.632   8.068   5.376 -0.2925  0.0521  0.1397
15504W        W30973  14.910   0.600  10.249  0.1554  0.0991  0.5711
15505W        W30974   7.348   7.207   4.493 -0.0992 -0.2145 -0.0307
15506W        W30975  18.257  17.721   2.252  0.2606 -0.4459 -0.0003
15507W        W30976   4.547   8.916   0.205  0.1486 -0.0443 -0.1847
15508W        W30977  16.942   2.516  15.113  0.0334 -0.2884 -0.0914
15509W        W30978  15.783  15.204   4.214  0.2573  0.1360 -0.0354
15510W        W30979  14.685  12.509  14.185  0.1217  0.4515  0.0617
15511W        W30980   8.722  11.040  14.459 -0.2085 -0.2772  0.1266
15512W        W30981  18.307   5.431  15.081 -0.0801  0.1278  0.0136
15513W        W30982  10.679   7.685  13.470  0.0581  0.0954 -0.0964
15514W        W30983  10.849   1.371   4.453  0.0723  0.0953 -0.1428
15515W        W30984   4.439   6.482  13.503 -0.1774 -0.0784  0.0800
15516W        W30985   3.361   1.366  13.915 -0.0428 -0.1620  0.0227
15517W        W30986  12.477   3.734  15.230 -0.1110 -0.3521  0.0257
15518W        W30987   4.387  14.029  11.185 -0.1857  0.2263 -0.1319
15519W        W30988   0.121   5.682  13.841 -0.0306  0.0877  0.3263
15520W        W30989   9.779  13.751   4.973 -0.0152  0.1830  0.2299
15521W        W30990  15.608   0.968  14.169  0.1565 -0.2613  0.1648
15522W        W30991  16.600   3.022   3.304  0.0129 -0.5502 -0.2009
15523W        W30992   5.518  16.129  14.852 -0.3276 -0.0308 -0.0221
15524W        W30993   6.091   3.645  13.474  0.1005  0.0690 -0.0359
15525W        W30994  16.273   6.378   4.313 -0.2577  0.1646  0.1590
15526W        W30995   5.967   0.534  11.805 -0.1262  0.3042  0.0947
15527W        W30996   9.478  15.945   5.692  0.0906  0.1953 -0.0659
15528W        W30997   0.663  10.422   3.077  0.5960 -0.2072  0.1637
15529W        W30998   8.538   7.768   1.898 -0.1642 -0.1297  0.2180
15530W        W30999   1.944  15.475  10.599 -0.2452  0.3040 -0.3257
15531W        W31000   5.104   3.977   3.994  0.1959 -0.1118 -0.1604
15532W        W31001  16.445   5.990   2.934  0.0227  0.2647 -0.3137
15533W        W31002  10.162   3.481   5.605  0.1282  0.1315  0.1019
15534W        W31003   9.758   6.268   3.188 -0.0791  0.1517 -0.2066
15535W        W31004   0.285   6.064   3.183 -0.2348  0.4561  0.1678
15536W        W31005  14.539   2.646   0.299  0.0511  0.1126  0.1452
15537W        W31006  18.590  15.317  14.717 -0.1557 -0.0769  0.4323
15538W        W31007  15.431  17.240   5.617  0.1430  0.3046  0.1061
15539W        W31008   8.550  12.521  15.567  0.0831  0.0001 -0.4023
15540W        W31009   5.164  17.398  13.395 -0.0158 -0.0916  0.4516
15541W        W31010   4.223   9.527   0.215  0.0544 -0.0843  0.0238
15542W        W31011   3.706   3.502   4.486  0.1094  0.2617 -0.0778
15543W        W31012  10.261   8.416   1.828 -0.0171 -0.3909 -0.2590
15544W        W31013  18.081   1.033  11.886  0.0081 -0.0541  0.1521
15545W        W31014  11.064  15.837  11.090 -0.1658  0.2077 -0.0240
15546W        W31015   2.963  11.315  11.672  0.0296  0.0034 -0.1162
15547W        W31016   6.654   7.087  12.006  0.0174 -0.0044 -0.2276
15548W        W31017  10.448  15.481  14.588  0.0041 -0.1873 -0.5348
15549W        W31018  13.579  11.668  14.953 -0.2249  0.0547  0.0647
15550W        W31019   7.766   9.672   1.636 -0.0710  0.0952  0.0460
15551W        W31020   7.355  12.872   4.303  0.1408 -0.2318 -0.0927
15552W        W31021  16.241  11.195   5.681  0.2580 -0.0747 -0.1645
15553W        W31022  13.731  15.532   5.002 -0.3048  0.0008 -0.0286
15554W        W31023   1.175  18.377  11.886 -0.2967  0.1416 -0.2689
15555W        W31024   1.045   8.625  14.834  0.0614 -0.2913 -0.1483
15556W        W31025  15.014   9.021  10.256  0.1567  0.0800  0.0775
15557W        W31026  14.561  18.014  15.572  0.3334 -0.0282  0.0565
15558W        W31027   2.832  10.420  10.383  0.0392 -0.1114  0.0618
15559W        W31028   6.927  12.193   4.972  0.1092  0.0855 -0.5234
15560W        W31029   5.584  15.769  10.169 -0.0401 -0.2031 -0.0613
15561W        W31030  16.458   6.348   2.045 -0.2808  0.0967  0.2946
15562W        W31031  15.995   5.643  13.822 -0.1951 -0.0716 -0.0460
15563W        W31032   3.689   2.645   4.754 -0.1226  0.1422 -0.0083
15564W        W31033  10.261   8.497  14.407  0.1296  0.0789  0.0152
15565W        W31034  18.587  17.290  13.046  0.2444  0.0203 -0.1137
15566W        W31035  16.747  10.050  12.230  0.0931  0.1253  0.1094
15567W        W31036  11.455   8.067  10.822  0.3080 -0.2407  0.1452
15568W        W31037  18.148   9.293   0.769  0.0084  0.1563 -0.0770
15569W        W31038  15.851   2.936  12.868  0.1290  0.1228 -0.1577
15570W        W31039  13.881   5.575   0.844 -0.1036  0.1932  0.4605
15571W        W31040   5.744  13.941   0.630 -0.0454  0.0447 -0.0129
15572W        W31041   3.545  11.953   0.341 -0.2244 -0.0472  0.0828
15573W        W31042   3.844  15.260  13.040 -0.0300  0.0202 -0.1024
15574W        W31043   0.839   5.911   3.530 -0.1751  0.1592  0.0035
15575W        W31044   7.893   0.448   0.316  0.1713 -0.0620 -0.3117
15576W        W31045  13.725  13.293  13.459 -0.2070  0.4321  0.0743
15577W        W31046  17.945  14.713  14.289  0.1628 -0.2111  0.3094
15578W        W31047  15.690  14.699   4.041  0.2861  0.0038  0.2673
15579W        W31048  18.489   5.515  13.041 -0.3718 -0.1965 -0.0154
15580W        W31049   0.570   8.346   4.233  0.2892 -0.0017  0.1927
15581W        W31050   0.929  13.792  14.711 -0.0388  0.1415 -0.1330
15582W        W31051  12.514   6.689  13.159 -0.2614  0.0556 -0.1854
15583W        W31052   5.685  10.325  13.996  0.2353 -0.0019  0.0083
15584W        W31053  13.505  13.691   9.953  0.1758  0.1972 -0.3106
15585W        W31054   3.535   1.116   3.576 -0.0794  0.1967 -0.0193
15586W        W31055   3.471   8.017   3.275 -0.0104 -0.0310  0.0575
15587W        W31056  13.368   0.722   0.891 -0.0732 -0.0861 -0.3501
15588W        W31057   3.365  15.358   5.933 -0.1349  0.0523 -0.2572
15589W        W31058   2.133   8.554   1.416 -0.1978  0.1758  0.0735
15590W        W31059   1.703  15.540  13.333  0.0088  0.0265  0.1041
15591W        W31060  16.949  13.628  11.163  0.0674  0.1737 -0.2002
15592W        W31061   8.867  14.293   4.071  0.1959 -0.1548  0.2035
15593W        W31062   3.355  13.291   3.494  0.0629  0.3526 -0.0530
15594W        W31063  13.306  10.783   4.144 -0.0083 -0.0869  0.0774
15595W        W31064   9.088   6.779   6.186 -0.1146 -0.0254  0.0515
15596W        W31065  14.087   7.263   2.895  0.0514 -0.0205 -0.0452
15597W        W31066   7.716  10.420   4.850  0.2063  0.1890  0.0551
15598W        W31067   4.712  18.220   3.442 -0.1697  0.1663  0.0274
15599W        W31068  18.272  13.676  13.619 -0.3433  0.0778 -0.1194
15600W        W31069   8.756   3.286   0.127  0.1407 -0.1957  0.2187
15601W        W31070   1.693  15.706  14.983 -0.1715 -0.1347 -0.2610
15602W        W31071   9.638   7.375   1.194 -0.1316 -0.4256 -0.0732
15603W        W31072   2.601  12.319   1.560 -0.2762  0.2615  0.1357
15604W        W31073   8.355  10.395  10.914  0.2929  0.2727  0.1638
15605W        W31074   7.897   3.554   4.143  0.0064 -0.0666 -0.0034
15606W        W31075  14.011   9.927   0.524 -0.2610  0.0190 -0.0092
15607W        W31076   4.390   6.583   3.729 -0.0354 -0.1486  0.2027
15608W        W31077  12.536   9.445  15.289  0.0954  0.2067 -0.1489
15609W        W31078  16.717   3.488  11.811  0.0070 -0.0294  0.0842
15610W        W31079   8.735   3.626  13.258 -0.0295  0.1963  0.1962
15611W        W31080  16.749   0.613  11.818 -0.1468 -0.0259  0.1378
15612W        W31081   1.280  16.741   1.159 -0.0559  0.0959  0.3571
15613W        W31082  15.602  10.546  15.721  0.0057 -0.0202 -0.0374
15614W        W31083  15.503  11.431  12.105 -0.1030 -0.0634 -0.0976
15615W        W31084   0.613   6.027   2.607  0.2546  0.2935  0.2502
15616W        W31085   8.193  12.455  14.545  0.0323  0.0443  0.1880
15617W        W31086   0.584  12.463   2.849  0.0308  0.1081 -0.0875
15618W        W31087   4.728  11.658  12.195  0.0664 -0.2704 -0.1363
15619W        W31088  14.070   7.617  12.871 -0.7235 -0.0267 -0.1104
15620W        W31089   4.327  14.546  10.359 -0.1351  0.0652  0.1742
15621W        W31090  16.885   7.019   2.612 -0.1558 -0.0861 -0.2375
15622W        W31091  11.844   5.322  14.945 -0.1203  0.2634 -0.1130
15623W        W31092  12.586   1.638  11.708 -0.0535 -0.0770 -0.3764
15624W        W31093  18.237   5.689  12.574  0.3055  0.1327  0.3195
15625W        W31094  14.318  16.273   4.481  0.1595 -0.1688  0.0550
15626W        W31095   3.577   8.541   1.689 -0.2038 -0.1302 -0.1045
15627W        W31096   6.280  10.977  13.255 -0.4328 -0.0731  0.0979
15628W        W31097  16.091   1.595   3.232 -0.1924  0.2928 -0.2433
15629W        W31098   2.849  15.994  15.568  0.2036  0.5605  0.0937
15630W        W31099  11.430   6.435  14.516 -0.0422  0.1958  0.3275
15631W        W31100   8.222   8.387   4.080 -0.0782 -0.0019 -0.1151
15632W        W31101   3.305   4.924   9.858 -0.0928  0.1308 -0.1586
15633W        W31102  10.201   3.190  11.703  0.2443  0.0998  0.3541
15634W        W31103  12.460  11.143   3.853  0.1380  0.2829  0.0861
15635W        W31104   4.031   6.498   3.333  0.1037  0.2109  0.0321
15636W        W31105   6.331  17.959   2.623  0.1835 -0.1997  0.1293
15637W        W31106   1.953   8.620   3.783 -0.1385 -0.0474 -0.1379
15638W        W31107   4.458  15.167  15.762 -0.0406  0.1409 -0.5823
15639W        W31108   5.582   0.490  12.810  0.3488 -0.3361 -0.1373
15640W        W31109  17.177   5.531   2.993  0.0292  0.1658  0.2804
15641W        W31110   9.070   1.006   5.660 -0.0546 -0.3410  0.1852
15642W        W31111   1.243  16.147   3.259 -0.0875  0.0604 -0.0122
15643W        W31112   0.520   8.689  10.686 -0.0037 -0.3646  0.1064
15644W        W31113  12.796  18.059  14.339  0.0723 -0.0391 -0.2338
15645W        W31114  18.590   6.028  10.081 -0.0073 -0.0908  0.0204
15646W        W31115   8.284  11.384   1.800 -0.0609  0.0173 -0.2959
15647W        W31116  11.029   6.289   2.975 -0.2002 -0.0275 -0.0789
15648W        W31117   9.538   0.218  13.498 -0.0728  0.0285 -0.0136
15649W        W31118  17.924   3.093   5.583 -0.0225 -0.0078 -0.2430
15650W        W31119  18.335  11.724   4.590 -0.0648 -0.0517  0.1455
15651W        W31120  14.501  14.161  15.733 -0.1356  0.3496  0.0722
15652W        W31121   0.153  12.819  15.502 -0.3362  0.0711 -0.0051
15653W        W31122   7.544  13.060   5.865 -0.0520  0.2756  0.0593
15654W        W31123   1.236  11.291   5.053  0.0548 -0.0845 -0.1121
15655W        W31124   6.606   2.053   2.099 -0.1390  0.1239  0.3051
15656W        W31125  11.900   0.686   3.114  0.0950  0.1675 -0.1941
15657W        W31126   7.250  11.638   4.380 -0.2968  0.1199 -0.2910
15658W        W31127   2.417   2.776   0.540  0.2489 -0.1184 -0.1023
15659W        W31128  13.082  12.384  12.074  0.0688  0.2136 -0.1604
15660W        W31129  18.569  18.049  10.882 -0.1892 -0.0562  0.2809
15661W        W31130  15.953   8.404  10.866  0.0503 -0.0999  0.2091
15662W        W31131   2.343   2.464  15.428  0.0815 -0.0087  0.0433
15663W        W31132  12.794   2.251  13.172 -0.3205  0.0874  0.2305
15664W        W31133   3.235   8.183   2.829 -0.0745  0.0815 -0.1669
15665W        W31134   0.443   3.210   2.075  0.0751  0.0314 -0.2783
15666W        W31135   0.295   7.325   1.395  0.0265  0.1249 -0.3706
15667W        W31136  16.176   4.687   2.948  0.0578  0.0384 -0.1066
15668W        W31137  17.264   0.126   3.374 -0.2252 -0.1327 -0.0545
15669W        W31138  16.174   8.861   2.647 -0.2818 -0.0380  0.0254
15670W        W31139  12.436  17.172   3.948 -0.0030 -0.0602 -0.0313
15671W        W31140   4.860  15.212  10.919  0.1085  0.1668 -0.3415
15672W        W31141   8.826   3.054  15.324  0.1039  0.0339 -0.3633
15673W        W31142   3.973   8.971   4.806  0.3680  0.1412 -0.1397
15674W        W31143   9.446   6.263  15.179 -0.0628  0.2074  0.2060
15675W        W31144  16.332   6.156  13.692 -0.1594  0.1275 -0.1841
15676W        W31145   4.232   7.278   2.311  0.0001 -0.3409  0.2109
15677W        W31146  17.153  11.113   4.248 -0.2220  0.1440 -0.1118
15678W        W31147  14.544   0.851  10.998 -0.1536 -0.0390 -0.0457
15679W        W31148  10.019   5.855   4.852 -0.0661  0.2292  0.0078
15680W        W31149  15.362  18.401  11.411 -0.2838 -0.0457 -0.1409
15681W        W31150  17.654   9.232   0.639  0.0153  0.1064  0.3356
15682W        W31151   2.558   0.116   3.914 -0.4058  0.3186  0.3205
15683W        W31152  14.395  15.883   1.490 -0.5722 -0.0823 -0.0211
15684W        W31153   3.802  15.638  12.595 -0.2100  0.0071 -0.0271
15685W        W31154   0.849   6.969  13.566 -0.2358  0.1506 -0.1022
15686W        W31155   8.388   1.100   0.021  0.1831  0.1986 -0.1139
15687W        W31156  11.055   9.853  11.494  0.1575  0.0807 -0.1134
15688W        W31157  13.124  14.321  14.958  0.1441  0.2180  0.1344
15689W        W31158  13.746  17.848   1.961 -0.0603 -0.0356 -0.0723
15690W        W31159   7.849  18.523   0.266 -0.0719 -0.2188 -0.0349
15691W        W31160   1.310  13.023  14.541  0.0468  0.2397  0.1034
15692W        W31161   7.979   6.897  14.689 -0.0861  0.0374  0.0143
15693W        W31162   8.953   3.579  15.511  0.0318  0.2142 -0.0825
15694W        W31163  12.080   9.563  15.164  0.0131  0.0341 -0.1842
15695W        W31164  17.922  15.320   0.792  0.0260  0.2162  0.0757
15696W        W31165   5.549  16.194   1.950  0.0422 -0.1935  0.0802
15697W        W31166   8.394   6.996  11.431  0.0960 -0.0731  0.2334
15698W        W31167  16.972   0.584   2.996  0.0259  0.1813 -0.1141
15699W        W31168  10.530  13.646   4.021  0.1231 -0.0323  0.1457
15700W        W31169   2.154  11.048   2.834  0.1639 -0.4062  0.0670
15701W        W31170  13.372   1.003   4.934  0.1820  0.4213 -0.3002
15702W        W31171   9.285  11.358  11.346  0.1087 -0.0361  0.0418
15703W        W31172   4.031  11.627  14.210  0.1582  0.1335 -0.2439
15704W        W31173   7.183  10.767  15.527  0.2819 -0.1535 -0.0021
15705W        W31174  17.399   3.504   0.542  0.0172 -0.0020  0.2685
15706W        W31175   1.932   5.597  12.496 -0.0486  0.2492  0.2561
15707W        W31176   2.709   1.533   3.584 -0.1611  0.0326 -0.4090
15708W        W31177  14.915   9.308  14.306  0.0908  0.1587 -0.2527
15709W        W31178  11.049   4.735  14.239  0.1292  0.1989  0.0759
15710W        W31179  12.044  13.097  15.024 -0.2324  0.2245 -0.3459
15711W        W31180   3.833   9.486  10.722  0.0657 -0.2370  0.0078
15712W        W31181  16.764  11.646  12.563  0.0048  0.0374 -0.0979
15713W        W31182   2.952  15.488   3.884  0.0675  0.0986  0.1451
15714W        W31183   4.031  14.057   1.562 -0.2733 -0.1455 -0.2705
15715W        W31184   3.789   0.837   4.170 -0.0711  0.2860 -0.0419
15716W        W31185   5.668  17.886   3.952  0.0528 -0.0006 -0.0759
15717W        W31186  10.710  17.146   4.591 -0.0063  0.1069  0.2244
15718W        W31187   7.994  16.146   4.878 -0.1410 -0.0150  0.0130
15719W        W31188   0.347  16.704  13.926 -0.3678  0.2210  0.2478
15720W        W31189   4.503  13.717  11.581  0.0812  0.1761  0.2865
15721W        W31190  15.828   5.163  11.569 -0.1637 -0.3032  0.1494
15722W        W31191  12.619  16.682   4.359 -0.0929  0.0841 -0.0285
15723W        W31192   5.030   1.089   0.904  0.0941  0.3734 -0.0624
15724W        W31193  11.514   8.278  15.355 -0.4463 -0.2953 -0.0549
15725W        W31194  12.323   0.770  13.226 -0.1811 -0.1145 -0.0108
15726W        W31195  16.000   0.623  14.441  0.0155  0.0455  0.1089
15727W        W31196  14.823   7.944  14.655  0.0748 -0.1363  0.0850
15728W        W31197   8.392   7.957  13.594  0.0519  0.2414  0.3378
15729W        W31198   0.900  15.009  13.696 -0.1977 -0.2188 -0.1111
15730W        W31199   3.016   1.536  15.362  0.0885  0.0901 -0.2011
15731W        W31200   0.874  12.361   0.726  0.2855 -0.1301 -0.2431
15732W        W31201   2.001   9.789  13.065 -0.1469 -0.0603 -0.1385
15733W        W31202  12.218  10.537  12.064  0.2359 -0.0346 -0.0028
15734W        W31203   5.352  11.187  15.625  0.1574 -0.0461 -0.0436
15735W        W31204  13.804   5.862  12.553 -0.0951  0.1498  0.0145
15736W        W31205   9.405   8.682  14.387 -0.0637 -0.0550  0.1522
15737W        W31206   8.727  10.475   2.575 -0.0897  0.3658  0.0111
15738W        W31207  16.188  11.540   3.010 -0.0983 -0.0470  0.0538
15739W        W31208  15.166  11.152  15.579 -0.1516 -0.3859 -0.3093
15740W        W31209   9.685  10.809  14.154  0.1623  0.1514 -0.0448
15741W        W31210   7.790  16.328   0.122  0.0932  0.1044 -0.3774
15742W        W31211   4.906  12.749   0.119 -0.3817  0.2575 -0.1794
15743W        W31212   0.292  14.084  15.194 -0.1750 -0.1453 -0.1301
15744W        W31213   8.381  10.098   3.234  0.0215 -0.1598  0.1292
15745W        W31214  13.209  15.491   3.389 -0.0650 -0.3328 -0.2753
15746W        W31215  15.148   7.213   2.622  0.1258 -0.0778 -0.2126
15747W        W31216   8.207   7.368  14.940 -0.1110  0.0068 -0.1429
15748W        W31217   0.637  16.997  14.203 -0.0124 -0.0245 -0.0512
15749W        W31218   2.378   9.372  15.551 -0.0263 -0.1057 -0.1279
15750W        W31219  10.588  11.693   3.915  0.0150 -0.0212 -0.0635
15751W        W31220  10.681  15.600  13.570  0.2076  0.0558  0.1173
15752W        W31221  12.031  12.851  15.569 -0.0534  0.0472  0.1217
15753W        W31222  16.370  12.761  13.145 -0.2592  0.0035  0.1728
15754W        W31223  17.104   6.203   0.959 -0.3011 -0.2884  0.1413
15755W        W31224   3.641  12.354  10.615  0.1292 -0.2037 -0.4653
15756W        W31225   2.373  14.023  13.362 -0.0940 -0.2237  0.0538
15757W        W31226   0.727  13.831   3.905  0.0383 -0.0633  0.0179
15758W        W31227   4.389  17.367   0.816  0.2403 -0.3950  0.1333
15759W        W31228  18.365   9.348  13.291 -0.1607 -0.2453 -0.1838
15760W        W31229   9.707   6.180  14.136 -0.1521  0.2984 -0.1461
15761W        W31230  17.193   9.958  13.981  0.0715  0.1390 -0.1386
15762W        W31231   4.183   3.598   4.770 -0.0280 -0.3377 -0.1017
15763W        W31232   8.752   6.420  15.709 -0.0789 -0.2932 -0.1599
15764W        W31233   8.580  14.779   2.808  0.0962  0.1348 -0.4290
15765W        W31234  14.671  16.209   2.344 -0.0229  0.1061  0.2923
15766W        W31235   1.374   2.829  13.808 -0.0991 -0.0039 -0.2714
15767W        W31236   6.335  15.223   9.917 -0.0025  0.0496  0.1238
15768W        W31237  17.191   4.901  13.864 -0.2124 -0.3891 -0.2025
15769W        W31238   2.000  10.626   3.859 -0.1798  0.0158  0.0022
15770W        W31239  13.483   3.439  11.567 -0.1441  0.3173 -0.1588
15771W        W31240   9.369   1.393   6.635 -0.1863 -0.0802  0.1331
15772W        W31241  15.581   2.575   5.117  0.0092  0.1300 -0.2197
15773W        W31242   2.081  11.513   2.679  0.0498 -0.1001  0.2410
15774W        W31243  12.500  16.497  12.956  0.3522  0.4435  0.2778
15775W        W31244  13.171  16.258  15.693 -0.1658 -0.2513  0.0429
15776W        W31245   1.669  18.118  11.661 -0.0010  0.1442 -0.1325
15777W        W31246  13.975   2.853   4.357  0.0315  0.0020 -0.4191
15778W        W31247  14.974   3.763   4.056  0.1748 -0.0876 -0.1167
15779W        W31248   7.428  15.503  15.615 -0.0351 -0.0589 -0.0166
15780W        W31249   6.058   9.482   1.178 -0.0691  0.2443 -0.1539
15781W        W31250   7.730  11.274  11.403 -0.1254  0.2293 -0.1667
15782W        W31251  13.312   5.632  14.096 -0.2396 -0.0692  0.0853
15783W        W31252  16.991   4.463   0.188  0.1900  0.0786 -0.3080
15784W        W31253   4.412  17.984  14.960 -0.0868 -0.1442  0.2416
15785W        W31254  15.916  11.345   1.852  0.1010  0.0706 -0.0619
15786W        W31255   7.487  14.220  13.008 -0.0086 -0.0587 -0.1063
15787W        W31256  10.538  13.672   1.457  0.0119 -0.0957  0.3102
15788W        W31257   5.822   0.761  15.224 -0.0872  0.0949 -0.2588
15789W        W31258  12.002   1.957   0.525 -0.2871 -0.0089 -0.1910
15790W        W31259   6.520   0.632  12.586 -0.0250  0.0490  0.1542
15791W        W31260   8.491  14.802  13.717  0.2188  0.0116 -0.0276
15792W        W31261  17.321   1.635   5.050 -0.2023 -0.2277  0.0403
15793W        W31262   6.352  12.252  10.483  0.0326 -0.0582 -0.1136
15794W        W31263  10.158   6.557   4.309 -0.2317  0.2539  0.0562
15795W        W31264   9.304   5.936  12.923 -0.1955 -0.1176 -0.1344
15796W        W31265   6.968   1.931   5.231 -0.1235  0.0597 -0.1118
15797W        W31266  12.164  12.361   1.373  0.1724  0.2861 -0.0506
15798W        W31267  15.762  13.752   2.434 -0.1094  0.2657 -0.1390
15799W        W31268  15.058  12.042  10.752  0.0957 -0.1211  0.1189
15800W        W31269  13.927  12.909  13.828  0.2180  0.2967 -0.0227
15801W        W31270   5.253  10.000   4.727 -0.0251  0.2366 -0.0259
15802W        W31271   6.117  16.834  15.481  0.3039 -0.1608 -0.1674
15803W        W31272  16.137  10.730  11.206 -0.2954 -0.0013  0.1728
15804W        W31273  15.976  18.534   3.357 -0.0915  0.2985  0.1730
15805W        W31274   6.591  10.919  10.642  0.1162  0.1499  0.0589
15806W        W31275   1.613  11.990  13.133  0.1048 -0.1823  0.1533
15807W        W31276  13.534  17.486  12.244  0.0824  0.1388  0.1571
15808W        W31277  14.148   0.411   2.604 -0.2127  0.0670  0.0682
15809W        W31278  13.004   8.224   5.397 -0.2584 -0.0125  0.1251
15810W        W31279  12.792   9.179   5.687 -0.1976 -0.1849  0.3701
15811W        W31280   0.781   7.122   1.654 -0.0556  0.1923 -0.3162
15812W        W31281   8.469  16.811   4.857 -0.1591 -0.2716 -0.1642
15813W        W31282   5.438   4.780   3.014 -0.2942  0.0221  0.1048
15814W        W31283  15.472  15.837  13.276 -0.0714 -0.4580  0.1050
15815W        W31284  18.296   6.429  14.442 -0.2205  0.0715  0.1504
15816W        W31285   9.850  13.758  13.237 -0.2924  0.0355  0.0064
15817W        W31286   3.091   0.852  11.688 -0.0188  0.0927 -0.1862
15818W        W31287  12.513  11.914   1.596  0.0791  0.0601  0.2831
15819W        W31288  15.630   1.279  11.449 -0.0475 -0.0667  0.0160
15820W        W31289  12.603   3.681  14.184  0.1673  0.2190 -0.0444
15821W        W31290   0.355   3.737   2.069  0.1972  0.2272  0.0612
15822W        W31291  16.265   1.340   1.614 -0.2540 -0.3783  0.0568
15823W        W31292   7.571   5.081  15.732 -0.0648  0.4958  0.1349
15824W        W31293   5.167  13.811  11.124 -0.3490  0.1783 -0.1036
15825W        W31294  18.484  14.336   1.105  0.2489 -0.0178  0.2748
15826W        W31295  18.214   2.622  12.910 -0.0325  0.1875 -0.0785
15827W        W31296   3.805   3.645  15.615  0.2070  0.2303  0.1394
15828W        W31297   3.741  16.343   1.848  0.5827 -0.0263  0.3613
15829W        W31298   9.194   8.859   2.765 -0.0778 -0.2825 -0.3047
15830W        W31299   1.688  17.027  13.343  0.2349  0.0159  0.1833
15831W        W31300  11.096   6.818  15.054 -0.0529 -0.1216 -0.2100
15832W        W31301   4.157  15.780   6.244  0.0986 -0.2687  0.0824
15833W        W31302  12.088  17.552   3.852 -0.3811 -0.0235 -0.2933
15834W        W31303  18.532   4.907  14.417  0.1357  0.1616 -0.3939
15835W        W31304  14.586  13.271  11.550 -0.0997 -0.0100  0.0739
15836W        W31305   3.365  11.177  11.460  0.3322 -0.0705 -0.1045
15837W        W31306   1.371  16.331   9.910 -0.0375 -0.0489 -0.1228
15838W        W31307  16.765   4.208   4.291  0.0667 -0.0409  0.2099
15839W        W31308   3.523   3.425   3.123  0.0667  0.1549 -0.2247
15840W        W31309   7.128   8.380  14.274  0.1232 -0.1935 -0.2192
15841W        W31310   6.414   9.864   1.689  0.2846 -0.1384  0.2552
15842W        W31311   8.634   9.398  14.685 -0.2390  0.2130  0.0896
15843W        W31312   5.210  15.410   3.203  0.0557  0.1696  0.1630
15844W        W31313   4.995   3.646  11.239  0.1389  0.1349 -0.1745
15845W        W31314  18.219  10.717   2.833  0.2902 -0.0222  0.1366
15846W        W31315  15.599  18.524  12.288  0.0833 -0.1617 -0.2403
15847W        W31316  18.405   9.124  14.333 -0.3263 -0.1225 -0.0110
15848W        W31317  12.514  13.755   2.699  0.0131  0.0428 -0.0379
15849W        W31318  15.005  15.524  12.932 -0.3836  0.0323  0.0857
15850W        W31319   3.892  18.020   0.630  0.0089 -0.0176 -0.1344
15851W        W31320  14.983  12.595  11.494 -0.1483  0.0788  0.1952
15852W        W31321  14.855   7.424  10.759  0.1225  0.1770 -0.1643
15853W        W31322   5.405   3.771   4.442 -0.1105 -0.2344  0.0104
15854W        W31323  12.398  12.147   0.592 -0.2404  0.3821 -0.2716
15855W        W31324   0.550   6.732  11.436 -0.2265  0.0319 -0.0856
15856W        W31325  17.792   8.326  10.140  0.1131  0.1521  0.0328
15857W        W31326  15.981  14.311  14.155  0.0043 -0.3878  0.1442
15858W        W31327   8.882   7.577   1.287 -0.1887 -0.2511 -0.1789
15859W        W31328   2.956   3.274   3.003  0.2472  0.1509  0.2159
15860W        W31329  16.915   7.344  10.723  0.3142  0.1443 -0.2895
15861W        W31330  17.086   8.059   2.047  0.0085  0.2561  0.0888
15862W        W31331   0.481   9.604  13.864  0.1850 -0.1658  0.1000
15863W        W31332   8.375  14.095  15.285 -0.1019 -0.2355  0.0820
15864W        W31333  13.202  11.990  13.245 -0.0286 -0.2533  0.1126
15865W        W31334   1.659   2.100   2.990  0.0360  0.0609  0.0207
15866W        W31335  14.697  11.797   1.613  0.0536 -0.0097 -0.1723
15867W        W31336   2.423  10.319  15.461  0.0035 -0.1253  0.0821
15868W        W31337  12.928  16.908  11.607 -0.1645  0.0002 -0.1858
15869W        W31338   3.495   0.460  14.024  0.1093  0.1635  0.0005
15870W        W31339  13.645  17.751   4.428  0.1822  0.1847  0.0907
15871W        W31340  12.055  11.658   0.781 -0.1362  0.0323 -0.2809
15872W        W31341   3.850   7.739  14.779  0.2154  0.2411 -0.1514
15873W        W31342  18.356  16.602  13.065  0.3320  0.0184  0.2191
15874W        W31343   8.422   7.341  11.944  0.1425 -0.3603 -0.1287
15875W        W31344   6.772   3.959   0.815 -0.0927 -0.1870 -0.0100
15876W        W31345  13.958  12.428  13.633  0.3045  0.1313  0.1760
15877W        W31346  17.969   4.726   2.015  0.1239  0.1368 -0.2899
15878W        W31347   2.477   3.033   1.438  0.3469  0.0466 -0.1547
15879W        W31348   3.029  16.737   4.548  0.3395 -0.0910  0.1947
15880W        W31349  14.670   6.880  12.946  0.0102 -0.0992 -0.3326
15881W        W31350  16.501   2.639  14.281  0.3503  0.0326 -0.0326
15882W        W31351  12.608  15.503  10.427  0.2788  0.0073 -0.1247
15883W        W31352   0.499  16.979   6.120 -0.0441 -0.2391  0.3999
15884W        W31353  11.603  17.596   4.671 -0.0462  0.0195 -0.4032
15885W        W31354   1.566  17.402  12.476  0.0767  0.0568  0.0720
15886W        W31355   8.364   9.185  10.813  0.3461 -0.0907 -0.0161
15887W        W31356  12.456  10.187   2.901 -0.1644  0.0487 -0.2694
15888W        W31357   6.299  11.577   0.668 -0.0339 -0.0035  0.0684
15889W        W31358  11.855   2.882  13.953  0.1955  0.0629 -0.1867
15890W        W31359   9.361  12.667  12.685  0.1700 -0.0731 -0.1914
15891W        W31360  17.252  14.239   4.499  0.0415 -0.1130 -0.1406
15892W        W31361  11.888   9.409  13.119  0.2132  0.1468  0.1370
15893W        W31362  17.094   3.101  14.883  0.2064 -0.0097 -0.1779
15894W        W31363  10.644  10.968   1.540 -0.0014  0.0826 -0.1683
15895W        W31364   8.858  12.124  11.225  0.1932  0.2718 -0.1846
15896W        W31365  13.290  15.914   0.901 -0.0582  0.1563  0.0170
15897W        W31366   0.160   2.100  12.551  0.0783  0.4841 -0.5159
15898W        W31367  14.757  11.160  11.644 -0.4748 -0.0391 -0.1916
15899W        W31368  15.443  15.795   0.221  0.4006  0.0648  0.0031
15900W        W31369  18.476   1.012   3.778 -0.1635 -0.2013  0.0122
15901W        W31370   4.682   5.601  11.276  0.2990 -0.3007  0.2448
15902W        W31371   1.143  14.731   3.009 -0.0920  0.2252  0.0808
15903W        W31372   6.738  16.040  13.039  0.1103  0.0567 -0.3226
15904W        W31373   2.754  16.800  11.510 -0.0820 -0.0748  0.1269
15905W        W31374  17.308   8.886   2.442  0.1028 -0.1292  0.0943
15906W        W31375  12.926   8.406  11.132  0.1891  0.2989  0.0652
15907W        W31376   3.014  14.533   2.330  0.0981  0.1636  0.2103
15908W        W31377  13.281   2.344  12.301 -0.4433  0.3336 -0.1482
15909W        W31378  13.117  15.367  13.071  0.1512 -0.3387  0.0717
15910W        W31379  12.656  16.821  14.074  0.2538 -0.0669  0.1061
15911W        W31380  15.878  11.684  15.696 -0.0901  0.0167 -0.1736
15912W        W31381   0.077  14.983  11.474  0.0797 -0.4160  0.0824
15913W        W31382  10.218   1.988   4.852 -0.0654  0.0244 -0.1249
15914W        W31383   2.301   4.194  12.897 -0.0023  0.0599  0.1552
15915W        W31384   2.498  17.356  14.416 -0.0180  0.1761  0.0157
15916W        W31385   7.566   7.988   5.671 -0.0593 -0.2917 -0.3135
15917W        W31386   4.114   9.335  12.745  0.2397  0.2437  0.0056
15918W        W31387  10.082  11.459  11.613 -0.2152  0.3009 -0.1074
15919W        W31388   2.837  16.927  15.550  0.2925 -0.3264  0.0838
15920W        W31389  11.500  16.671   4.639  0.1147 -0.0307 -0.1239
15921W        W31390   0.405  12.416  11.920 -0.2606 -0.1787 -0.2909
15922W        W31391   2.245  17.473   3.748  0.1421  0.2406  0.0478
15923W        W31392  10.793   2.510   3.032 -0.1633 -0.0443 -0.0305
15924W        W31393  15.992  13.080   0.451 -0.0561 -0.0289  0.0124
15925W        W31394  15.035   3.225   0.021  0.0286  0.2953  0.0927
15926W        W31395  17.678  13.348   1.316 -0.0770 -0.0299 -0.0889
15927W        W31396   9.385   6.759   5.154  0.4795  0.0922  0.1372
15928W        W31397  16.703   0.426  12.606 -0.1813  0.4144  0.0688
15929W        W31398   8.365   6.674  14.215 -0.1190  0.1118  0.0424
15930W        W31399   5.902   3.038  14.819  0.0143 -0.1037 -0.2376
15931W        W31400  10.539   9.124  11.068  0.2981  0.2172  0.2299
15932W        W31401  15.679   4.233  15.036  0.1323 -0.2195 -0.3478
15933W        W31402   9.838   6.147  15.573 -0.0879 -0.2513 -0.2102
15934W        W31403  14.053   7.844  10.339  0.4434  0.2157 -0.0326
15935W        W31404   3.529  18.037   3.447  0.0232  0.0418 -0.1173
15936W        W31405   0.526  15.557   3.337  0.4775  0.1251 -0.1786
15937W        W31406  15.593  18.156   1.710 -0.1179 -0.2772  0.1947
15938W        W31407  17.088  10.766  15.146  0.3959 -0.1255  0.0824
15939W        W31408   5.325   4.039   2.476 -0.2308 -0.1535 -0.0300
15940W        W31409   0.562  15.870  12.620  0.4021  0.1159 -0.1177
15941W        W31410  12.253  16.348   5.182  0.1978  0.0775 -0.0470
15942W        W31411  11.390   8.547  14.032 -0.2738 -0.1918 -0.0484
15943W        W31412  18.035   0.670   5.303  0.3586  0.0081  0.0253
15944W        W31413  13.662  10.866   5.060 -0.0076 -0.1329 -0.0570
15945W        W31414  13.618   0.729   5.301 -0.0229  0.1203  0.0033
15946W        W31415  16.261   4.499  11.833 -0.0311  0.4708  0.0542
15947W        W31416  11.933   5.865  12.269  0.3090 -0.1877  0.1041
15948W        W31417  13.278  18.280  13.247  0.1957 -0.2731 -0.3963
15949W        W31418   7.290  11.690   0.896  0.1988 -0.1412  0.0058
15950W        W31419  14.519   8.864   3.085  0.0906  0.1545 -0.0863
15951W        W31420  10.626   5.919   2.740  0.2162 -0.2693 -0.5087
15952W        W31421   1.562  18.488  11.088  0.2473  0.2254 -0.0522
15953W        W31422   4.691   9.712   2.700  0.1212  0.0570 -0.1869
15954W        W31423  13.510  12.656  15.708 -0.0107  0.0133 -0.0234
15955W        W31424  10.287   0.030  13.946  0.0406 -0.0468  0.2457
15956W        W31425  17.136   8.032  11.297  0.0820 -0.2151 -0.0188
15957W        W31426  15.330   7.936   4.235 -0.0255  0.1156  0.2701
15958W        W31427   0.081   8.555  14.464  0.0522  0.2362  0.2419
15959W        W31428  14.044   3.727  14.227 -0.0877  0.1375  0.1257
15960W        W31429   7.652  18.039   3.306  0.3386  0.2446 -0.1481
15961W        W31430  10.407   5.861   3.539  0.0402 -0.1672 -0.0072
15962W        W31431   1.775   5.276  11.548 -0.0739 -0.1286 -0.2281
15963W        W31432   7.865   8.613  11.717  0.1722  0.0140 -0.3935
15964W        W31433   0.660  17.915   2.160  0.2569  0.1080  0.0894
15965W        W31434   5.257  12.365   4.665 -0.0646  0.1066 -0.2953
15966W        W31435  16.950  17.190   1.880  0.2361  0.0544  0.2887
15967W        W31436  15.895  17.021   4.380 -0.2192 -0.0480  0.1106
15968W        W31437  16.395   8.632   0.720  0.0517 -0.2366  0.1626
15969W        W31438   7.340   4.879  12.655 -0.1979 -0.0144  0.5297
15970W        W31439   6.323  14.254  11.225 -0.0143  0.1217  0.1602
15971W        W31440   7.024  18.618   5.793 -0.1059  0.0975 -0.0452
15972W        W31441  17.290  12.935   4.263  0.0931  0.2324  0.3225
15973W        W31442   3.502  17.903  11.805 -0.1339  0.0215  0.0672
15974W        W31443   7.874  10.363   9.963  0.1188  0.0881 -0.1217
15975W        W31444   7.106   5.375  12.445  0.0396  0.1053  0.0429
15976W        W31445   3.895  18.513  13.548 -0.0920 -0.1537 -0.0101
15977W        W31446   2.871   8.418  12.028 -0.2879 -0.1352  0.0371
15978W        W31447  16.501   7.301   2.512  0.2866 -0.0725 -0.1448
15979W        W31448   9.215   6.293   5.000 -0.1452 -0.0619 -0.1329
15980W        W31449   2.183   7.308  12.902  0.0644  0.3043 -0.0973
15981W        W31450   7.824  12.218  13.506 -0.1984 -0.0086  0.2745
15982W        W31451   7.772   3.872   3.081 -0.0117 -0.1727  0.1180
15983W        W31452  18.481   6.693  12.118  0.1986  0.2387 -0.2993
15984W        W31453  10.039  10.627  13.782  0.1544 -0.0996 -0.4579
15985W        W31454   2.080  18.351  14.984 -0.1127 -0.2007  0.2690
15986W        W31455  10.916   3.670   3.415  0.0363  0.2022  0.0073
15987W        W31456   2.912  15.000  12.877  0.2694  0.1354  0.1155
15988W        W31457  17.951  11.799   3.517  0.0991  0.5629 -0.0150
15989W        W31458   9.352   7.953   4.305 -0.0768 -0.0564 -0.2450
15990W        W31459  16.478  17.325   4.541 -0.0827 -0.2405 -0.2116
15991W        W31460  11.410  15.540  14.729 -0.1103 -0.1065  0.0209
15992W        W31461   2.938   0.590  13.127  0.0955 -0.1196  0.3792
15993W        W31462   4.775  18.086   5.429  0.0480  0.1087 -0.0297
15994W        W31463  16.392   1.249   4.474 -0.1370 -0.1523 -0.1356
15995W        W31464   4.663   3.356   0.357 -0.0202  0.3788  0.1634
15996W        W31465  17.860   3.410   0.858  0.2797  0.0591 -0.1693
15997W        W31466  13.546   8.997  12.717  0.4011  0.0065 -0.1819
15998W        W31467   4.746  17.991  12.896 -0.2090 -0.3555 -0.1460
15999W        W31468  15.601  15.013  15.136 -0.2565 -0.0513 -0.1144
16000W        W31469   1.296   0.053   1.305 -0.0467  0.0305  0.1957
16001W        W31470  16.696   6.462  15.398 -0.1927 -0.0157  0.2287
16002W        W31471   4.235   9.532   3.778  0.0169 -0.0703 -0.2687
16003W        W31472  17.577   8.067   1.856  0.3513 -0.2432 -0.0907
16004W        W31473  16.492   4.243  13.903 -0.3850 -0.1249  0.0551
16005W        W31474  15.459   6.070  14.405  0.2538 -0.0375 -0.0670
16006W        W31475  14.006  10.578  12.589  0.1232 -0.0580  0.3992
16007W        W31476  12.188   8.411  12.979  0.2343  0.1899  0.2286
16008W        W31477  12.184   3.663   1.613  0.4520  0.2052  0.2841
16009W        W31478   8.393   9.077   1.381  0.2663 -0.1623 -0.1351
16010W        W31479  10.045  11.424   3.928  0.0503  0.0792 -0.0161
16011W        W31480   4.520   4.646   0.160  0.0046  0.1302  0.1818
16012W        W31481  15.877  15.067  13.675 -0.0773 -0.2325  0.3203
16013W        W31482   0.623  11.842   3.388  0.0347 -0.1566  0.1425
16014W        W31483   0.748   1.728   2.529 -0.4492  0.0152 -0.0041
16015W        W31484   9.947  10.974  11.725  0.1046  0.0747  0.0619
16016W        W31485  14.904   1.546   5.593 -0.2428  0.0921 -0.1990
16017W        W31486  11.889   9.622  12.425  0.1749  0.0245  0.2132
16018W        W31487   9.733   6.205   0.296  0.0507 -0.2464 -0.0899
16019W        W31488   3.979   7.140  14.704  0.0272 -0.2088 -0.2802
16020W        W31489  17.472   5.300   4.699  0.0964  0.1556 -0.3277
16021W        W31490  15.483  16.369  13.391 -0.1651  0.4111 -0.0686
16022W        W31491   5.374   4.607   1.072  0.0472  0.0110  0.1909
16023W        W31492  16.049  17.632  11.122 -0.1869  0.0850 -0.0926
16024W        W31493   6.271   3.379  15.026  0.0363 -0.0203  0.0269
16025W        W31494   0.860   6.958   8.831 -0.3849 -0.1946  0.1986
16026W        W31495  16.147  15.404  12.683 -0.2834 -0.4669 -0.6516
16027W        W31496  17.947  16.277   0.511 -0.0542 -0.3001 -0.1098
16028W        W31497   3.220  13.307   5.413  0.0574  0.0198  0.1755
16029W        W31498   8.323   0.244  11.962  0.1440 -0.0989 -0.0907
16030W        W31499   5.095  10.106   1.142  0.1210  0.0206 -0.1368
16031W        W31500  13.185  10.058   5.040  0.1979 -0.0426  0.0196
16032W        W31501   3.791   0.878  14.154  0.1134  0.0373 -0.2250
16033W        W31502   0.930   5.815   1.729 -0.0100 -0.1687 -0.1110
16034W        W31503  11.548   8.423  11.652  0.0910 -0.2175  0.1684
16035W        W31504   2.234  17.684  13.298 -0.1389  0.0058 -0.1975
16036W        W31505  12.807   1.146  15.522 -0.1153 -0.0265  0.1053
16037W        W31506  16.882   5.181  13.021  0.1644  0.0964  0.3303
16038W        W31507  12.987   9.248   0.993 -0.1127 -0.2087 -0.0018
16039W        W31508   6.051   8.974  11.402  0.0926 -0.3410  0.0118
16040W        W31509  15.759   8.982   5.713 -0.1258 -0.2712 -0.1089
16041W        W31510  12.198   6.424   4.187  0.0791 -0.0534  0.0224
16042W        W31511   7.750  12.668   2.910  0.0332  0.0967  0.0586
16043W        W31512   3.522   5.933  11.341  0.0829 -0.1269  0.1479
16044W        W31513  11.089   2.189  12.394 -0.1851 -0.0582 -0.3962
16045W        W31514   6.097  17.069   1.413  0.1943 -0.1618  0.0400
16046W        W31515  10.183   5.252   5.428  0.0812  0.0638 -0.1797
16047W        W31516   4.307   8.824  11.905 -0.0404  0.2564 -0.3065
16048W        W31517   7.946  10.721  10.868 -0.4417 -0.2748  0.0928
16049W        W31518  16.084  15.613   4.037 -0.0849  0.0200  0.1340
16050W        W31519   8.780  10.029   4.149  0.0126 -0.2393  0.0951
16051W        W31520  15.700   0.963   2.116 -0.4677 -0.1415  0.0599
16052W        W31521   5.921  16.849  13.218  0.1293 -0.2462  0.5522
16053W        W31522   7.969  15.535   2.101  0.1417 -0.0178  0.1878
16054W        W31523   9.979  18.456  12.452  0.0131 -0.1927 -0.1364
16055W        W31524   5.961   3.252   3.186 -0.1739  0.4708  0.0436
16056W        W31525   3.488   9.877   1.449 -0.2096 -0.0205 -0.1333
16057W        W31526  11.738   4.349  12.378  0.3881 -0.1510 -0.1176
16058W        W31527  16.132   2.000  14.776  0.0988 -0.1475  0.0329
16059W        W31528   9.399  14.651   2.126 -0.0404 -0.2539  0.1156
16060W        W31529  10.922  12.415   0.005 -0.0551 -0.0551  0.0087
16061W        W31530  16.616   3.464   3.019  0.0552  0.3702 -0.1096
16062W        W31531  11.879   2.736   1.502 -0.0930  0.1267  0.2035
16063W        W31532  16.864  18.287   3.333  0.0253  0.2615 -0.0426
16064W        W31533  15.187   4.815   5.139 -0.0688 -0.0978 -0.2461
16065W        W31534   1.855   1.997  14.858 -0.0488  0.0171 -0.2970
16066W        W31535  14.217   6.362   5.660  0.0097  0.1700 -0.2413
16067W        W31536  13.512  11.136  14.292 -0.0818 -0.0522  0.1222
16068W        W31537   0.132   4.450  15.208  0.3193  0.0179  0.1393
16069W        W31538  16.356   2.545  14.774 -0.1545 -0.0094 -0.2871
16070W        W31539  12.631   1.286  11.386  0.3646  0.1290 -0.2481
16071W        W31540  10.094   1.188  15.050 -0.0199  0.3508  0.0079
16072W        W31541   1.324  10.447   1.664  0.1701  0.1537  0.1677
16073W        W31542  17.344  10.008  10.442 -0.2142  0.0662  0.0195
16074W        W31543  12.695  15.551  11.713 -0.0034 -0.1027 -0.0564
16075W        W31544   7.402  11.460  12.740 -0.1053 -0.1096  0.3189
16076W        W31545  16.347   0.944  15.472 -0.0099  0.0888 -0.1912
16077W        W31546   4.691  13.139  10.586 -0.0678  0.1658  0.2930
16078W        W31547   5.332  11.815   1.202 -0.2665 -0.2320  0.2469
16079W        W31548   3.480  17.712  11.337 -0.0198 -0.1657 -0.4265
16080W        W31549   4.635   4.167   1.512  0.1638  0.0943 -0.2141
16081W        W31550   3.833   9.459   4.666  0.1657 -0.0367  0.0882
16082W        W31551   7.826   8.305   0.110 -0.0827 -0.1776  0.6188
16083W        W31552   0.697  12.504   4.772  0.1316 -0.1133  0.4337
16084W        W31553   4.114   8.947  13.487 -0.2970 -0.2684 -0.0984
16085W        W31554  17.794   0.306   1.129  0.0607  0.2394  0.0617
16086W        W31555   8.304   6.233   5.751 -0.3450  0.0204  0.0679
16087W        W31556  11.075  18.464   3.489 -0.0785 -0.0178  0.2576
16088W        W31557  11.184  17.162   3.132  0.1422  0.2922 -0.1697
16089W        W31558   2.351  16.981   3.665  0.1292 -0.1710  0.0370
16090W        W31559  10.743  13.176   1.366  0.1230  0.0969  0.1029
16091W        W31560   1.053  14.985  11.775 -0.0709  0.2205  0.0248
16092W        W31561  17.555   2.591   2.463 -0.0447  0.1437 -0.2447
16093W        W31562  13.767  16.073  12.942 -0.0448 -0.0990  0.2123
16094W        W31563   7.007   3.922   3.868  0.0058 -0.1721 -0.1017
16095W        W31564   7.693   8.596   2.544  0.0064  0.0984 -0.2026
16096W        W31565   8.218  15.758   5.679  0.0691  0.0723 -0.2792
16097W        W31566  15.431   3.624   0.006 -0.0713  0.2021  0.0374
16098W        W31567  17.153  18.362  14.621  0.0167 -0.1222 -0.0344
16099W        W31568   4.943   8.688  13.144  0.0955 -0.0931 -0.3864
16100W        W31569   7.031   3.844   0.299 -0.3382  0.0813  0.0541
16101W        W31570  12.929   9.604  11.627  0.1431  0.1950  0.2546
16102W        W31571   6.656  11.935   0.091  0.1263 -0.2041  0.0823
16103W        W31572   5.251   1.587  12.789  0.1735  0.2534 -0.2096
16104W        W31573   2.749   5.921  13.136  0.2256 -0.1278  0.2707
16105W        W31574  17.691  10.081   4.695 -0.1763 -0.0631  0.1102
16106W        W31575  18.344  16.530   6.102 -0.2009 -0.2321 -0.2752
16107W        W31576   8.575   3.534   1.639  0.0614  0.1003  0.1954
16108W        W31577  15.156  10.539   5.215 -0.2419  0.0016  0.0459
16109W        W31578   8.444   6.681   4.543  0.0169 -0.3319  0.0574
16110W        W31579   4.407  18.033   5.891  0.0653  0.1006 -0.0235
16111W        W31580   4.672  17.595  10.380  0.3121 -0.0300  0.3613
16112W        W31581  14.806  14.876  14.303  0.3959 -0.1460  0.0601
16113W        W31582   4.173   7.020   3.810  0.0941  0.0439 -0.0416
16114W        W31583  16.882   1.241   0.331 -0.1530 -0.3795 -0.1359
16115W        W31584  15.848  12.685   1.718  0.0343 -0.1522  0.1341
16116W        W31585   8.725   1.881   0.014  0.3336 -0.1512 -0.3420
16117W        W31586   6.338   3.317  14.469  0.1800 -0.1030  0.0708
16118W        W31587   8.241   3.960   4.569 -0.1246 -0.0617  0.1733
16119W        W31588  15.744   6.305   4.179 -0.3936  0.3028  0.2242
16120W        W31589   0.630   3.725   3.954  0.1302 -0.2435 -0.2264
16121W        W31590   7.218  13.540  11.808  0.5564 -0.4530 -0.0013
16122W        W31591   4.896   0.619  15.158 -0.1044  0.0076  0.0213
16123W        W31592   2.719  17.471  10.778  0.0113  0.0164  0.3379
16124W        W31593  16.667   8.088  12.318  0.2281 -0.0873  0.1846
16125W        W31594  14.722   9.917   3.118 -0.1242 -0.0902 -0.0684
16126W        W31595  16.708   3.255  13.652 -0.0422  0.1512  0.0809
16127W        W31596   0.340   7.934   2.029 -0.1889 -0.1736 -0.2096
16128W        W31597  17.000  16.716   0.600  0.0511  0.1772 -0.1872
16129W        W31598  14.848   1.143   3.815 -0.1324  0.0448 -0.0996
16130W        W31599  10.064  17.230   0.733 -0.3006 -0.1795  0.0010
16131W        W31600   0.984  11.473  12.404 -0.0001 -0.1239  0.1372
16132W        W31601   1.750  18.314   1.489 -0.0400 -0.3081  0.1115
16133W        W31602  10.270  15.267   5.182 -0.0616 -0.4438 -0.1743
16134W        W31603   8.616  18.286   0.470  0.1518 -0.1999  0.2121
16135W        W31604   8.013   0.225  13.582 -0.1689 -0.1855 -0.0788
16136W        W31605  10.734   7.504   0.892 -0.0721  0.1185 -0.0985
16137W        W31606   2.955   3.154  10.495  0.4094  0.4594 -0.0760
16138W        W31607   4.316   1.343  13.233 -0.1555  0.0179 -0.0276
16139W        W31608   7.012   4.213   2.147  0.1321  0.0084  0.1422
16140W        W31609   2.912   4.609   0.041  0.2294  0.2556  0.2431
16141W        W31610   5.036  12.148   2.342  0.0800 -0.0804 -0.3644
16142W        W31611  12.768   8.635  13.636 -0.0897  0.3006 -0.1334
16143W        W31612   1.242   1.079  13.771  0.0623  0.2093  0.0865
16144W        W31613   9.918   1.421   2.419 -0.1395 -0.0604 -0.1200
16145W        W31614   7.161   3.027   0.888  0.0559 -0.5973  0.0415
16146W        W31615   4.178   3.525  11.209  0.1878  0.4106  0.1632
16147W        W31616  14.561   9.239  15.585 -0.1841  0.3127 -0.1919
16148W        W31617  15.573   5.413  13.615  0.2167  0.2188  0.0083
16149W        W31618  17.263   1.777   5.744 -0.2166  0.4429  0.4354
16150W        W31619   7.023  13.015   4.903  0.3937  0.1012 -0.0335
16151W        W31620   8.720   6.562  11.275 -0.0161  0.0109  0.2740
16152W        W31621   0.057  13.668  13.934 -0.0667 -0.3304  0.1872
16153W        W31622   8.208   0.674  13.598  0.2232 -0.0233  0.0722
16154W        W31623  10.348  10.926  12.800 -0.2118  0.0947 -0.0927
16155W        W31624   1.080   9.447  14.482 -0.0326 -0.2916  0.3812
16156W        W31625  13.377  10.517  14.749 -0.0165  0.1219  0.3329
16157W        W31626   5.192   5.024   0.801 -0.1298  0.1526  0.0534
16158W        W31627   2.832  14.582  15.394 -0.2202  0.2123  0.0581
16159W        W31628   2.573   1.290   2.580 -0.4396  0.0633  0.0380
16160W        W31629   6.515  15.317   0.579  0.0086  0.0906  0.1018
16161W        W31630  11.554   4.759  13.982 -0.0374 -0.1740 -0.2325
16162W        W31631   4.302   4.324   4.615 -0.4331  0.0390  0.0083
16163W        W31632  16.674   4.743  12.430  0.4189  0.1834  0.1309
16164W        W31633   4.406   5.921  11.595 -0.2612  0.0974  0.3181
16165W        W31634   7.812  14.050  13.468  0.1912  0.0442  0.0340
16166W        W31635   3.070  13.642  10.268  0.2444 -0.2492  0.2946
16167W        W31636   5.927   5.507   4.114 -0.0065 -0.2976 -0.3029
16168W        W31637   6.862  16.183   5.700  0.2037 -0.0188  0.0525
16169W        W31638   6.940   9.251   3.487 -0.2632 -0.1121 -0.2463
16170W        W31639   5.776   0.825  13.657  0.1089 -0.0885  0.0895
16171W        W31640  10.523  16.397   3.260 -0.0820 -0.2519  0.2769
16172W        W31641  13.756   1.182  15.582  0.2092 -0.0112  0.0860
16173W        W31642  12.282  18.272  13.131  0.2310 -0.0819 -0.2441
16174W        W31643   4.659  16.455  12.919  0.2300  0.1869 -0.0350
16175W        W31644   2.453   6.281  11.970 -0.1519 -0.1586 -0.2536
16176W        W31645   5.001   1.493  13.378  0.1123 -0.2347 -0.0065
16177W        W31646   8.317  16.886  14.590 -0.1118 -0.1499  0.0948
16178W        W31647  16.318  12.700   0.044  0.0212  0.2364  0.1565
16179W        W31648   6.738   7.811  10.262  0.2667 -0.0419  0.0214
16180W        W31649  15.548  13.977   3.176 -0.0921 -0.0682 -0.0136
16181W        W31650  14.802   4.634  14.643 -0.0999 -0.0215  0.2416
16182W        W31651  17.190   6.079   3.712 -0.0402 -0.0792 -0.0447
16183W        W31652   9.907   4.123  13.278 -0.0252 -0.2667 -0.0285
16184W        W31653  12.208   1.776   0.090 -0.0311  0.1521  0.2029
16185W        W31654   5.382  15.595  14.760  0.1568 -0.0505  0.1358
16186W        W31655  15.946  15.575  13.355  0.0222 -0.2000  0.3965
16187W        W31656  10.390   1.286   5.702  0.1262 -0.0351  0.0738
16188W        W31657  13.614  12.546  14.037  0.0562  0.3081  0.0275
16189W        W31658   9.826  10.459   0.872  0.1359  0.1146  0.2228
16190W        W31659   6.872  11.648  15.578  0.3140  0.0851  0.0493
16191W        W31660   3.676  14.119   5.574  0.0424  0.2152  0.4508
16192W        W31661   7.095   7.613   3.702 -0.0714 -0.2160  0.0422
16193W        W31662  11.960   8.327  11.374  0.0166  0.0080  0.0577
16194W        W31663   9.786  11.765   5.949  0.1555  0.0580  0.0151
16195W        W31664  17.628   4.445   4.713  0.0223 -0.0485  0.0719
16196W        W31665   7.424   3.302  11.755 -0.0638 -0.1878  0.1555
16197W        W31666   8.057  17.519  13.236  0.0890  0.0717  0.0851
16198W        W31667   0.799   5.225   4.207  0.1605 -0.3433 -0.1515
16199W        W31668   5.087   1.365  11.220 -0.3919 -0.0786  0.0285
16200W        W31669  15.574  11.210  13.214 -0.3582  0.2572  0.0331
16201W        W31670   9.262  10.979   2.061 -0.1010 -0.0721 -0.1605
16202W        W31671  10.840  10.725  11.476 -0.0141  0.0300  0.1157
16203W        W31672  17.506   7.453  10.776  0.2097 -0.0359 -0.1614
16204W        W31673   3.608  10.868  12.173 -0.1382  0.1950  0.1289
16205W        W31674   5.074  14.710  13.924  0.0556  0.2155 -0.3604
16206W        W31675  11.476   0.688  13.783 -0.0513 -0.0617 -0.1801
16207W        W31676  14.909  10.358  14.077  0.3959 -0.0553 -0.0274
16208W        W31677  11.068   1.980  11.841 -0.1588 -0.1884  0.0680
16209W        W31678   8.307  17.742   2.797  0.0420 -0.0996  0.3448
16210W        W31679   1.566  13.807   1.517 -0.0461  0.3012  0.0504
16211W        W31680  12.362   6.613  13.614 -0.1000  0.1840 -0.3029
16212W        W31681  11.820  14.484  12.597  0.1677  0.3344 -0.3125
16213W        W31682  13.341  18.037  14.789 -0.2664  0.1305  0.1622
16214W        W31683   1.272   5.574  13.128  0.2185 -0.2858 -0.1977
16215W        W31684  14.096  15.062   2.415  0.1379 -0.3705 -0.1089
16216W        W31685   8.500   9.041   6.062 -0.2556  0.0200  0.1603
16217W        W31686  18.159   2.122   2.960  0.0877  0.1470  0.1523
16218W        W31687  18.266  18.306  15.318  0.4315  0.0017  0.2993
16219W        W31688   7.620  15.473   2.623 -0.3321  0.1176 -0.0256
16220W        W31689  11.812  16.502   6.275 -0.0227  0.0487 -0.1819
16221W        W31690   6.174  13.312   2.219  0.3929  0.0150 -0.1954
16222W        W31691   7.900  13.854  10.717  0.1244 -0.0844  0.2989
16223W        W31692  10.028   0.254  13.487  0.0299  0.2099  0.0863
16224W        W31693  12.330  15.494  14.193 -0.1729  0.1129 -0.0526
16225W        W31694  13.470   5.337  11.520  0.0073 -0.1047  0.0264
16226W        W31695   2.532   2.901   0.028 -0.2118 -0.1686  0.0098
16227W        W31696   7.843   8.424  12.765  0.2105 -0.1430  0.1302
16228W        W31697  18.601  11.190   1.130 -0.1126 -0.0716  0.2614
16229W        W31698   5.444   9.311  15.350 -0.1374  0.0839 -0.0549
16230W        W31699   9.467   5.443   3.987 -0.1056  0.0570  0.5225
16231W        W31700   8.431  11.103   2.220  0.0678 -0.0140  0.0303
16232W        W31701   3.894  18.434   3.200 -0.1389 -0.2190  0.3359
16233W        W31702  18.434   7.477  12.807 -0.0423 -0.0976  0.2552
16234W        W31703   4.607   8.183  13.263 -0.3421 -0.1780 -0.2479
16235W        W31704   4.055  13.835  14.982 -0.0892  0.1064  0.1922
16236W        W31705  15.127  15.506  13.531 -0.0897 -0.2131  0.0375
16237W        W31706   9.794   2.350   0.694 -0.2256  0.0719  0.0577
16238W        W31707  17.901  11.197  10.745  0.0382  0.0354 -0.1633
16239W        W31708  16.738  17.929  11.006 -0.1856  0.1764 -0.2173
16240W        W31709   1.858   2.489  15.609 -0.3594  0.1083  0.2948
16241W        W31710  16.089   8.674  14.244  0.0973 -0.2252 -0.1697
16242W        W31711   0.304  14.907  14.421 -0.2001 -0.1675 -0.1428
16243W        W31712  13.317  15.219   2.739 -0.0737  0.2246  0.2224
16244W        W31713   6.718   4.471   0.680 -0.1708  0.0781 -0.1543
16245W        W31714  13.355  10.328   3.445  0.1258  0.2644 -0.0167
16246W        W31715   0.122  13.550   2.331  0.2375 -0.0773 -0.2252
16247W        W31716   1.173   1.786   4.966  0.1919 -0.0610  0.2786
16248W        W31717   2.052  11.976   2.814 -0.2373 -0.1407 -0.0343
16249W        W31718   0.869   6.109   4.056 -0.0663 -0.1404  0.1347
16250W        W31719  13.763  18.316   3.574  0.0869  0.3931  0.3141
16251W        W31720  11.453   0.802  12.048  0.2961 -0.0491  0.2071
16252W        W31721   4.492   7.646  11.607  0.1703  0.1341 -0.0474
16253W        W31722  11.084  10.711  14.410  0.0632 -0.0132  0.2631
16254W        W31723  18.462   0.680   1.837 -0.4453 -0.2890  0.2086
16255W        W31724  15.621   9.486   0.144  0.2714  0.0133 -0.1640
16256W        W31725  11.559   6.069   0.659  0.0699 -0.0410  0.1792
16257W        W31726   6.830   8.155   0.171  0.3505 -0.0404  0.0709
16258W        W31727  15.519   7.789   3.652  0.0822  0.0495 -0.0599
16259W        W31728  11.376   0.396   0.917  0.1920  0.0009  0.3202
16260W        W31729  17.659   5.438   3.986 -0.0475 -0.3063 -0.1835
16261W        W31730  14.119  14.185   4.890  0.3092 -0.0691 -0.1326
16262W        W31731  10.709  15.343   3.709 -0.1465 -0.4088 -0.3395
16263W        W31732   8.418   3.041  13.787 -0.0458  0.3224  0.1906
16264W        W31733   2.679   0.489  10.689 -0.0566  0.1328 -0.2103
16265W        W31734   6.189   7.602   1.837 -0.0485  0.1640 -0.2556
16266W        W31735   6.044  11.203  13.942  0.1654  0.1529  0.0394
16267W        W31736   7.128  18.005   3.343 -0.1149 -0.1123  0.2521
16268W        W31737   6.183   2.371  10.033  0.0846 -0.1190 -0.0703
16269W        W31738   5.129  15.506   1.372 -0.2837  0.1875  0.1160
16270W        W31739  16.214   8.000  10.581 -0.1529  0.3910 -0.0373
16271W        W31740   9.783  14.317  14.972 -0.1522 -0.1802  0.0227
16272W        W31741   1.228  13.482  12.054 -0.5296  0.0626  0.0565
16273W        W31742  18.146   3.056   3.429  0.2543  0.3243 -0.2181
16274W        W31743  15.771  15.225   4.764  0.0804  0.2420  0.0332
16275W        W31744   4.858   1.827   2.400 -0.1120  0.1177 -0.3833
16276W        W31745  12.681  15.218  15.559  0.1313 -0.0144  0.1017
16277W        W31746  18.125  17.561  13.782  0.0592 -0.2839  0.4461
16278W        W31747  13.665  17.415   1.787 -0.0941  0.1073 -0.2019
16279W        W31748   0.708  15.421  13.458  0.0538  0.0131 -0.0666
16280W        W31749   2.793  13.522   3.497 -0.1707  0.2837 -0.1225
16281W        W31750  10.034  11.800  11.923  0.2150  0.0560 -0.1044
16282W        W31751  14.340   9.680   2.252 -0.2739 -0.0469 -0.0020
16283W        W31752   2.656   4.980   1.518  0.0874  0.2091  0.0638
16284W        W31753   8.935   2.859  14.868 -0.0567 -0.2738  0.0265
16285W        W31754   8.980   0.226  14.169 -0.0521  0.3516  0.1943
16286W        W31755   0.154   4.914  10.505 -0.0067 -0.1401 -0.1319
16287W        W31756  12.239   9.201  12.139  0.1036  0.2267 -0.0904
16288W        W31757   4.150   0.669  11.430  0.1482 -0.1480 -0.0779
16289W        W31758  14.684   7.780   1.209  0.2252 -0.0335  0.0927
16290W        W31759  17.976   1.504  12.134 -0.2851 -0.1531 -0.1152
16291W        W31760   9.402   6.902  13.534  0.1944 -0.2059 -0.0992
16292W        W31761   6.328   0.788   3.860  0.0339  0.0164  0.1800
16293W        W31762  16.522   7.107   2.069  0.1453  0.1303  0.0096
16294W        W31763  13.417   3.932  12.498  0.0973  0.1510 -0.2306
16295W        W31764  10.735   5.082  14.061  0.1577  0.3246 -0.4942
16296W        W31765  14.540   4.074  11.223 -0.0443  0.0112 -0.0630
16297W        W31766  16.655   5.351   0.955 -0.1216  0.1414  0.0868
16298W        W31767  10.952   2.103   1.663  0.1589 -0.1957 -0.1826
16299W        W31768   2.899  11.461  13.000 -0.1214 -0.3029  0.0820
16300W        W31769   6.632  12.946   1.535 -0.2076  0.0955 -0.1677
16301W        W31770  12.590   3.014   4.741  0.0999  0.0903 -0.1514
16302W        W31771   7.635   2.378  15.580  0.0139  0.0427 -0.2509
16303W        W31772   6.024   8.777  13.817 -0.4266  0.0711  0.1978
16304W        W31773  11.128  14.535   3.868 -0.0488 -0.0635  0.0928
16305W        W31774   0.415  12.809   3.167  0.1070  0.2175  0.0773
16306W        W31775   9.389  12.526   4.783 -0.2495  0.0144 -0.1167
16307W        W31776   9.890  14.862   2.555 -0.0036 -0.2101  0.0195
16308W        W31777   2.260   0.273  10.489 -0.4050  0.0736 -0.1535
16309W        W31778  16.888   2.069  11.689  0.3018 -0.1359 -0.3024
16310W        W31779   3.981  13.804   0.176 -0.3176  0.3619  0.2713
16311W        W31780  11.508   9.163  15.148 -0.2312  0.2082  0.0732
16312W        W31781   3.493  12.768  11.295  0.1082 -0.4590  0.0721
16313W        W31782  15.572  17.841  13.040 -0.2830  0.0087 -0.0718
16314W        W31783   4.687   7.485   3.453 -0.0274  0.1654 -0.0174
16315W        W31784  15.772   5.767  10.764 -0.2548  0.2247 -0.2143
16316W        W31785   8.682   2.813   2.756  0.1081 -0.0279  0.2452
16317W        W31786   9.386  10.586   2.968 -0.0660  0.1459 -0.2037
16318W        W31787   6.963  17.501   1.668  0.0388  0.2074 -0.1236
16319W        W31788   2.481  12.081   0.087  0.1754 -0.0088  0.2500
16320W        W31789  16.852  17.755  11.462 -0.0861 -0.0249  0.3857
16321W        W31790   7.151   8.262  14.749  0.2753  0.2237  0.1740
16322W        W31791  10.867  11.713  13.725  0.0088 -0.0738 -0.1754
16323W        W31792   7.215   9.736   4.050  0.0337  0.0536 -0.0592
16324W        W31793   5.885  17.761  11.335  0.0907 -0.0836  0.0007
16325W        W31794   8.448  16.329   4.688  0.0624  0.1850 -0.1364
16326W        W31795   9.222   3.130   3.731 -0.3644 -0.0032 -0.0647
16327W        W31796  12.203  16.722   0.003  0.2387  0.2248  0.2404
16328W        W31797  10.774   2.856  14.935 -0.0521 -0.1171 -0.0903
16329W        W31798  16.377  11.384   1.603  0.2143 -0.1795 -0.0317
16330W        W31799  10.472  17.067  14.665 -0.0712  0.4195  0.0270
16331W        W31800  10.476   2.926   5.041  0.0925 -0.1288  0.0418
16332W        W31801   9.239   4.207  15.064  0.2098 -0.1191  0.2472
16333W        W31802  10.951   6.133  11.374  0.3616  0.2222 -0.0286
16334W        W31803  17.930  10.624  10.788 -0.1313 -0.4286 -0.1178
16335W        W31804  10.213  10.028   9.717  0.0403 -0.0032  0.0647
16336W        W31805  12.134   9.245  12.642 -0.0313 -0.0234  0.2563
16337W        W31806  13.334   6.739   1.676  0.1586  0.0763 -0.3520
16338W        W31807  14.688  16.488  13.971 -0.1483 -0.0065  0.0625
16339W        W31808   0.365   5.523   1.953  0.1143  0.4032  0.1597
16340W        W31809  12.109   7.763  12.118  0.1520  0.2104 -0.3898
16341W        W31810   0.880   5.828   0.193 -0.2881  0.0565  0.1289
16342W        W31811   0.332   8.676   3.756 -0.0596 -0.2350 -0.1399
16343W        W31812   4.118   6.972  15.205 -0.1120  0.0081 -0.2143
16344W        W31813  15.204   8.065   5.110 -0.1321  0.1594  0.0479
16345W        W31814  11.261   2.499   0.540  0.2696 -0.1527 -0.0331
16346W        W31815   3.577   9.205   3.057 -0.0592 -0.1209 -0.0872
16347W        W31816  10.775   0.489   2.621  0.2886 -0.0733  0.0574
16348W        W31817   5.072  12.968   5.872  0.0561  0.2804 -0.0493
16349W        W31818  10.864  17.024   1.151 -0.1593 -0.0038 -0.0090
16350W        W31819  12.328  18.460  11.965  0.0034 -0.1773  0.0802
16351W        W31820  10.458   4.713  14.812 -0.0287  0.1758  0.3230
16352W        W31821   8.333  12.264   1.890 -0.1046  0.0266 -0.0728
16353W        W31822   6.581   6.423   1.843  0.0755 -0.0589  0.2138
16354W        W31823   6.191  14.114   0.217  0.2225  0.2850 -0.0269
16355W        W31824  13.368   6.632   3.478 -0.0667  0.1288  0.0310
16356W        W31825  10.414   6.248  12.163 -0.0904  0.1396  0.2177
16357W        W31826   9.071  17.354  14.678  0.1464 -0.1349 -0.0429
16358W        W31827   6.115   9.451  11.549  0.1797 -0.0428  0.0256
16359W        W31828  12.521   2.361   3.064  0.1400  0.0794 -0.1431
16360W        W31829  18.414   0.335  10.469  0.1441  0.1486  0.0559
16361W        W31830  13.177  12.455   3.558 -0.3233 -0.1306  0.1080
16362W        W31831   4.780   0.788   4.089 -0.0576  0.1860 -0.1520
16363W        W31832   0.072  14.054  14.238  0.3902  0.1748  0.2763
16364W        W31833  14.838  17.708  12.808 -0.0549  0.0634  0.0684
16365W        W31834  16.204  10.946   5.177  0.0630 -0.2419 -0.1725
16366W        W31835  18.056   8.297   3.095 -0.2633 -0.0764 -0.1593
16367W        W31836  10.856   9.759  10.626  0.0996  0.3504  0.1397
16368W        W31837  13.287  17.755  12.949  0.0445 -0.1784  0.2021
16369W        W31838   9.843  10.876   1.144 -0.2727  0.0210  0.2051
16370W        W31839  16.672   7.910   1.351 -0.2780  0.1719 -0.0738
16371W        W31840  17.157   4.053   3.509 -0.0039 -0.2157  0.0106
16372W        W31841   9.611  15.542   2.685 -0.0263  0.2266  0.0707
16373W        W31842   7.663  17.639   0.086  0.0545  0.0702 -0.0868
16374W        W31843  13.665  13.426   3.306  0.0201  0.3702  0.2424
16375W        W31844  15.061  16.027   3.670  0.2989  0.0069 -0.0734
16376W        W31845  15.198  12.144  11.296  0.3929 -0.0475  0.1323
16377W        W31846   7.945  15.832  11.388  0.0061  0.1123  0.0937
16378W        W31847   5.888  13.008  11.921 -0.1276 -0.2431  0.0004
16379W        W31848  16.486  13.310  14.243 -0.0644  0.0024 -0.1465
16380W        W31849  17.398  18.033   3.565 -0.3123 -0.1336 -0.0181
16381W        W31850   6.201  12.310   0.277  0.3349  0.2561  0.0335
16382W        W31851   4.445   4.181  14.708 -0.1279 -0.1728  0.1415
16383W        W31852   2.333  11.020   3.752  0.0029 -0.1996  0.1799
16384W        W31853  15.972  14.392  11.991 -0.0276  0.0698 -0.0458
16385W        W31854  17.409   8.164  11.676  0.0593 -0.3511 -0.0375
16386W        W31855  12.032   3.325   1.949 -0.2986 -0.1757 -0.1990
16387W        W31856  17.060   7.076   1.499 -0.0397  0.1988 -0.1447
16388W        W31857   3.422   2.856   0.441  0.1694  0.2937  0.1133
16389W        W31858   2.241   0.885  14.430 -0.1259 -0.1097 -0.1824
16390W        W31859  18.352  15.163  12.884 -0.1543  0.0624 -0.2621
16391W        W31860   7.780  10.061  15.232 -0.1477 -0.0035 -0.3762
16392W        W31861   2.594   0.134   2.971  0.0467 -0.0244 -0.1408
16393W        W31862  13.144   7.264  14.659 -0.1262 -0.1295  0.0633
16394W        W31863  14.284   5.766  14.864  0.0464  0.0038 -0.0778
16395W        W31864  18.318  16.096  11.953 -0.0316  0.3557 -0.1007
16396W        W31865   9.549  15.815  15.581 -0.3601  0.3092  0.0531
16397W        W31866  13.664  10.321   4.941  0.2382 -0.0784 -0.0916
16398W        W31867   0.409  15.272   5.691 -0.0347  0.0550 -0.0052
16399W        W31868   4.407  11.153  12.418 -0.0536  0.4484  0.1338
16400W        W31869  12.108   3.251  10.485 -0.0422 -0.0997 -0.3215
16401W        W31870   1.289  12.262  12.825 -0.1627  0.0172  0.0693
16402W        W31871   7.574   7.779   1.174 -0.1597  0.2795  0.0729
16403W        W31872   9.172   5.664   2.457 -0.1807  0.0082 -0.0494
16404W        W31873  13.656   2.463   6.137 -0.0615  0.3151 -0.1846
16405W        W31874  17.404   9.125   1.926  0.1789  0.2323 -0.0345
16406W        W31875  15.734  11.225   2.878  0.0588  0.2619  0.1053
16407W        W31876   3.876   7.883   1.179  0.0062  0.2549 -0.3500
16408W        W31877  14.991   3.248   3.923 -0.5727  0.2353  0.2626
16409W        W31878   4.253   8.507   0.351  0.1775  0.1966  0.0378
16410W        W31879   3.592  14.052  15.689  0.3690 -0.3731 -0.0562
16411W        W31880  11.885  18.305  15.039  0.1192 -0.1034  0.0645
16412W        W31881   8.158  18.331   2.809  0.1935 -0.3301 -0.0808
16413W        W31882   5.650   5.451   2.290  0.1245 -0.1257  0.3034
16414W        W31883  10.081   1.589  15.480  0.0740 -0.1046  0.0361
16415W        W31884   2.045  12.763  11.211 -0.0668 -0.2313  0.0254
16416W        W31885  14.771   2.039  11.478 -0.1413  0.1078 -0.0075
16417W        W31886  14.937  10.310  14.617  0.3571 -0.1847 -0.0058
16418W        W31887   2.811  11.623   4.294  0.1846  0.0758  0.2858
16419W        W31888   8.095  15.876  12.228 -0.1505 -0.0293 -0.0104
16420W        W31889   4.759   6.009   1.313 -0.2865 -0.0786 -0.1717
16421W        W31890   0.385   6.676  11.975 -0.0771  0.3609 -0.3716
16422W        W31891  17.509  16.030   0.164 -0.2091  0.0240 -0.1588
16423W        W31892  13.811  11.691   0.261 -0.1262 -0.0017  0.1695
16424W        W31893   6.964   7.436   4.249 -0.2733  0.2206 -0.1208
16425W        W31894   7.485   3.931   5.349  0.3610  0.1686  0.0631
16426W        W31895  12.069   5.404  13.651  0.4851  0.1154 -0.5169
16427W        W31896   8.320   7.778   2.451 -0.2301  0.0536  0.1114
16428W        W31897   3.657   5.335   3.078 -0.0840  0.0016 -0.1941
16429W        W31898  17.706  16.252  11.876  0.2804 -0.0068  0.2717
16430W        W31899   7.760   9.266  12.815 -0.2923 -0.0017  0.0536
16431W        W31900   6.821  11.070   0.716  0.1566 -0.1230  0.4075
16432W        W31901   2.720  16.564  12.020 -0.2274 -0.1775 -0.2225
16433W        W31902  11.466   3.748   3.563  0.1139  0.2085  0.1725
16434W        W31903  13.757   7.883   3.554 -0.2736  0.0297  0.4203
16435W        W31904  15.416  16.598   6.402 -0.0587 -0.1348 -0.0837
16436W        W31905   8.107   8.119   3.666 -0.0206 -0.0429  0.0386
16437W        W31906  16.671  17.355   0.506 -0.2910  0.1667 -0.2246
16438W        W31907  14.186   9.905  13.826 -0.1879 -0.0048 -0.0496
16439W        W31908   7.942   5.950  15.591  0.2352 -0.4184 -0.0479
16440W        W31909  14.370  17.378   1.512  0.3103 -0.0489  0.1615
16441W        W31910   6.849   7.453  13.065  0.2486 -0.0759  0.1830
16442W        W31911   9.361  16.664   1.630  0.0358  0.2553  0.0465
16443W        W31912   1.021  16.256   1.697 -0.0799 -0.0779 -0.0305
16444W        W31913  13.438  18.396   1.439 -0.0104  0.0682 -0.0507
16445W        W31914  16.202  18.479  14.194 -0.0401  0.0320 -0.0753
16446W        W31915  11.546  13.948  13.819  0.0105 -0.3576 -0.2436
16447W        W31916   4.605   8.432  15.716  0.2259  0.0789 -0.1703
16448W        W31917  14.765   9.543   2.342  0.0908  0.5620 -0.0839
16449W        W31918  16.598  14.562  10.115  0.1784 -0.0004 -0.1629
16450W        W31919   2.956  10.050  14.130 -0.3931  0.0814  0.0320
16451W        W31920   8.939   6.574   5.476 -0.0030  0.1575 -0.0685
16452W        W31921   9.130   0.739  12.808 -0.2827  0.0591  0.1620
16453W        W31922  15.614   9.262   0.855 -0.0473 -0.0943 -0.1750
16454W        W31923   0.696   9.311   0.946 -0.0649 -0.1811  0.2124
16455W        W31924   5.710   0.121   0.043  0.2772 -0.0970  0.3369
16456W        W31925   7.949  10.656  11.731 -0.1314 -0.3207 -0.0838
16457W        W31926   2.496  15.809  13.706  0.1802 -0.1632 -0.2885
16458W        W31927   7.897   5.582   1.527 -0.0586 -0.0595  0.0823
16459W        W31928   9.795  13.302   4.681  0.1793 -0.0637 -0.0643
16460W        W31929   1.007  12.148   3.589  0.3517  0.1022  0.2461
16461W        W31930   2.464   0.974   0.519  0.0725  0.1540 -0.0042
16462W        W31931  18.105   3.026   2.092 -0.3125 -0.1918 -0.1632
16463W        W31932   7.448   4.429   0.784 -0.0520  0.1551  0.1304
16464W        W31933   9.800   3.613  12.582 -0.1698  0.3997 -0.2244
16465W        W31934  11.800   2.904   5.526 -0.1290 -0.1923 -0.2177
16466W        W31935   4.494  13.016   4.968 -0.0182  0.1476  0.0404
16467W        W31936   1.973  16.614   2.628  0.0228 -0.0534  0.1875
16468W        W31937   0.361   7.433   2.885  0.3483 -0.2999  0.1485
16469W        W31938  14.321   3.627   2.791 -0.3763 -0.0660  0.0606
16470W        W31939  13.701   3.915  11.646  0.1230  0.0573 -0.3386
16471W        W31940  11.395   3.246   4.649 -0.0632 -0.1739 -0.0923
16472W        W31941  13.034  12.537   3.125  0.1314 -0.0845 -0.1357
16473W        W31942   2.534   7.986   0.216  0.0537  0.4695  0.1696
16474W        W31943   6.543  12.007   4.321  0.0290 -0.2450  0.0314
16475W        W31944  14.253  16.396  15.468 -0.0807  0.0020  0.0350
16476W        W31945  17.548  14.857   1.624 -0.4054 -0.4401 -0.1061
16477W        W31946   1.844   8.978   2.614 -0.1369 -0.2571  0.1930
16478W        W31947  10.104  15.686   4.956  0.0082 -0.0720  0.0369
16479W        W31948  15.479  17.146   3.019  0.0927  0.1747  0.3025
16480W        W31949  14.842  17.906   5.153 -0.1040 -0.1077 -0.3288
16481W        W31950   7.796   9.618  15.422  0.0650  0.4248 -0.1274
16482W        W31951   4.024   1.945   4.350 -0.0019  0.0039 -0.2423
16483W        W31952   8.541   7.433  13.177  0.2822  0.1730  0.2083
16484W        W31953   5.965  13.240   3.331  0.0031 -0.1016  0.0425
16485W        W31954   2.607   6.229   5.371 -0.1383  0.0069 -0.1198
16486W        W31955  15.909  18.072   1.282 -0.3418  0.0937 -0.1078
16487W        W31956   3.652   6.804   3.754  0.0604  0.1112 -0.1284
16488W        W31957  14.683   2.110  15.200  0.0098  0.4433 -0.1303
16489W        W31958   3.102   2.354  12.926  0.1001  0.1109 -0.1629
16490W        W31959   8.121  12.718   1.675  0.1725  0.0114  0.2835
16491W        W31960   9.303  18.600  13.854  0.1235  0.2310 -0.0416
16492W        W31961   4.705  12.914   1.329  0.0330  0.0579  0.2812
16493W        W31962   9.868  17.821  14.298  0.3165 -0.1365 -0.0328
16494W        W31963  13.522   1.069   3.056  0.0426  0.0192  0.0856
16495W        W31964   1.811  17.849  12.844  0.0620 -0.0751 -0.0396
16496W        W31965  15.181   2.050  10.282 -0.0291  0.1858  0.4075
16497W        W31966  11.225  10.763   2.530 -0.3922  0.0402 -0.1711
16498W        W31967  12.753   3.194  13.263  0.3152  0.0555 -0.0118
16499W        W31968  11.063  12.896   0.034 -0.1565 -0.1654  0.0050
16500W        W31969  14.805   8.412   5.090  0.0126 -0.1389  0.2215
16501W        W31970  17.585   7.477  12.132 -0.2176  0.0144  0.3041
16502W        W31971   8.357   7.567   5.952 -0.0156  0.0769  0.0289
16503W        W31972   8.715  12.233  15.073 -0.0609 -0.0226  0.2411
16504W        W31973  17.542   5.244  12.604 -0.1521 -0.2718 -0.1470
16505W        W31974  10.870  18.020   4.950  0.3032  0.1162 -0.0074
16506W        W31975   5.643  12.171   0.945  0.0291  0.1461  0.0611
16507W        W31976   2.742   2.729   2.560  0.2194  0.1248  0.1987
16508W        W31977   1.395   4.192   5.413 -0.2017  0.0189 -0.0282
16509W        W31978  11.942  16.008   4.251 -0.0067 -0.2073 -0.4924
16510W        W31979  15.282  15.083   0.769  0.1451 -0.1901  0.0323
16511W        W31980   1.198  15.310  12.161  0.0815 -0.0312  0.2190
16512W        W31981   7.496  10.833   4.509  0.1012 -0.3130  0.1697
16513W        W31982  15.832   5.758  13.034 -0.1271 -0.0439 -0.0005
16514W        W31983   7.620   1.069  12.525 -0.1457  0.0914 -0.0108
16515W        W31984   5.926  15.247  13.968 -0.1237 -0.2835 -0.0149
16516W        W31985   2.399   7.134   4.838 -0.2880 -0.1377 -0.1907
16517W        W31986   1.797   3.744  10.377 -0.3838  0.2694 -0.0778
16518W        W31987  11.915  12.508  10.560  0.0920  0.3087  0.1155
16519W        W31988   1.854   3.187  14.263  0.0028 -0.1056  0.1051
16520W        W31989  12.124  12.680  14.552  0.3035 -0.1834 -0.1689
16521W        W31990  13.250  11.111   4.903 -0.1343  0.0757 -0.0284
16522W        W31991   7.604  13.429   4.584  0.0010 -0.1830  0.0507
16523W        W31992  13.977  14.190  12.503  0.3544 -0.0412  0.0458
16524W        W31993   9.151  14.757  13.838  0.0331  0.1628  0.0982
16525W        W31994   7.245   6.601  12.666  0.1836 -0.2032  0.3165
16526W        W31995  15.283  10.217   2.241 -0.0389 -0.1022 -0.4796
16527W        W31996   6.476   1.568   5.960  0.1061  0.2844  0.3147
16528W        W31997   4.053   4.654   1.506  0.0058 -0.1722  0.0102
16529W        W31998   5.573   3.758   3.948  0.0621 -0.1523 -0.0733
16530W        W31999  17.303   0.620  10.825  0.2084  0.2479 -0.1175
16531W        W32000   0.111   6.694  14.711 -0.0125  0.0102 -0.1456
16532W        W32001  14.366   9.802  13.222 -0.3552 -0.0974 -0.1103
16533W        W32002   3.626   0.734  14.649  0.1519 -0.0870  0.4097
16534W        W32003   6.599   8.377   1.549  0.0252  0.1935  0.0947
16535W        W32004  17.635   8.600  11.392 -0.1361  0.0789  0.1757
16536W        W32005  16.659   7.773  12.672 -0.0238  0.3069  0.3779
16537W        W32006  13.719  15.760   4.543  0.1707 -0.1394 -0.0411
16538W        W32007  16.677  14.971   0.009 -0.3010  0.0660 -0.0393
16539W        W32008  15.048  18.445  13.441  0.1692  0.2949 -0.1593
16540W        W32009   9.796   3.176   4.467 -0.1314 -0.0376 -0.2527
16541W        W32010   0.884   5.636  13.485 -0.0964 -0.0335 -0.1633
16542W        W32011  18.112  16.784   4.177 -0.0930  0.2570  0.1883
16543W        W32012   8.351   2.236  12.080 -0.3444 -0.2985  0.2863
16544W        W32013   2.851   6.732   2.908 -0.0493  0.3676 -0.0398
16545W        W32014  16.303   3.449  15.216  0.0008 -0.0513 -0.2244
16546W        W32015   3.832  13.223   0.391 -0.0259 -0.2493  0.1541
16547W        W32016   5.693   8.023  15.244 -0.0308  0.1398  0.0322
16548W        W32017  12.827  17.190  15.414 -0.0142 -0.2545 -0.1547
16549W        W32018  14.281  14.899  14.485  0.1425 -0.1430 -0.4634
16550W        W32019   9.102  11.971   0.641 -0.1720  0.2535 -0.0379
16551W        W32020   2.726   3.326  12.342  0.1487  0.2256 -0.1197
16552W        W32021   9.877   9.156   1.223  0.2388  0.2061  0.1212
16553W        W32022   9.407   5.236  12.816 -0.2657 -0.3086  0.0581
16554W        W32023  12.834   0.348  13.812  0.0491 -0.0869 -0.3268
16555W        W32024  17.393  12.856   5.493  0.0949  0.4551 -0.1061
16556W        W32025  14.477   6.244   4.552 -0.0987  0.0558  0.0175
16557W        W32026   2.646   8.992   0.465  0.1101  0.0618  0.2730
16558W        W32027   9.622   9.670  14.241  0.0981  0.0017  0.0838
16559W        W32028  12.623  13.771  11.291  0.0470 -0.1799 -0.1478
16560W        W32029  10.491  15.185  12.273 -0.1624  0.1699 -0.1772
16561W        W32030  12.648  11.749   3.951 -0.3265 -0.2064 -0.3155
16562W        W32031  10.330  11.561   0.541  0.0656  0.3662  0.3442
16563W        W32032   5.789  18.154   2.705 -0.2209  0.2551  0.1512
16564W        W32033  17.952  15.648  11.677 -0.0225  0.1527 -0.2995
16565W        W32034   8.678  12.394   4.771  0.2669  0.0312 -0.0799
16566W        W32035  14.595   8.787  13.543  0.1081  0.2024  0.1773
16567W        W32036   0.372  10.450  13.369  0.1248  0.0484 -0.0260
16568W        W32037   0.443  14.781   0.094  0.1176  0.1478 -0.0370
16569W        W32038   3.967   7.783   2.995  0.0467  0.1558 -0.1483
16570W        W32039   8.665   3.770   3.824 -0.0030  0.0753  0.3419
16571W        W32040  17.560   9.141  11.477  0.1201 -0.1619 -0.0152
16572W        W32041   5.790   2.240  14.480  0.1524 -0.3645 -0.0356
16573W        W32042  10.461  16.318   2.755 -0.0747 -0.1263  0.1243
16574W        W32043   3.423  13.084  12.579  0.0592 -0.3165  0.2908
16575W        W32044  12.675  12.603   1.483  0.0832 -0.1883  0.0802
16576W        W32045  14.665   0.463   1.534 -0.0535  0.1614 -0.2732
16577W        W32046   6.170  18.406   2.909  0.0065 -0.0359 -0.0192
16578W        W32047  10.256  12.817   1.962 -0.1128  0.0352 -0.0927
16579W        W32048   2.031  10.382   4.286 -0.0647 -0.1952  0.1927
16580W        W32049  13.372  13.309  14.261  0.0499  0.2744  0.0093
16581W        W32050  13.014   8.335   1.670  0.0653 -0.1713 -0.3317
16582W        W32051   9.566  17.112  13.039 -0.0051 -0.2500  0.1221
16583W        W32052   4.911   3.263  13.239  0.0257 -0.0744 -0.0732
16584W        W32053   4.200   5.486  15.753  0.2529 -0.1704  0.4066
16585W        W32054  10.752  16.455   3.705 -0.2566  0.0604  0.0090
16586W        W32055   9.651  15.060  14.459 -0.3023  0.1816 -0.0376
16587W        W32056   4.110   6.838  11.620 -0.0427 -0.0515 -0.0564
16588W        W32057   7.380   5.610  14.771  0.1025 -0.2995  0.0621
16589W        W32058   3.150   4.574  11.776 -0.2695 -0.1169  0.1514
16590W        W32059  16.659   0.128  13.520 -0.1297  0.1821  0.2144
16591W        W32060  13.436   5.414  13.194 -0.0232 -0.0192  0.4292
16592W        W32061   1.903  14.631  14.355 -0.0764 -0.2523 -0.1256
16593W        W32062  17.773  12.509   4.292  0.1248  0.4896  0.1117
16594W        W32063   1.190  13.774  15.169 -0.0451 -0.1406 -0.3326
16595W        W32064  14.950  10.319   1.618 -0.0965 -0.1162  0.0818
16596W        W32065   5.650  13.970   2.135 -0.0081  0.0427  0.1182
16597W        W32066   8.551  13.640  13.520  0.0493  0.0755 -0.0770
16598W        W32067   3.847  10.951   4.908  0.4026 -0.3411  0.0974
16599W        W32068  18.303   1.388  11.577 -0.1728 -0.2574 -0.1496
16600W        W32069  11.503   7.328  14.573  0.1164 -0.0989  0.2015
16601W        W32070  13.301  13.435  13.151 -0.0375 -0.0960 -0.1063
16602W        W32071  14.972   3.428  13.895 -0.1172  0.2057  0.3065
16603W        W32072  18.016   3.159  14.347 -0.0831 -0.1714 -0.0595
16604W        W32073   6.299   8.159  13.379  0.2344 -0.1111 -0.0447
16605W        W32074  15.222  14.192  13.947  0.2102  0.0451 -0.0504
16606W        W32075  14.444   4.401   5.295 -0.1833 -0.5266 -0.3907
16607W        W32076   5.506   6.623  15.400 -0.0225  0.2212  0.1790
16608W        W32077   9.763   2.863   0.925  0.1421  0.1195 -0.2459
16609W        W32078   7.481  16.870  13.023 -0.0563  0.4569  0.0629
16610W        W32079   7.214  16.619  11.455  0.1932 -0.1878 -0.2957
16611W        W32080   0.433  16.225  14.781 -0.0513  0.2959  0.4403
16612W        W32081  14.570   7.103   5.001  0.4970  0.1935 -0.1350
16613W        W32082  13.552  17.563  14.629 -0.0164  0.1013  0.0843
16614W        W32083   5.552   1.719   5.393  0.1273 -0.1085 -0.0182
16615W        W32084   9.124  18.170   0.443  0.0832 -0.0762  0.2455
16616W        W32085  15.739  10.188  13.156 -0.3862 -0.1011  0.1784
16617W        W32086   0.427   3.869   1.476 -0.0389  0.2287 -0.2626
16618W        W32087   5.193   5.191  12.572 -0.0239 -0.1317  0.0822
16619W        W32088   7.365  12.376   4.281 -0.0390  0.2848  0.0241
16620W        W32089   6.430  15.649  15.500 -0.0389  0.1674  0.4722
16621W        W32090   9.708  10.678  10.746 -0.0996  0.0201 -0.2638
16622W        W32091   2.250   9.031   1.550 -0.0296  0.2548  0.0315
16623W        W32092   6.435   8.817   3.359 -0.1041 -0.0224  0.2987
16624W        W32093  10.453  15.566   3.373  0.0617  0.1832 -0.2490
16625W        W32094  18.414  10.880  13.278 -0.1451  0.0059  0.0124
16626W        W32095   6.223   8.842   4.239  0.0351 -0.0684 -0.2496
16627W        W32096   5.287  18.471  10.991 -0.0016 -0.2239 -0.2207
16628W        W32097   2.861  13.139  14.726 -0.0233 -0.0201  0.0804
16629W        W32098   2.503  13.717   4.540 -0.0461  0.0591  0.2397
16630W        W32099   6.426   2.051   2.619  0.1306  0.0607  0.0323
16631W        W32100   8.335   0.491  11.455 -0.3492  0.2040  0.2090
16632W        W32101  18.281   2.641  14.833  0.0350  0.1032  0.1467
16633W        W32102  16.304   0.501   1.744 -0.0123  0.1307 -0.0856
16634W        W32103  11.599   1.398  15.538  0.1337  0.2980 -0.1202
16635W        W32104   8.322  12.300   5.152  0.1231  0.3229  0.1425
16636W        W32105  13.762  10.019  14.187  0.0257 -0.1973 -0.1220
16637W        W32106  15.125  12.461  14.608  0.1983  0.0029  0.1943
16638W        W32107  12.034  14.908   0.455  0.0656 -0.3473  0.2448
16639W        W32108  10.128  15.492  15.567  0.1551 -0.0080 -0.2638
16640W        W32109   1.468   5.522   3.968 -0.0630 -0.3701  0.0120
16641W        W32110   3.396  18.259   6.086 -0.0656  0.0092  0.0147
16642W        W32111  15.752  16.400   3.909 -0.2511 -0.1586  0.0384
16643W        W32112  10.891  18.430   5.213 -0.1116  0.0822 -0.2094
16644W        W32113  16.682  11.910  10.698 -0.3532 -0.1541  0.1477
16645W        W32114   3.541  18.303  15.714  0.0803 -0.2779  0.3303
16646W        W32115  17.147   7.919   4.053  0.0859  0.1882  0.2899
16647W        W32116   0.537   1.201  14.608 -0.0395  0.0587 -0.5366
16648W        W32117   1.731   5.519   4.374 -0.3606 -0.2406  0.0541
16649W        W32118  12.238  11.162   0.605  0.1139 -0.1282  0.3295
16650W        W32119  13.153  11.307   5.439 -0.1897 -0.0970  0.1850
16651W        W32120   3.826   5.107  11.992  0.0239 -0.3013  0.1805
16652W        W32121  16.197   0.082   2.071  0.3744  0.0887  0.0161
16653W        W32122   4.446   3.661   1.374 -0.1325 -0.3664 -0.0107
16654W        W32123  14.355   9.930   1.131 -0.0995 -0.2551 -0.1300
16655W        W32124  10.457   0.862   1.131  0.1778  0.1431 -0.0119
16656W        W32125   7.623   6.689  10.323 -0.0724 -0.1275 -0.0003
16657W        W32126  14.203   9.200  12.099 -0.0404  0.2421  0.0087
16658W        W32127   2.995   6.963   0.526  0.2295 -0.0158  0.0632
16659W        W32128  18.404   4.222   0.377  0.2198 -0.1588 -0.0013
16660W        W32129  14.065   0.622  12.968  0.3189 -0.2008 -0.0388
16661W        W32130   9.408  15.790   3.490 -0.2620  0.0093  0.0279
16662W        W32131  18.067   4.136   4.141  0.1539  0.0174 -0.5691
16663W        W32132  10.102  14.025  13.573 -0.2128 -0.0139  0.2722
16664W        W32133   1.847   6.066   0.659  0.3064 -0.0714  0.2068
16665W        W32134   8.333   4.465  13.052 -0.0872  0.0553  0.1638
16666W        W32135   5.482  10.325  12.837 -0.1154  0.3110  0.0835
16667W        W32136   7.742  15.586  15.251  0.0863  0.1158 -0.2379
16668W        W32137   9.078  18.403   1.872 -0.0068 -0.0103  0.1143
16669W        W32138  12.318  16.354   0.473 -0.1385 -0.1096  0.2561
16670W        W32139  16.824   7.334   3.483  0.0660 -0.1248 -0.1405
16671W        W32140   9.508  12.834   0.408  0.0492 -0.1051  0.0628
16672W        W32141  11.729   1.351   1.602 -0.3103  0.0372  0.2309
16673W        W32142  11.722   6.487   2.059 -0.0560  0.1044 -0.0600
16674W        W32143  15.393   9.245  12.966  0.1785 -0.2794 -0.0144
16675W        W32144  18.409  16.991   3.856  0.0131 -0.0091  0.2754
16676W        W32145   4.006   8.044   3.629 -0.1521  0.1620  0.0302
16677W        W32146  16.672   2.508  13.829 -0.0171  0.1923  0.2962
16678W        W32147  13.297  10.824  13.216  0.2712 -0.1023 -0.1053
16679W        W32148  18.435  18.222  13.499  0.3067 -0.1355  0.1546
16680W        W32149  11.795   3.649   4.697  0.1786  0.0989  0.1809
16681W        W32150  17.658  14.865   0.072 -0.3108  0.0781  0.3927
16682W        W32151  10.604   4.749  15.613 -0.0138 -0.3597 -0.2152
16683W        W32152  10.557   5.728  14.101  0.0806  0.2326  0.1452
16684W        W32153   1.158  15.617  13.226  0.0928  0.1147  0.0146
16685W        W32154   6.270   0.383  14.163  0.0107 -0.3213 -0.0264
16686W        W32155   4.672   2.215  14.478 -0.2194 -0.0826 -0.0068
16687W        W32156  13.127   1.914   1.203 -0.1009 -0.2581  0.0387
16688W        W32157  13.602  10.763   2.543 -0.1783  0.0268 -0.2903
16689W        W32158   0.491   6.228   3.706 -0.3273  0.3767  0.2961
16690W        W32159   5.158  11.908   3.851  0.0574  0.0578 -0.2091
16691W        W32160  10.030  11.679  12.438  0.1521 -0.3789 -0.0716
16692W        W32161   5.406  10.357   0.301  0.1695  0.3853 -0.2005
16693W        W32162  14.134   8.314  11.719  0.2718 -0.0998  0.0990
16694W        W32163  11.721  11.724   2.407  0.4505 -0.0449  0.2149
16695W        W32164  14.280  13.612  14.658 -0.0205 -0.0762 -0.0541
16696W        W32165   1.167  17.668   9.562 -0.0031 -0.1411 -0.0468
16697W        W32166   8.838  11.900  15.537 -0.4475 -0.2224  0.3439
16698W        W32167   2.682  16.723  13.573  0.0310 -0.1819  0.0945
16699W        W32168  16.637   6.229   1.587  0.2090 -0.0565  0.2111
16700W        W32169   8.658   4.990   0.640  0.1233  0.2178  0.2397
16701W        W32170   2.006   4.852   3.618 -0.0331 -0.0909 -0.1913
16702W        W32171   5.558   7.645   1.198  0.1868  0.0522  0.0262
16703W        W32172   3.177  13.473  10.859 -0.2934 -0.2533  0.1983
16704W        W32173   8.045  13.392   2.390  0.0234  0.0444  0.0716
16705W        W32174   8.714  14.504   3.561 -0.2074 -0.2434  0.3396
16706W        W32175   3.344  16.871   5.836  0.0522 -0.0591  0.0341
16707W        W32176  15.517   1.961   5.270 -0.0771  0.0017  0.1516
16708W        W32177   1.013   6.677  10.223 -0.3339 -0.0796 -0.1147
16709W        W32178  17.575  12.814  14.238 -0.1635  0.2566 -0.1577
16710W        W32179   7.515   8.458   3.035 -0.3081  0.1277 -0.0701
16711W        W32180  10.904  16.954  15.651  0.2036 -0.1148 -0.0022
16712W        W32181  13.353   4.659   3.322 -0.3911  0.0297 -0.0036
16713W        W32182   8.588  15.096  11.008 -0.0104 -0.0864  0.1861
16714W        W32183  18.016   7.558  10.588 -0.2747 -0.0414 -0.0658
16715W        W32184   3.946  10.041   1.535 -0.1100  0.0893 -0.2035
16716W        W32185  10.244   9.994   3.737 -0.0360 -0.1357  0.0002
16717W        W32186   3.287   3.409   0.409  0.0866 -0.0363  0.1784
16718W        W32187   4.017  11.429   3.432  0.0338 -0.3485 -0.0059
16719W        W32188  17.223  13.787   1.585 -0.0025 -0.2123 -0.6494
16720W        W32189   0.590   1.835   2.984  0.0995  0.1832  0.1137
16721W        W32190  15.906  11.359  12.441 -0.1887  0.3865  0.0628
16722W        W32191   7.250  15.392  14.958  0.3836  0.0557 -0.0980
16723W        W32192  11.155  11.845   2.537 -0.0031 -0.0478  0.0761
16724W        W32193   2.014   2.851   3.892 -0.0889 -0.0182  0.0617
16725W        W32194  11.428   6.388  13.991  0.1119 -0.3222  0.0785
16726W        W32195  10.788  16.794  14.298 -0.1589  0.1923  0.0878
16727W        W32196   7.667   1.304   0.016  0.1554 -0.1425  0.1923
16728W        W32197  18.082  15.559   4.968  0.1163 -0.0363 -0.2636
16729W        W32198  14.828  14.258  14.255 -0.0499  0.2662 -0.0465
16730W        W32199  14.285   3.651  15.406 -0.4629  0.2420 -0.0875
16731W        W32200  13.760  18.262  13.129  0.0841  0.1686  0.1889
16732W        W32201  11.580  15.212   0.785  0.1092  0.2422  0.1715
16733W        W32202   5.413   5.514   1.511 -0.3554 -0.0368  0.0584
16734W        W32203  12.761  18.535  14.712  0.2337 -0.2799  0.0477
16735W        W32204   5.590   3.894  15.118  0.3350 -0.3107 -0.3106
16736W        W32205  16.256   0.212  12.764 -0.0484  0.0776  0.0215
16737W        W32206   6.595  15.816  14.075  0.0117  0.0144  0.1033
16738W        W32207   8.010  12.653  13.103 -0.0453  0.1108 -0.0027
16739W        W32208   6.412   8.378  10.354 -0.2038  0.2184  0.0141
16740W        W32209  13.516   9.433   4.429 -0.1173  0.0647  0.3491
16741W        W32210   5.138   9.019   3.796  0.1427 -0.6260 -0.1206
16742W        W32211   3.364   3.607  13.665 -0.1516 -0.0653  0.3208
16743W        W32212   2.172  14.504  12.576 -0.1583 -0.1664 -0.0841
16744W        W32213  18.433   4.731   0.255  0.1899 -0.2229  0.1729
16745W        W32214   0.920  11.085  11.645  0.0819 -0.2571 -0.0657
16746W        W32215   0.456  15.515   2.164 -0.1520  0.0311  0.6332
16747W        W32216   7.176   2.427   3.863  0.2521  0.3766  0.2058
16748W        W32217   7.667   4.527  15.764 -0.2287  0.0468 -0.0747
16749W        W32218  14.685  17.478  14.705 -0.0986  0.2726  0.1235
16750W        W32219  11.050  16.455  14.607 -0.0152 -0.2453 -0.0682
16751W        W32220   0.815   2.010  11.997 -0.1574 -0.3691 -0.1210
16752W        W32221   1.768   7.931   1.079 -0.3654  0.0495  0.1676
16753W        W32222   4.702   6.611   0.302 -0.1111  0.2979 -0.1522
16754W        W32223   0.273   2.936   1.684  0.1363  0.0299  0.3517
16755W        W32224  13.765   7.044  13.186  0.0861 -0.0586 -0.2159
16756W        W32225  14.183   2.853   3.756  0.0484 -0.3417  0.0209
16757W        W32226   3.200   3.315   1.981 -0.0084  0.1519 -0.0748
16758W        W32227   6.150  16.670   0.133  0.4944 -0.2430 -0.2161
16759W        W32228   0.465  14.579   3.227 -0.2925  0.2681  0.0633
16760W        W32229  17.988   4.771  15.661 -0.0003 -0.1624  0.0936
16761W        W32230  13.934   5.048   0.597 -0.0678  0.2409  0.5681
16762W        W32231   1.361  13.401  14.037  0.1756  0.1041 -0.5181
16763W        W32232  14.141   4.486  12.014  0.0074 -0.1612 -0.0302
16764W        W32233   0.342  11.500  10.467 -0.2345  0.1559  0.0254
16765W        W32234  14.332   0.558  12.535 -0.2571 -0.1727  0.0149
16766W        W32235   6.900   8.433   0.649  0.1575 -0.0708 -0.1211
16767W        W32236  18.517   5.069   3.386 -0.1039 -0.0926  0.1455
16768W        W32237   9.166   2.164   3.953  0.2556 -0.2202  0.0375
16769W        W32238  16.634   5.564   4.786 -0.0702 -0.0720 -0.0898
16770W        W32239  15.949  17.193   3.221 -0.2269 -0.2205  0.2182
16771W        W32240   8.217   0.633  10.929 -0.5427  0.1459  0.4051
16772W        W32241   8.373   4.075   0.299  0.0968  0.1871  0.3276
16773W        W32242   0.203  12.232   2.623  0.0430 -0.1623  0.1672
16774W        W32243  11.348   9.057   1.118  0.0093 -0.0225  0.1941
16775W        W32244   9.873   9.494  12.971 -0.0452 -0.1534  0.4757
16776W        W32245  15.873   0.182  14.099  0.0109 -0.2004 -0.1212
16777W        W32246  18.341  12.258   3.580 -0.0594 -0.0738  0.0444
16778W        W32247  12.797  11.550   4.818 -0.2449  0.1643  0.0090
16779W        W32248  14.767   5.765  12.278 -0.0930  0.0034  0.0974
16780W        W32249  18.315   8.552   2.374  0.4725  0.1136  0.3200
16781W        W32250   7.979  13.930   1.548  0.2021 -0.4062 -0.0983
16782W        W32251  11.982  15.795   5.482  0.0381  0.0484  0.0550
16783W        W32252  14.465   3.355  14.987  0.0615  0.0326 -0.0985
16784W        W32253  10.415   2.188   5.427  0.0550 -0.0943  0.1646
16785W        W32254   8.022   1.455  12.511 -0.3343  0.0174 -0.1421
16786W        W32255   7.688  12.484   3.403 -0.2489  0.0202  0.5995
16787W        W32256  15.499   5.482   4.337 -0.0081  0.2121 -0.0220
16788W        W32257   5.360   9.433  10.812  0.0166  0.0038  0.0860
16789W        W32258   5.665  17.423   4.154  0.3411  0.0292 -0.0369
16790W        W32259  10.702  14.157   5.231 -0.0912 -0.0906 -0.2367
16791W        W32260   8.090  11.623  14.939 -0.0403  0.0343  0.1757
16792W        W32261   7.537  18.305  15.111  0.5349  0.0865 -0.1326
16793W        W32262  18.496   7.898   4.674 -0.0990  0.0110 -0.2259
16794W        W32263   5.508   7.176   3.753  0.0760 -0.0673  0.1616
16795W        W32264  13.372  18.538   4.371  0.4647 -0.0877 -0.1768
16796W        W32265  15.780  16.978  13.511  0.2750  0.0021 -0.3315
16797W        W32266  16.960   1.498  11.190  0.0593  0.0953  0.0912
16798W        W32267  15.965   4.092  13.915  0.0789  0.0076 -0.2405
16799W        W32268   5.480  10.480   1.264  0.0723  0.3996  0.0551
16800W        W32269   0.104   3.849   3.072 -0.0112  0.1829 -0.1201
16801W        W32270   9.695  13.348   5.350  0.0075 -0.1472  0.2098
16802W        W32271   0.649  13.946   4.387  0.2034  0.1398  0.1257
16803W        W32272   4.337  10.398  13.576  0.0415 -0.1193 -0.0311
16804W        W32273  17.562   5.151   0.747 -0.2068  0.1779 -0.1748
16805W        W32274  13.727  15.750  12.446  0.1076  0.0712 -0.0737
16806W        W32275   1.930  15.612   3.922 -0.0695 -0.2297  0.2710
16807W        W32276   9.125   6.216   5.909 -0.1113 -0.1174  0.2067
16808W        W32277   7.843  15.376  14.048  0.0979 -0.1863  0.3222
16809W        W32278  15.097  18.474   5.924 -0.1005 -0.3152  0.1274
16810W        W32279   7.497  14.016   0.900  0.0136 -0.2706  0.1065
16811W        W32280   4.811  13.998   1.155  0.2327 -0.0147  0.0228
16812W        W32281  10.782  12.521  12.905  0.1805 -0.1352  0.0283
16813W        W32282   2.684   1.064  15.634  0.0977 -0.2153 -0.1085
16814W        W32283   6.050   0.899  12.673 -0.0275 -0.1289 -0.2753
16815W        W32284  13.573   2.188   5.545 -0.0192 -0.0524  0.0697
16816W        W32285   2.029  11.943  13.556  0.2325  0.2482 -0.1020
16817W        W32286   5.801   6.893  11.562  0.1040 -0.0205  0.1436
16818W        W32287   1.386  17.780   1.595 -0.1835 -0.1298  0.1736
16819W        W32288   8.851   9.347   5.282  0.1864  0.2497 -0.1033
16820W        W32289   4.766  13.417   2.715 -0.2073  0.0426 -0.1126
16821W        W32290  15.924  17.578  15.562  0.3518 -0.1176 -0.1168
16822W        W32291   1.055  14.728  13.363 -0.2459  0.1035  0.3679
16823W        W32292   6.499   6.104  15.071  0.1281 -0.1911 -0.0043
16824W        W32293   7.876   2.809   3.592 -0.2969  0.1135  0.2099
16825W        W32294   9.704   1.947  15.594  0.1186 -0.3999 -0.0143
16826W        W32295   4.376   6.695  13.931 -0.1849  0.1318 -0.3065
16827W        W32296   0.388   0.568   2.862  0.0539 -0.1232 -0.3678
16828W        W32297  11.031   0.117   0.425 -0.2075  0.1216 -0.0501
16829W        W32298   9.539   3.616   3.657 -0.2921  0.0727 -0.2102
16830W        W32299   1.497   1.025  13.347  0.2318  0.2948 -0.3322
16831W        W32300   7.162   3.863   4.957  0.2777 -0.0018 -0.4644
16832W        W32301   9.973   7.729   1.494  0.4212  0.0176  0.0802
16833W        W32302   1.206  16.845  14.102 -0.0546 -0.0258 -0.1551
16834W        W32303   5.550  18.048   3.222  0.1862 -0.1514 -0.0673
16835W        W32304   3.840  12.979   1.419 -0.3597  0.0608 -0.0794
16836W        W32305  16.332   7.196  14.176 -0.0483 -0.2012 -0.3150
16837W        W32306   4.039   3.403   5.210  0.2291  0.0288 -0.0186
16838W        W32307  14.890  15.564   3.305  0.1949  0.0954 -0.1404
16839W        W32308   2.036  12.960   5.000  0.0023 -0.0200  0.0266
16840W        W32309  16.277  13.893  15.103  0.0621  0.0268 -0.1906
16841W        W32310   5.662   9.902   1.043 -0.1740 -0.1370 -0.1664
16842W        W32311   2.174  18.339   4.071 -0.0410  0.1748 -0.0289
16843W        W32312  15.583  12.387   5.682  0.1184  0.2164 -0.0656
16844W        W32313  13.940  10.100   2.607  0.1189 -0.2030 -0.2775
16845W        W32314   4.520   4.417  11.932  0.3100  0.0558  0.0272
16846W        W32315   1.138   8.317   1.220  0.1324 -0.2387  0.2095
16847W        W32316   8.724  11.663   1.317 -0.1005 -0.2652 -0.1729
16848W        W32317   2.060   7.180   3.097  0.2257  0.0730  0.0140
16849W        W32318   4.772  15.084   5.444 -0.1351  0.0115 -0.1849
16850W        W32319   2.584  12.846  10.486  0.0595  0.0387  0.0119
16851W        W32320   8.764  14.513  15.206 -0.1869  0.0408  0.0815
16852W        W32321   4.820   9.106  13.610  0.0080 -0.1083  0.1100
16853W        W32322   1.182  13.964   1.838 -0.1501  0.0545  0.4790
16854W        W32323   2.816   1.561  14.552  0.0229  0.0083  0.0903
16855W        W32324   6.834  14.701   4.840  0.0740 -0.0171  0.2368
16856W        W32325   9.332  10.715   0.602  0.4258 -0.2460 -0.1921
16857W        W32326   6.234  15.916   3.874  0.1808  0.0456 -0.0667
16858W        W32327  18.069   1.492   5.894  0.3662  0.5176 -0.0764
16859W        W32328  14.906   4.338  14.123  0.1060 -0.1461 -0.0361
16860W        W32329  16.336   6.779   2.407 -0.0723  0.0640  0.1569
16861W        W32330   4.924   4.822   3.165  0.0011 -0.0645 -0.1658
16862W        W32331   7.137   7.877  11.884  0.3345 -0.2680  0.0798
16863W        W32332  16.284   5.912   0.745 -0.2754  0.1551  0.2092
16864W        W32333   5.340   0.083   2.009 -0.3125 -0.4322 -0.2420
16865W        W32334  13.034  13.355   0.256 -0.1183  0.1484  0.2584
16866W        W32335  18.051  15.129  13.866  0.1556 -0.3977 -0.0282
16867W        W32336   2.446  15.627   4.155  0.0020  0.0087  0.0093
16868W        W32337  12.135  17.526   1.091 -0.4628 -0.0083 -0.3138
16869W        W32338   6.088   5.499  11.511  0.1585 -0.0655 -0.1914
16870W        W32339   3.677  16.426  11.639  0.1549 -0.0084 -0.2045
16871W        W32340   5.374  16.375   5.930 -0.1997 -0.1155  0.3802
16872W        W32341   4.219  16.474   0.901  0.2944  0.0484  0.0322
16873W        W32342  14.313  16.252   3.585  0.1462 -0.0570  0.3264
16874W        W32343   3.353  13.822   0.667  0.1190  0.0234  0.2387
16875W        W32344   0.346   5.805  15.609  0.1492 -0.6463 -0.1103
16876W        W32345   4.326   2.879   1.732 -0.2023  0.2290 -0.1660
16877W        W32346   7.825   4.733   2.362  0.1370  0.2615  0.2331
16878W        W32347  11.245  17.114   4.682  0.0604 -0.0010  0.1401
16879W        W32348   5.359  16.660   0.516 -0.0041 -0.0489 -0.2242
16880W        W32349   2.396  15.223  11.563  0.0302  0.0166  0.2079
16881W        W32350   3.122  10.650  10.846  0.0903 -0.1526  0.0142
16882W        W32351  10.873   7.267   1.295 -0.0189 -0.0434  0.0043
16883W        W32352  12.243   4.904  11.901  0.0748  0.0314  0.0650
16884W        W32353   9.697   4.284   0.235 -0.2219 -0.2525  0.2210
16885W        W32354   0.891  14.912  11.347  0.1533  0.0421  0.1331
16886W        W32355  17.945   0.499   2.111  0.1253 -0.1314 -0.3429
16887W        W32356   9.683  12.280   2.377 -0.0445  0.0906  0.0182
16888W        W32357   9.959   2.857  13.197  0.3153 -0.0568  0.0429
16889W        W32358   6.621  11.072   2.532  0.0339  0.2378  0.0266
16890W        W32359   9.584   8.633   4.097 -0.4730  0.0392  0.2339
16891W        W32360  11.000  12.795   4.292 -0.2118  0.1248  0.1116
16892W        W32361   7.078  14.123   5.596  0.0536  0.1260  0.1100
16893W        W32362   7.426   1.594   2.686 -0.2598  0.1447 -0.2492
16894W        W32363  14.150  11.908   1.436  0.0180  0.1093  0.0315
16895W        W32364   8.807  18.329  12.800  0.0074 -0.1684  0.3130
16896W        W32365  11.269   2.811  13.162  0.2215 -0.1981  0.3382
16897W        W32366   6.332   3.782  14.567  0.1137 -0.1086 -0.0256
16898W        W32367  10.783   8.480   1.832  0.0400 -0.2163 -0.0441
16899W        W32368  10.518   8.558   0.273 -0.2469 -0.2697  0.0397
16900W        W32369   1.045  10.704   3.723 -0.1835  0.0315  0.1457
16901W        W32370  17.087  13.477  12.875  0.1391 -0.1480  0.2715
16902W        W32371   2.809   8.841   4.088  0.0795  0.1758 -0.2163
16903W        W32372  17.237  16.677   3.407 -0.3323  0.0048  0.2238
16904W        W32373   9.445   2.412  12.049 -0.0542  0.0871 -0.1688
16905W        W32374   0.002  12.468   0.119 -0.0583  0.1106 -0.0095
16906W        W32375   3.229  16.624   3.201 -0.2905  0.2677  0.0697
16907W        W32376  16.789   8.971   0.929  0.0555  0.2374 -0.2268
16908W        W32377  11.732   6.951   1.853 -0.1654  0.0418  0.0515
16909W        W32378  15.923  16.175  13.087 -0.2274 -0.3644  0.1456
16910W        W32379   6.556  16.084  15.716 -0.3156 -0.4823  0.1429
16911W        W32380  14.938   9.799  12.447  0.1183  0.3376 -0.1128
16912W        W32381   3.407  13.603  12.583  0.1538  0.2454 -0.2929
16913W        W32382  14.750  13.324   2.110  0.2640 -0.2577 -0.2566
16914W        W32383  12.635  15.628  12.337 -0.3055  0.0829 -0.1033
16915W        W32384  14.450   9.195   4.350 -0.0159  0.0349 -0.5009
16916W        W32385  13.485  16.715   3.258 -0.0073 -0.0350  0.1816
16917W        W32386   9.151   7.594  11.342 -0.2389 -0.1266  0.0797
16918W        W32387  16.068   2.031   3.782 -0.0474  0.2975  0.1171
16919W        W32388   1.850   7.831  14.746  0.2742  0.1145  0.2339
16920W        W32389  13.633  14.391  12.184 -0.1169 -0.0792 -0.1039
16921W        W32390  18.051  10.764  12.948  0.0985 -0.0904  0.0710
16922W        W32391   1.890   4.221   2.956 -0.2298  0.1344  0.2310
16923W        W32392  17.542  17.332  10.982  0.0932  0.2103 -0.0572
16924W        W32393  15.964  10.292   1.716  0.1042 -0.0371 -0.2246
16925W        W32394   4.268  11.647  12.430 -0.2132  0.0132  0.3234
16926W        W32395  15.709  18.147  12.651  0.0047  0.2148  0.0643
16927W        W32396   8.528   7.088   5.973  0.0059 -0.1460 -0.0748
16928W        W32397   1.282   6.782  12.782  0.0972  0.1003 -0.3359
16929W        W32398   4.227   2.315  11.388  0.2474  0.0622 -0.1479
16930W        W32399  13.080  18.256   2.286 -0.0799 -0.3747  0.2354
16931W        W32400   7.054   9.166  14.547 -0.1290 -0.1751  0.1266
16932W        W32401   1.459  16.163  12.445  0.2807  0.0061 -0.0568
16933W        W32402   5.526  10.165  15.644 -0.2010 -0.0683  0.1792
16934W        W32403   4.458   9.982   1.675  0.3448 -0.3311 -0.3113
16935W        W32404   2.099   4.147  14.716 -0.0172 -0.3263  0.0996
16936W        W32405  16.192   3.837   2.984 -0.0985 -0.1148 -0.0781
16937W        W32406   7.510   9.143  15.354 -0.3624 -0.2056  0.1008
16938W        W32407  14.190   6.152  13.319 -0.0925 -0.0184 -0.1341
16939W        W32408  17.939   2.288   2.547  0.0141  0.1724  0.0316
16940W        W32409  12.950  14.545   3.098  0.0068  0.1358  0.4079
16941W        W32410  10.054  10.726  10.340  0.2568 -0.2433  0.0315
16942W        W32411   2.619   6.594   1.376  0.1556 -0.0911  0.0052
16943W        W32412  15.945  14.331  14.891 -0.0528  0.1280 -0.0542
16944W        W32413   8.996  10.565  13.571  0.0850 -0.1022 -0.1439
16945W        W32414  17.222   8.298   0.202  0.0072  0.1537  0.0009
16946W        W32415   7.116   0.693  11.920  0.1233 -0.0497  0.1859
16947W        W32416   7.601   3.496   0.386  0.0361 -0.1364  0.1343
16948W        W32417  13.034  14.869   0.343  0.0775  0.0945 -0.0846
16949W        W32418  10.571   5.948   6.434 -0.0404  0.0815 -0.2523
16950W        W32419  17.813   8.994   2.704  0.5474  0.3218 -0.1663
16951W        W32420   7.470  13.662  15.640 -0.2504  0.2237 -0.1391
16952W        W32421  13.490   7.020   4.304  0.3435 -0.0078  0.2359
16953W        W32422  16.711  16.068  14.249 -0.0075 -0.0452  0.1416
16954W        W32423  14.148  10.789  15.217  0.2319 -0.0043  0.1251
16955W        W32424   7.784   3.868   1.038  0.0461 -0.1447  0.1710
16956W        W32425  15.047   2.453  11.768 -0.1681 -0.0547 -0.1066
16957W        W32426   9.773   1.220  15.477 -0.1898  0.0372  0.0503
16958W        W32427   1.958   7.842  12.902 -0.1821  0.1203 -0.2551
16959W        W32428   7.867  14.066  12.208 -0.1348  0.1527 -0.0037
16960W        W32429  12.107  16.818  14.175 -0.0456  0.2048  0.3900
16961W        W32430   3.189   1.991   2.715  0.0763  0.1500  0.1598
16962W        W32431  11.944   3.291  14.275 -0.0336  0.4716  0.1594
16963W        W32432   1.110   1.732  12.310 -0.0316  0.2115  0.2668
16964W        W32433   4.756   8.442   0.426  0.0485 -0.0085  0.3047
16965W        W32434  12.214  18.263   1.929 -0.3840  0.2039  0.1365
16966W        W32435   1.506   6.937  14.736  0.1274  0.1447  0.2478
16967W        W32436   3.132   8.610   2.507  0.2899  0.1603 -0.0473
16968W        W32437   7.385   6.456   1.591  0.0362  0.3856 -0.1537
16969W        W32438  17.151  11.846  13.494 -0.3669 -0.2744 -0.3413
16970W        W32439   3.196  14.272  13.452 -0.2496 -0.3168 -0.2784
16971W        W32440   1.833  14.502  11.810  0.1242  0.4441  0.0999
16972W        W32441  11.437   0.962  14.209 -0.1871 -0.0518 -0.2937
16973W        W32442   2.205  15.650  12.072 -0.3416  0.6044  0.1219
16974W        W32443   7.174   8.625   0.201  0.3045  0.1701 -0.4677
16975W        W32444   3.674   3.314   1.743 -0.1142  0.0424  0.0094
16976W        W32445  11.528   7.684   3.741 -0.3148  0.0095  0.0774
16977W        W32446  15.854  14.503   0.071  0.0559  0.1512 -0.2996
16978W        W32447  16.501  18.303   0.805  0.1915 -0.1354 -0.3255
16979W        W32448   7.475   2.632  12.451 -0.0901 -0.2679  0.0132
16980W        W32449   8.648   2.439   3.294  0.0955  0.0942 -0.2067
16981W        W32450   8.047   6.902  15.691  0.2645 -0.1965 -0.0980
16982W        W32451  14.049   9.034  13.755  0.0940 -0.2168 -0.0440
16983W        W32452   4.734   6.910   0.728 -0.1345 -0.1183 -0.3081
16984W        W32453   1.532   1.195  10.063 -0.2306 -0.4493 -0.0781
16985W        W32454  13.424   8.477   5.438  0.3811  0.1004  0.2184
16986W        W32455   4.066   6.530   2.455  0.0531 -0.1647 -0.0888
16987W        W32456   2.850  16.068  12.428 -0.1228 -0.3967  0.3302
16988W        W32457   3.120   3.209  12.590  0.0867  0.1563  0.1285
16989W        W32458  13.211  10.501   2.443 -0.3024  0.0560  0.1528
16990W        W32459  10.557   2.673   1.059  0.3055  0.0650 -0.1413
16991W        W32460  16.496   6.968   3.346 -0.0876 -0.0647 -0.0501
16992W        W32461   8.210  17.326   1.681  0.3595 -0.2639 -0.3093
16993W        W32462   4.074   0.405   0.209 -0.0696  0.3037 -0.0822
16994W        W32463  18.487  17.226   2.796  0.0422  0.2506  0.0332
16995W        W32464  10.035  17.488   2.270 -0.0411  0.2508  0.0513
16996W        W32465   2.103   6.945   0.427 -0.1093 -0.1859 -0.0264
16997W        W32466   8.682   9.635  12.235  0.1315  0.0369  0.0501
16998W        W32467   8.861  11.049   5.104  0.0788  0.1568  0.1227
16999W        W32468  16.696   9.903  13.026 -0.0931 -0.1075  0.2311
17000W        W32469  14.988   4.369  11.420  0.1496  0.2146  0.1375
17001W        W32470  15.643  13.527   4.540 -0.1698 -0.0605 -0.4469
17002W        W32471  11.150  14.222  15.047 -0.1170  0.2049 -0.2629
17003W        W32472   2.313  12.180  11.187 -0.1436  0.1239  0.0918
17004W        W32473  11.855   6.190   3.822  0.0561 -0.1462 -0.2060
17005W        W32474   3.849  12.148  12.333  0.0557  0.2846  0.1849
17006W        W32475   1.128   2.823  10.828 -0.3329 -0.1080 -0.1186
17007W        W32476  17.710   4.456   0.062  0.1268  0.1655  0.1132
17008W        W32477   2.239  11.645   1.613 -0.2569  0.2723 -0.2916
17009W        W32478   3.477   1.590   3.456  0.0824  0.0033  0.0505
17010W        W32479  12.939  10.063   1.234  0.2085  0.1064  0.1733
17011W        W32480   2.126  13.762  14.657  0.1230 -0.0419  0.0213
17012W        W32481  15.739   3.050   4.836  0.1100  0.1558 -0.3065
17013W        W32482  10.278   0.576   3.462  0.1452 -0.2038 -0.2530
17014W        W32483  17.222  10.187  11.974  0.2690 -0.1114  0.0454
17015W        W32484   8.061   1.883  11.887 -0.4809  0.0941  0.2420
17016W        W32485  14.705   5.149   9.993  0.1457 -0.0376 -0.2479
17017W        W32486   1.010  10.524  11.117 -0.0386  0.0291 -0.2694
17018W        W32487  11.022  14.730  14.842  0.2255 -0.0277  0.1892
17019W        W32488   6.904   6.229   1.014 -0.2556 -0.0374 -0.0463
17020W        W32489  15.147   6.759  11.274  0.1523  0.2916  0.3131
17021W        W32490   8.644   7.358   4.163  0.1854 -0.0432 -0.0601
17022W        W32491   5.299  11.708  14.558 -0.0628  0.0008 -0.0466
17023W        W32492   7.108   1.221   1.178  0.3213 -0.0417 -0.1234
17024W        W32493   2.814   1.028   2.976 -0.0940 -0.0408 -0.2405
17025W        W32494   7.024  11.296   1.839 -0.0946  0.2481  0.0129
17026W        W32495   1.045   4.130  13.797 -0.1242 -0.1754  0.0036
17027W        W32496  18.035  10.679  13.531  0.2935  0.2369  0.0531
17028W        W32497  16.122   3.385   1.088  0.1266 -0.1927  0.2131
17029W        W32498  11.327   2.395   4.658 -0.0609  0.2095  0.1027
17030W        W32499   5.458  16.092  15.467  0.1118 -0.1137  0.1198
17031W        W32500  12.607  18.412   6.232  0.2020  0.2208 -0.1964
17032W        W32501   6.887  14.497   9.813  0.1299 -0.0322  0.5250
17033W        W32502   1.677   7.838  11.447  0.0838  0.2123 -0.2587
17034W        W32503   4.041   3.338  14.996  0.1029  0.4220 -0.2011
17035W        W32504  11.912   4.942  13.530  0.0439  0.1520 -0.2178
17036W        W32505   3.767   9.270   2.472  0.0415 -0.0570  0.1406
17037W        W32506  10.463   2.631   3.840  0.0339  0.0469 -0.2956
17038W        W32507   3.029   8.946  10.948  0.2677  0.0164  0.0685
17039W        W32508  14.888   4.364  15.252 -0.0202 -0.2948  0.0601
17040W        W32509   8.297   9.091  13.593  0.3084 -0.3676  0.1121
17041W        W32510   9.689  11.037   1.639 -0.1577  0.2279 -0.0637
17042W        W32511   3.952   1.613   0.828 -0.3463 -0.0034  0.1364
17043W        W32512   5.204   3.320   0.128  0.5598 -0.1118  0.3363
17044W        W32513   1.528   9.007  11.656 -0.0943 -0.0913 -0.1321
17045W        W32514  17.124  10.929  11.827  0.2382  0.0623  0.1530
17046W        W32515  10.485   3.653   4.308 -0.1632  0.2557  0.0588
17047W        W32516   3.597  14.221   1.683 -0.0883 -0.0016 -0.2133
17048W        W32517   3.066   7.434  11.452  0.1192  0.3289  0.0553
17049W        W32518   9.934  15.691   5.442  0.1217 -0.0822  0.2215
17050W        W32519  16.484  15.871   4.430  0.0608 -0.2574 -0.1240
17051W        W32520  12.427  10.574   3.855  0.0161  0.0069 -0.2533
17052W        W32521   4.710   9.664   3.323  0.0735 -0.0426  0.2588
17053W        W32522   3.272   6.298  11.563  0.1938  0.0692 -0.0418
17054W        W32523   8.189  18.155   0.779 -0.2110  0.2853 -0.1215
17055W        W32524  15.106  11.577  13.907 -0.2220 -0.1180  0.0973
17056W        W32525  16.121   1.859  13.263  0.2595 -0.0382  0.1273
17057W        W32526   8.992   1.773  13.147  0.0722  0.1483 -0.0993
17058W        W32527   2.719   9.023  12.034  0.0681  0.1755  0.2589
17059W        W32528   2.774  18.291   3.037  0.2827  0.0045  0.0619
17060W        W32529   0.348   8.114  10.455 -0.3422  0.0367 -0.1072
17061W        W32530  16.675  10.662  13.786  0.3005 -0.1751  0.2981
17062W        W32531  17.476  10.117  14.407 -0.0117  0.2374 -0.0872
17063W        W32532   8.174   7.068   1.647  0.0203  0.1895 -0.2623
17064W        W32533  18.006  17.105  10.901 -0.4450 -0.0526 -0.3498
17065W        W32534   9.729   9.145  11.394 -0.1294 -0.1949  0.2071
17066W        W32535  14.198   5.087   3.001  0.0176 -0.1180 -0.0692
17067W        W32536   4.640   5.343  10.271 -0.0132 -0.0933  0.1105
17068W        W32537   7.395  15.215   4.553 -0.1378 -0.1375  0.0015
17069W        W32538   5.454  12.111   2.071 -0.1340  0.1757  0.3052
17070W        W32539  18.080   2.968   0.205 -0.3963  0.2776 -0.1743
17071W        W32540   8.535   7.867  11.820  0.0393 -0.0449  0.2878
17072W        W32541   8.526  17.183   1.227  0.2278 -0.0517 -0.1264
17073W        W32542  12.968   1.106   2.235  0.3625  0.2130 -0.1495
17074W        W32543  13.379   2.451   1.878 -0.0341  0.0429 -0.0290
17075W        W32544  13.797  14.373   0.922  0.1058 -0.1205  0.0033
17076W        W32545  10.677   1.819   5.155  0.4678 -0.2520  0.2092
17077W        W32546  11.004   5.647   3.651  0.0108 -0.1328 -0.1449
17078W        W32547   7.811   0.610  11.962  0.0663 -0.1991 -0.1557
17079W        W32548   0.681   6.166  15.649 -0.1732  0.2329 -0.1322
17080W        W32549   0.538   8.860  11.166 -0.2811  0.3160  0.0306
17081W        W32550  10.505   8.436  12.086  0.0634  0.0978  0.0315
17082W        W32551   8.674   1.502   2.772 -0.1679  0.0575 -0.2881
17083W        W32552  18.010   0.355  12.688 -0.2266 -0.0901  0.1429
17084W        W32553  10.481  12.055  13.732 -0.1651 -0.1130  0.4450
17085W        W32554   2.545   3.461  11.405 -0.2276 -0.0032 -0.0027
17086W        W32555  17.766  15.842  12.826 -0.1215 -0.2526  0.1205
17087W        W32556  14.014  18.571   5.893  0.2134  0.1392  0.0896
17088W        W32557  11.687   8.541   2.759  0.1222  0.2211  0.3248
17089W        W32558  16.379   3.925  13.015 -0.0590 -0.1406 -0.2560
17090W        W32559   1.579   9.510   4.446 -0.2595 -0.1220  0.1633
17091W        W32560   9.742   4.004   6.501  0.0898 -0.1036 -0.0403
17092W        W32561  11.997   5.403   4.736 -0.1724 -0.0878  0.2461
17093W        W32562   9.491   2.586  10.920 -0.2825 -0.2265 -0.0642
17094W        W32563   2.021   3.209  14.858  0.0488  0.0835  0.3006
17095W        W32564   1.684   8.424  15.644  0.1580  0.1448 -0.5194
17096W        W32565  10.340   3.336  12.461  0.1682  0.1018 -0.0028
17097W        W32566   9.601   3.024  10.213  0.1758  0.0908  0.1675
17098W        W32567   9.161  12.036  13.593  0.0152  0.4458 -0.2638
17099W        W32568  17.297  15.595  10.051 -0.0355  0.0411  0.1894
17100W        W32569  18.514  17.851  12.229 -0.4318 -0.0467  0.0516
17101W        W32570   5.988   8.431   0.637  0.0291 -0.0572  0.0435
17102W        W32571   4.596   5.930  14.044  0.1748  0.0379 -0.2390
17103W        W32572   4.175   7.649   5.286 -0.0135 -0.0834  0.1805
17104W        W32573   6.157  16.002  15.152 -0.1734 -0.2541 -0.1000
17105W        W32574  15.562  12.642  14.863 -0.0691 -0.3961 -0.1784
17106W        W32575   3.571  18.084  13.645 -0.2552 -0.0810 -0.0505
17107W        W32576  15.523  11.425   4.184 -0.3507  0.0244 -0.0061
17108W        W32577  14.156  15.511   5.257  0.0714 -0.1428  0.0907
17109W        W32578  14.096  11.707  14.813 -0.0557 -0.0977 -0.0594
17110W        W32579   7.557   9.547   5.320 -0.1450 -0.2452  0.1337
17111W        W32580  16.405   4.689   9.556 -0.2624  0.0197 -0.0837
17112W        W32581   0.714  11.464   0.675  0.1408 -0.0567 -0.0007
17113W        W32582  18.336  10.912  10.826  0.0427  0.0523  0.2000
17114W        W32583   3.626   9.915  15.404  0.1758 -0.0175  0.0730
17115W        W32584  15.210  14.488  12.414  0.0127  0.0490 -0.2179
17116W        W32585  13.433  10.296   3.924 -0.0096  0.2382 -0.1126
17117W        W32586  11.829  17.182  13.266 -0.2176  0.0658  0.2419
17118W        W32587  15.284  11.872   4.026 -0.0911  0.0654 -0.0338
17119W        W32588  16.887   1.558   3.196 -0.2884 -0.0537 -0.0689
17120W        W32589   5.899  15.278   4.628  0.1778  0.0932  0.1816
17121W        W32590  11.196   1.482  11.427 -0.0419  0.4718 -0.0523
17122W        W32591   6.071  14.894  13.667 -0.0264  0.2206 -0.2592
17123W        W32592   9.028   9.611   2.145 -0.1073 -0.1553 -0.0338
17124W        W32593  11.629   7.696   1.858  0.1904 -0.0698 -0.2729
17125W        W32594  14.051   6.808   2.945 -0.3763  0.0215  0.4951
17126W        W32595  12.830  13.878   0.087  0.1723  0.0833 -0.1142
17127W        W32596   5.964  16.231  15.653  0.0485 -0.1375  0.2502
17128W        W32597  17.003   4.639  14.743 -0.0469  0.2425  0.2590
17129W        W32598  10.579  16.642  13.738 -0.2253  0.1125  0.3037
17130W        W32599   0.578   3.343  11.654  0.0316  0.1032 -0.2239
17131W        W32600   6.266  10.952   1.994  0.1279 -0.2480  0.1887
17132W        W32601  15.195  10.805   0.187 -0.1009  0.2074  0.0073
17133W        W32602   7.727  12.310   1.931 -0.0380  0.0485  0.2711
17134W        W32603  10.968   2.054   1.014 -0.4407  0.1020 -0.0893
17135W        W32604  11.456   1.282   1.206 -0.1262  0.0017 -0.0408
17136W        W32605  10.473   6.756   3.295 -0.2978 -0.1697 -0.2960
17137W        W32606   7.185   7.259   1.611  0.0361 -0.1315  0.0194
17138W        W32607   1.962   8.074  10.650 -0.1144  0.0556 -0.1364
17139W        W32608  13.753   0.537   3.141 -0.2915 -0.0716  0.0017
17140W        W32609   1.543  13.360  11.186 -0.1111  0.2149  0.2429
17141W        W32610   8.928  16.567   4.576 -0.0345 -0.0945 -0.1739
17142W        W32611  13.243  13.031  13.403  0.1652 -0.0562  0.0141
17143W        W32612  11.856   1.134   4.908  0.0397 -0.0768 -0.0960
17144W        W32613  15.569   8.670  12.231  0.0471 -0.0613 -0.0032
17145W        W32614   6.109   5.536  15.714 -0.0126 -0.0873 -0.0069
17146W        W32615   0.313   5.068   2.873 -0.0018 -0.0639 -0.3931
17147W        W32616  15.813   6.337  12.375  0.4120 -0.1730  0.1056
17148W        W32617  17.467  14.514  11.818  0.4278  0.1279  0.0254
17149W        W32618  11.327   8.855   2.947  0.0751 -0.0265 -0.2469
17150W        W32619   1.191  16.784  15.490 -0.1155  0.1672  0.0377
17151W        W32620  18.613  12.139  14.894 -0.3969  0.4105  0.0655
17152W        W32621   4.175   2.925   5.427 -0.0327  0.1269 -0.2284
17153W        W32622  13.674   7.997  10.665  0.1607  0.1624 -0.0286
17154W        W32623   2.187   1.502  13.638  0.0265 -0.0684 -0.0659
17155W        W32624  13.529  10.814  13.894 -0.2908  0.0738  0.2747
17156W        W32625  14.275  12.858  12.282 -0.1931  0.4437 -0.0843
17157W        W32626   9.291  16.920  11.060 -0.2587 -0.0304 -0.1067
17158W        W32627  11.574  16.129   2.160  0.3489  0.1676 -0.3668
17159W        W32628   1.417  15.977  15.299 -0.4592  0.0445 -0.0692
17160W        W32629  16.680   6.489   0.162  0.1863 -0.0837 -0.1999
17161W        W32630   0.350   9.256  12.121 -0.0110  0.3877 -0.1922
17162W        W32631  15.442  11.158  12.606 -0.2117 -0.0953 -0.0507
17163W        W32632   3.406   2.023   5.325  0.0591 -0.0495  0.1601
17164W        W32633   1.518  12.456  13.250  0.4545  0.2935 -0.0718
17165W        W32634   2.747   7.283   4.276 -0.2010 -0.1534 -0.2065
17166W        W32635  12.665  18.523   5.724 -0.2155  0.0114 -0.0310
17167W        W32636   1.852   6.397   9.174 -0.1243 -0.2481 -0.1371
17168W        W32637  13.264  10.916  11.415  0.1074  0.0553  0.1698
17169W        W32638   2.506   4.952   2.573  0.0304 -0.0300  0.1512
17170W        W32639   7.257  15.882   2.581  0.2316  0.3673 -0.1214
17171W        W32640   4.397  11.656   4.737 -0.2078  0.0775  0.4622
17172W        W32641   2.916  18.295   1.626 -0.0905  0.1861  0.1480
17173W        W32642  15.992   3.626   4.174 -0.4168  0.3418 -0.0489
17174W        W32643   9.710   1.784   0.659  0.0476  0.4457 -0.0729
17175W        W32644   9.128   2.827  11.957 -0.1120  0.2976 -0.0083
17176W        W32645   8.041   9.460   2.110  0.0181  0.0634  0.2493
17177W        W32646  15.030  11.131   6.092  0.1173  0.1035 -0.0155
17178W        W32647   9.605  11.830  12.173  0.0772 -0.0914 -0.0810
17179W        W32648   8.335  16.274  12.037  0.1757  0.0425 -0.0261
17180W        W32649   1.887  15.394   0.105 -0.0811 -0.2014 -0.0986
17181W        W32650  15.076   1.485   0.768  0.1182 -0.1585 -0.2095
17182W        W32651   6.099   1.258   0.774  0.0122 -0.1394 -0.4991
17183W        W32652   8.668   1.848  11.974  0.3796  0.1695 -0.2553
17184W        W32653  15.646   1.947  14.915 -0.0281 -0.0147 -0.1691
17185W        W32654   1.950   5.907  13.820  0.1883  0.2341  0.1855
17186W        W32655  15.390  17.342  11.674  0.1206  0.1204  0.1195
17187W        W32656   5.685   2.158  12.504 -0.0983 -0.1027 -0.0326
17188W        W32657   1.046  17.545   3.297  0.0327 -0.1859  0.0274
17189W        W32658   6.674   3.913   4.734  0.0133 -0.3005  0.1869
17190W        W32659   4.551   5.808   4.901  0.0959  0.2776 -0.1528
17191W        W32660   3.232  14.664  13.129  0.1368  0.1792 -0.0623
17192W        W32661   0.807  10.075  11.537  0.0065 -0.1692  0.2168
17193W        W32662   8.965   3.431   2.897  0.1516  0.2773 -0.2642
17194W        W32663  16.756  12.569   1.105  0.1289  0.1867 -0.2771
17195W        W32664   5.082   2.518  11.854 -0.0726 -0.1035  0.1108
17196W        W32665   9.721   7.131  10.331 -0.3290  0.3101  0.0903
17197W        W32666  13.388  11.073   0.759 -0.0475  0.2889 -0.3094
17198W        W32667   0.002   1.599   5.661  0.2078  0.4540  0.0415
17199W        W32668  11.644  14.928  12.522  0.0831 -0.0914  0.3331
17200W        W32669   6.972   7.840   2.380  0.0668 -0.2819 -0.0326
17201W        W32670  17.266   0.982  13.088 -0.2005  0.2512 -0.2269
17202W        W32671  14.000  11.660   2.319 -0.0605  0.0018 -0.0727
17203W        W32672  16.370   2.936  13.928  0.1057 -0.1026  0.0119
17204W        W32673  13.055  15.668  12.180 -0.0620 -0.2602 -0.1910
17205W        W32674  10.866   2.924   0.718  0.0287  0.0707  0.2740
17206W        W32675  13.757   8.679  14.331  0.1951 -0.5139 -0.1143
17207W        W32676   1.939  11.658   3.236 -0.0946 -0.4508 -0.0869
17208W        W32677   1.442  15.451   3.808 -0.1182  0.1944 -0.0793
17209W        W32678   3.124  17.808  11.028  0.2294 -0.0208  0.2561
17210W        W32679   4.464  18.467   1.880 -0.0924  0.1837  0.1853
17211W        W32680   1.661  15.620   4.772  0.1326  0.1657  0.2714
17212W        W32681  14.699   7.474   4.197  0.0293 -0.2806  0.4517
17213W        W32682   6.025  17.848   1.027  0.3917  0.1235  0.1152
17214W        W32683  15.888   2.093   1.629 -0.0593  0.0926  0.1474
17215W        W32684   1.761  13.051   1.334 -0.0122 -0.1415  0.1858
17216W        W32685   2.397   5.270  10.893  0.0221 -0.0319 -0.4163
17217W        W32686  14.702  14.881  11.501 -0.2072  0.2406  0.4153
17218W        W32687   7.172  17.123  12.040  0.3750  0.2526  0.3513
17219W        W32688  16.111  10.822   2.303  0.1243 -0.0043  0.1659
17220W        W32689  11.528   7.739   4.551  0.0220  0.0599 -0.2364
17221W        W32690   3.222   3.008  13.067  0.1904  0.2926 -0.0391
17222W        W32691   2.613   5.050  12.948 -0.0708  0.2047  0.0383
17223W        W32692   7.852  15.540  14.747 -0.2429 -0.2616 -0.2146
17224W        W32693   1.524   8.695  14.911 -0.1070  0.1466  0.0561
17225W        W32694   7.474  17.578   0.669  0.0222  0.0870 -0.1216
17226W        W32695  13.783  12.721  12.612  0.0561 -0.0942 -0.3069
17227W        W32696   7.622   7.769   5.151  0.4232 -0.1561  0.0383
17228W        W32697   9.504   5.911   4.188  0.0403 -0.0264 -0.2261
17229W        W32698   6.614   4.359  11.745  0.0392  0.1033 -0.0724
17230W        W32699  17.481   8.709   0.010  0.1335  0.2885  0.0140
17231W        W32700   6.949  12.098   0.987 -0.1682  0.1537  0.1490
17232W        W32701  15.886  12.035  10.911 -0.0302  0.0060  0.0271
17233W        W32702  13.011   3.554  11.244 -0.3290  0.3577  0.1011
17234W        W32703  15.611   6.347   2.736 -0.2145 -0.0181 -0.1717
17235W        W32704  12.024  17.137   4.238  0.2442 -0.1335  0.0061
17236W        W32705  15.468  10.228  14.146  0.0738 -0.0139 -0.3228
17237W        W32706   0.677   4.904  10.666 -0.0835  0.2630 -0.0894
17238W        W32707   9.918  10.088  13.615  0.0331  0.1908 -0.2696
17239W        W32708   2.132   5.104  13.257  0.0146  0.2383  0.0881
17240W        W32709  17.372   8.745  11.848  0.0607 -0.1682 -0.0411
17241W        W32710   9.731  15.221  14.948 -0.0403 -0.1023  0.2335
17242W        W32711   1.503   5.151  11.975  0.1388  0.3739  0.2444
17243W        W32712   4.912  11.712   3.137 -0.0058 -0.2204 -0.6048
17244W        W32713   2.142  16.133  14.032  0.0680 -0.1348 -0.0911
17245W        W32714   3.387  13.037   2.700 -0.2756  0.1053 -0.1698
17246W        W32715  11.574  13.117  15.734  0.1379 -0.2183  0.0900
17247W        W32716   8.060  14.638   1.953  0.2206  0.0744 -0.2446
17248W        W32717  13.743   2.471  15.735  0.2005 -0.1140 -0.0834
17249W        W32718  11.540   6.464  12.636 -0.0875 -0.1651  0.0234
17250W        W32719   1.460   1.363  14.649 -0.2296 -0.0809 -0.0710
17251W        W32720  11.118  16.716   2.353  0.0643 -0.3581  0.0751
17252W        W32721   4.650  10.856  14.287 -0.1113  0.1461 -0.1750
17253W        W32722   7.265   0.095  15.186 -0.1253 -0.1880  0.1004
17254W        W32723  13.365  10.317  13.897 -0.0922 -0.3369  0.0475
17255W        W32724  11.579  12.428   1.176 -0.1898  0.0028  0.0626
17256W        W32725   5.073   6.431  14.737  0.4386  0.2445 -0.0987
17257W        W32726  18.291   2.323  10.870 -0.1206  0.2244  0.1003
17258W        W32727  15.459  13.902  13.532 -0.1478  0.1043 -0.0280
17259W        W32728  12.664  18.006   1.731 -0.1688 -0.2511 -0.1379
17260W        W32729  11.952  16.045  10.658 -0.2960 -0.0910  0.2607
17261W        W32730  12.022   4.550  13.220  0.0310 -0.1185 -0.2053
17262W        W32731  14.476   4.562  11.261 -0.1258  0.0540 -0.3330
17263W        W32732   8.463   5.473   0.654  0.3718  0.2360  0.1003
17264W        W32733  15.157   3.458   4.456  0.1549  0.2308  0.3298
17265W        W32734   1.373  16.649  10.771  0.0128  0.1388  0.0092
17266W        W32735   8.575   3.725   2.719 -0.1928 -0.0972 -0.1894
17267W        W32736  18.006   7.463   2.500  0.3481  0.0517 -0.0092
17268W        W32737  14.937   6.699   4.125  0.4157 -0.2000  0.2018
17269W        W32738   3.683  15.343   1.159  0.1447  0.0593 -0.1794
17270W        W32739   4.080   1.728  11.899 -0.0252 -0.1691  0.0835
17271W        W32740   0.593  17.541   1.799  0.0503  0.2873  0.1648
17272W        W32741   3.850  12.216  13.717  0.0351 -0.0112 -0.1224
17273W        W32742   3.642   5.441   5.194 -0.1704 -0.3115 -0.0845
17274W        W32743   7.089   4.044   4.414 -0.2265 -0.2106  0.1273
17275W        W32744  16.009   6.262   1.858 -0.3393 -0.1383 -0.1130
17276W        W32745   8.121  17.449   3.104  0.2981 -0.3114  0.3214
17277W        W32746  12.047  17.424  15.400 -0.3927 -0.4469 -0.0455
17278W        W32747   3.511   0.423   2.671  0.0149 -0.3491  0.0035
17279W        W32748  18.234  13.778  14.191 -0.2431 -0.4645 -0.3172
17280W        W32749   3.723   7.734  13.978 -0.0095  0.3552 -0.2363
17281W        W32750  17.122   9.565  12.905  0.1893 -0.2406  0.0063
17282W        W32751  17.348   1.999   0.694 -0.0280  0.0428 -0.0389
17283W        W32752  11.534  11.332  14.139 -0.1600  0.4102 -0.3218
17284W        W32753  15.609   3.851   3.278  0.0870 -0.2651 -0.1260
17285W        W32754  10.757   6.666  14.708  0.4346  0.1357  0.0904
17286W        W32755   8.181  14.945  12.720 -0.0546  0.1766 -0.0875
17287W        W32756  14.776  10.577   0.824 -0.0643  0.3013  0.0184
17288W        W32757   6.838   2.529   1.527 -0.4895 -0.1347 -0.0342
17289W        W32758   8.579  17.442  11.153 -0.2667 -0.0872  0.1717
17290W        W32759  18.028  16.460  14.810  0.2438 -0.0448 -0.1773
17291W        W32760   6.141   6.267   5.438 -0.0128 -0.0011 -0.0625
17292W        W32761   2.680  17.572  14.848 -0.2447 -0.3434 -0.1039
17293W        W32762  14.565   2.647  13.567 -0.2837 -0.2350  0.0268
17294W        W32763  17.662  10.924   2.676  0.0292 -0.2261  0.0162
17295W        W32764  13.281   0.285   0.646  0.3359  0.0674 -0.1228
17296W        W32765  14.968   0.858  12.952 -0.2624  0.2990  0.2026
17297W        W32766  12.741  17.561   1.978 -0.0341  0.1523 -0.0704
17298W        W32767  17.345   5.929   0.533  0.0048 -0.0065  0.1166
17299W        W32768  12.069   0.127  13.267  0.1283  0.1331 -0.0597
17300W        W32769   2.239   3.940   3.231  0.0815 -0.1918 -0.0616
17301W        W32770  12.576  16.431  14.424  0.0834 -0.1799  0.2318
17302W        W32771   4.038  15.001  13.949  0.0828 -0.3970  0.0547
17303W        W32772  13.528   3.308   3.765  0.0231  0.3524  0.2391
17304W        W32773   4.461   5.285  12.275 -0.1208  0.1569  0.1331
17305W        W32774   7.432   8.305  11.745  0.1927  0.2109 -0.0708
17306W        W32775   1.174   6.033   1.332 -0.2449  0.0625 -0.0327
17307W        W32776  18.293   5.648  11.051 -0.2010  0.3957 -0.1205
17308W        W32777   6.524  13.163  12.249  0.1188 -0.1817 -0.0720
17309W        W32778   8.397   9.438   3.792 -0.0963  0.0240 -0.0541
17310W        W32779  11.908   0.590   0.119  0.1840 -0.1185 -0.1509
17311W        W32780  12.439  13.046   3.880 -0.0471  0.1858 -0.2734
17312W        W32781   3.110   7.938   3.602  0.2250 -0.1313 -0.3280
17313W        W32782  17.790   3.364  13.140 -0.0952 -0.0721 -0.1566
17314W        W32783   7.812   6.278   4.650 -0.0682 -0.4211 -0.3956
17315W        W32784   2.755   4.222   1.022  0.2635 -0.1158  0.0847
17316W        W32785   4.150   2.456   0.110  0.2515 -0.2401 -0.3416
17317W        W32786   5.293   2.164  12.861  0.2167 -0.0990 -0.0307
17318W        W32787   2.734   9.061   4.788  0.2394 -0.0478  0.0640
17319W        W32788  16.956  15.343   4.462  0.0401 -0.0638 -0.2427
17320W        W32789   5.682   1.910  11.517  0.2270  0.0426 -0.2670
17321W        W32790  14.139  15.566   3.851  0.0531  0.4086  0.0671
17322W        W32791   2.191  10.450   1.056  0.2896 -0.0390  0.0574
17323W        W32792  11.582  13.609  15.777  0.1890 -0.0610  0.0361
17324W        W32793  10.209  13.661  11.413 -0.3160  0.0361 -0.0674
17325W        W32794  17.072   3.076  10.677  0.1440 -0.1036 -0.1944
17326W        W32795  13.523   4.386  11.649  0.0733  0.1037 -0.0305
17327W        W32796   2.565   7.821   1.934 -0.0902  0.0566 -0.0946
17328W        W32797   3.053   7.448  10.901  0.0619  0.0951  0.0642
17329W        W32798  11.144   4.353   2.865  0.1807 -0.0265  0.2096
17330W        W32799   5.209  17.910  14.745 -0.2535  0.3367 -0.2577
17331W        W32800   2.881  10.925  15.112  0.1346 -0.0198 -0.1531
17332W        W32801   9.219  15.285  12.144 -0.1130  0.2008  0.3733
17333W        W32802   4.439   2.758  13.135 -0.0603 -0.0399  0.1944
17334W        W32803  14.154   1.031  14.719  0.0561  0.1056 -0.1306
17335W        W32804   0.689  18.100  11.596 -0.1311 -0.1749  0.1123
17336W        W32805  13.245  12.317   2.669 -0.3474 -0.2131  0.3874
17337W        W32806   1.613   2.947  10.705  0.2216 -0.4752 -0.2837
17338W        W32807   9.980   3.061   1.767  0.0830  0.2091  0.0369
17339W        W32808  17.131   2.330   4.188 -0.0897  0.0758 -0.1537
17340W        W32809   0.522  12.542  13.430 -0.1024  0.1882 -0.3986
17341W        W32810   4.217   5.543  14.685  0.0797 -0.1940 -0.3876
17342W        W32811  12.805   2.771   3.236  0.0296 -0.1239  0.0361
17343W        W32812   8.934   2.823   0.053  0.3995  0.0055 -0.0203
17344W        W32813  10.075  17.087  15.005  0.1021  0.0385 -0.1766
17345W        W32814  12.870  15.853  15.617 -0.0816  0.0042  0.0743
17346W        W32815   6.212  10.783  14.741 -0.0635  0.5810 -0.1140
17347W        W32816   1.884   5.161   1.883 -0.1455  0.1011 -0.2626
17348W        W32817   6.821  11.060  12.357 -0.1643 -0.3843 -0.0149
17349W        W32818   8.732  11.701  15.059 -0.0073  0.1436  0.1927
17350W        W32819   6.589  10.057  12.791  0.1163 -0.0279  0.0044
17351W        W32820   3.228  11.252   3.419  0.0937 -0.0239  0.2115
17352W        W32821  17.833   0.127  14.005  0.0601 -0.1496  0.2250
17353W        W32822  10.426  17.955   5.592 -0.3111 -0.0538  0.0728
17354W        W32823  13.750  17.123   3.312  0.1391 -0.0065  0.2660
17355W        W32824  15.651  10.759   5.078  0.0503  0.0825  0.1619
17356W        W32825   1.233  15.533   5.758 -0.0353 -0.0320  0.2027
17357W        W32826  11.124  12.572   9.888 -0.1369  0.1470 -0.3301
17358W        W32827   1.454  14.721  11.487  0.0347 -0.1509 -0.1789
17359W        W32828  11.632  15.409   1.225  0.0881 -0.2109  0.2538
17360W        W32829   0.096  10.077   2.055 -0.0036  0.0869 -0.2494
17361W        W32830   8.754   9.769   4.661 -0.2152  0.0103 -0.2284
17362W        W32831  11.377  17.999   5.880 -0.0316 -0.0954 -0.2339
17363W        W32832  17.084  16.479  12.715 -0.0685 -0.2163 -0.0836
17364W        W32833  14.316   3.772   3.871  0.2024 -0.2371 -0.0339
17365W        W32834  16.393   5.440  13.043  0.1580  0.0181  0.0818
17366W        W32835  10.125  18.397  13.539 -0.3210  0.1709 -0.0882
17367W        W32836  14.741  16.441   3.771 -0.1036  0.0128 -0.2720
17368W        W32837   8.368  13.080  15.421  0.1371 -0.4904  0.0359
17369W        W32838   1.779  11.179  15.621 -0.1589  0.1408  0.1969
17370W        W32839   9.280  17.588   4.496  0.0773  0.0029  0.3227
17371W        W32840  15.439   6.301   9.330  0.1805  0.1278 -0.0419
17372W        W32841  15.032   7.640   4.489  0.1421  0.0230  0.1476
17373W        W32842   5.690   6.786  12.092  0.1164  0.1981  0.0042
17374W        W32843  10.035  12.686  11.506  0.2732 -0.1075  0.1711
17375W        W32844   5.217   7.577   0.190  0.2251 -0.1774  0.3375
17376W        W32845  13.013  17.684   4.432  0.2927  0.1703 -0.2792
17377W        W32846  15.381  11.487   5.585  0.0572 -0.2187 -0.3887
17378W        W32847   9.189  14.440  11.097 -0.2771 -0.4342 -0.0442
17379W        W32848  14.348  11.048  12.381  0.1271 -0.0318 -0.0443
17380W        W32849  17.099  16.305  13.614  0.1595  0.1507  0.1025
17381W        W32850   7.996  16.981  15.415  0.2309  0.0430 -0.1706
17382W        W32851   7.775   7.649  13.113  0.2482 -0.3003 -0.0971
17383W        W32852  11.242  11.460   0.277 -0.0336  0.1180  0.0201
17384W        W32853  13.083  16.834  12.372 -0.0257  0.2396 -0.2545
17385W        W32854  17.720  15.619   2.209  0.2589 -0.1173 -0.1114
17386W        W32855  15.054  14.185  15.554 -0.1785 -0.0935  0.1095
17387W        W32856  18.337   0.661  12.317  0.0109  0.2609 -0.1787
17388W        W32857   8.860  16.117   5.552 -0.1509  0.2971 -0.0691
17389W        W32858  11.316   5.128   5.317  0.0049  0.0983 -0.0601
17390W        W32859   1.633   7.337  12.745  0.1831  0.0438 -0.3602
17391W        W32860  10.341   0.946   6.459  0.2515  0.2281  0.3380
17392W        W32861   7.021  15.683  12.767  0.1155 -0.4628  0.0036
17393W        W32862  10.031  12.827  13.367 -0.0770  0.2624 -0.1305
17394W        W32863  15.640  14.083   6.179 -0.0865 -0.1290 -0.0618
17395W        W32864   2.114  13.268   2.639 -0.2864 -0.0696 -0.3417
17396W        W32865   5.759   2.166  13.226  0.0659 -0.2153 -0.1910
17397W        W32866   0.015  17.215   5.205 -0.0022  0.2696  0.1551
17398W        W32867   4.021   9.618   9.070  0.0283  0.0083 -0.2112
17399W        W32868  13.644  18.450  14.683  0.0234  0.0005  0.2293
17400W        W32869  17.068   3.317  14.459 -0.1138  0.0103  0.1431
17401W        W32870   4.980   3.664  12.798  0.2292  0.0284 -0.3014
17402W        W32871  15.454   9.760  13.867 -0.0976  0.0415  0.0886
17403W        W32872  10.704   2.035  14.871 -0.1957  0.1673  0.1884
17404W        W32873   1.436   7.804  15.035  0.1161  0.0849 -0.0723
17405W        W32874  11.102  14.669  11.272  0.4583 -0.1488  0.1331
17406W        W32875  11.052   4.365  15.545 -0.0575 -0.1530 -0.0754
17407W        W32876   6.020  17.254  14.040  0.1618  0.0324 -0.2086
17408W        W32877   6.802   8.293  10.049  0.0303 -0.1702  0.3693
17409W        W32878  14.963   9.872   3.825 -0.0418  0.1269 -0.3020
17410W        W32879   6.603   8.833  13.791 -0.0465  0.1506  0.1433
17411W        W32880   9.006   4.262  12.685  0.0756 -0.1471 -0.3658
17412W        W32881  13.555  11.223   3.963  0.0369 -0.0236  0.1743
17413W        W32882   7.985   3.395   0.770 -0.0309 -0.3135 -0.0387
17414W        W32883   3.963   4.092  14.824  0.1313  0.0266  0.2708
17415W        W32884   0.109  11.607  15.638  0.0719 -0.3179  0.0189
17416W        W32885  15.465  15.940  14.374 -0.1639 -0.2082 -0.2113
17417W        W32886   7.454   9.253   1.533  0.1349 -0.2797 -0.1131
17418W        W32887  11.778  10.850  11.311 -0.3451 -0.0155  0.1463
17419W        W32888   1.839  14.096   1.235  0.1232 -0.0601  0.3696
17420W        W32889   6.050  16.889   5.141 -0.3741 -0.2711 -0.1511
17421W        W32890   4.843   5.586   0.062  0.1975  0.0290  0.1144
17422W        W32891  17.158  17.725   5.214  0.0308 -0.0132  0.3138
17423W        W32892  16.933   6.834   4.804 -0.2185  0.1452  0.2565
17424W        W32893  14.235  12.112   2.012  0.1783 -0.2643 -0.1998
17425W        W32894   0.892  11.058   0.540 -0.1440 -0.2715  0.0894
17426W        W32895   5.592  12.095  10.944 -0.4009  0.2623  0.3249
17427W        W32896   5.687  18.153  12.367  0.2448  0.1372  0.0090
17428W        W32897   6.373  15.834  10.657 -0.2936  0.1762 -0.0264
17429W        W32898   9.914  13.954  10.778  0.1828 -0.4403  0.1680
17430W        W32899  12.088  12.239  15.437 -0.3349  0.0027 -0.0143
17431W        W32900  13.283   6.885  13.156 -0.2973 -0.0305  0.0248
17432W        W32901  13.295  14.826   0.791  0.2243  0.0681  0.3777
17433W        W32902   4.655  14.259  15.727  0.0791  0.0152 -0.2363
17434W        W32903  15.033  16.781   4.675  0.0911 -0.2956  0.2892
17435W        W32904   0.862   0.350   0.693  0.0222 -0.0326 -0.0767
17436W        W32905   3.384  15.805  10.525 -0.1203  0.1430  0.1465
17437W        W32906  17.144   0.277  13.516 -0.1954  0.1305 -0.5280
17438W        W32907   3.927  16.443   5.053  0.0091  0.1028 -0.0592
17439W        W32908   0.567  15.542   3.865  0.2153 -0.2298 -0.2751
17440W        W32909   8.794   6.093  13.043 -0.1009 -0.0855  0.0013
17441W        W32910   8.699   6.970  12.936  0.0109  0.3046  0.0325
17442W        W32911  12.807  14.701   0.798 -0.0085  0.1592 -0.0712
17443W        W32912   5.601   1.049   2.501 -0.0840  0.3451  0.2234
17444W        W32913  16.480  15.282   3.052 -0.0034  0.2902 -0.1230
17445W        W32914   0.711  17.516   0.795 -0.1321 -0.0807  0.0303
17446W        W32915  14.185  18.447   3.009  0.1031  0.0003  0.1064
17447W        W32916  17.191   6.197  15.596 -0.3562 -0.0005 -0.0375
17448W        W32917   4.795   4.321  12.537 -0.1892 -0.2544 -0.2590
17449W        W32918   1.591   5.147  13.417 -0.0587  0.3217 -0.0879
17450W        W32919   7.635  17.400  14.613  0.3399  0.0923 -0.4164
17451W        W32920  13.676   8.837  15.407 -0.1398  0.0108 -0.0570
17452W        W32921   0.469  15.427  14.533  0.0022 -0.0296  0.0908
17453W        W32922  13.653  13.460   0.981  0.3443 -0.0078  0.1863
17454W        W32923   8.836  15.585  14.801 -0.0983 -0.0105 -0.2026
17455W        W32924   0.972   8.866  10.450  0.1545  0.0740  0.1746
17456W        W32925   5.956   2.425   2.816  0.4845  0.0691 -0.2822
17457W        W32926  13.729  16.955  13.758  0.3603 -0.4157  0.4240
17458W        W32927   1.728  18.146   5.567  0.1941  0.2288 -0.2489
17459W        W32928  10.130  14.391  14.034 -0.1274 -0.0267 -0.1263
17460W        W32929   8.593  11.865   0.580 -0.3939 -0.1955 -0.1163
17461W        W32930   4.900   8.843  11.247  0.0400  0.3002 -0.3426
17462W        W32931   1.537   6.717  10.959 -0.0302  0.2229 -0.0525
17463W        W32932  10.308   4.040   3.964  0.1014 -0.1788 -0.0980
17464W        W32933   5.762  14.863   0.963  0.1810 -0.0517  0.3585
17465W        W32934  16.171   2.478   4.644  0.2855 -0.1610  0.0364
17466W        W32935   0.217  10.725   1.093 -0.0129  0.2808  0.0045
17467W        W32936  13.589  14.161  15.274 -0.1496 -0.0391  0.1333
17468W        W32937   5.614   7.530  12.725 -0.2641 -0.1069  0.0474
17469W        W32938  13.411  13.421  12.162  0.2185 -0.0342  0.0699
17470W        W32939  14.052  14.905   0.908  0.2604  0.0169  0.2197
17471W        W32940   0.160   0.096   4.627  0.2240 -0.0414  0.1487
17472W        W32941   3.037   1.680   1.473  0.3313 -0.0160  0.1729
17473W        W32942   6.988  17.785   5.513 -0.2715  0.1422 -0.0167
17474W        W32943  13.443   0.453  11.887  0.2441 -0.2487 -0.3492
17475W        W32944  14.354  17.766  15.127 -0.1955  0.2459  0.2109
17476W        W32945   4.843   0.926  12.275  0.3608  0.0754  0.1507
17477W        W32946   3.803   1.992  11.559 -0.1201 -0.2463 -0.2021
17478W        W32947  18.116   4.619   1.332 -0.2226  0.2297  0.0629
17479W        W32948  14.018  15.041   4.995  0.0013 -0.0449  0.0681
17480W        W32949  16.082   8.049  13.309 -0.1987 -0.0304  0.0055
17481W        W32950  15.208   1.142   1.976 -0.1745  0.0243 -0.3277
17482W        W32951   7.181   3.055  11.454  0.1404 -0.1140  0.2823
17483W        W32952   9.218  10.169   2.721 -0.1221 -0.4340 -0.0772
17484W        W32953  11.825  14.912  13.438  0.1513  0.0274  0.2939
17485W        W32954   9.554  13.157  12.628  0.0294 -0.0993 -0.0870
17486W        W32955   9.550  14.635  14.115  0.0099  0.0719  0.1386
17487W        W32956  10.286  14.360  13.051  0.0875  0.0497 -0.1291
17488W        W32957   0.423  11.030  11.313  0.0764 -0.0632  0.0474
17489W        W32958  13.334   3.864   5.559 -0.1919  0.2006  0.1426
17490W        W32959   1.262   1.310   3.353  0.1357  0.2770 -0.4186
17491W        W32960  18.049   9.133   9.837 -0.0510  0.0792 -0.2655
17492W        W32961   3.539   9.846  14.901  0.3274  0.4150  0.2405
17493W        W32962   6.601   4.487   2.893  0.0901 -0.0258 -0.0808
17494W        W32963   7.105   7.454  15.210  0.5327 -0.0231  0.3494
17495W        W32964  13.334   5.695   5.058  0.1748 -0.2976  0.0742
17496W        W32965  18.322  10.288  10.709 -0.0134 -0.0770 -0.0080
17497W        W32966  14.668   7.877  15.378  0.3218 -0.1728 -0.0439
17498W        W32967   9.460   7.514  14.453 -0.1935 -0.1416 -0.3574
17499W        W32968   0.512   7.438   3.625  0.1484  0.1117  0.0868
17500W        W32969   4.330   7.481   4.007 -0.0377  0.2849  0.1191
17501W        W32970   8.400   2.437  11.615 -0.1889 -0.0866  0.0444
17502W        W32971  11.205  11.207  13.765  0.1537 -0.0390  0.0224
17503W        W32972   1.907   5.871  15.311  0.0994 -0.3387  0.1469
17504W        W32973   0.642  16.216   1.348 -0.0054  0.0213 -0.1043
17505W        W32974   1.681   6.516  10.444  0.1267  0.2088 -0.0306
17506W        W32975   9.787  14.094   5.808  0.2298  0.1640  0.0674
17507W        W32976   5.965   3.796   4.386  0.0110 -0.4088  0.2909
17508W        W32977   0.574   5.296  15.682 -0.0228  0.1387 -0.2174
17509W        W32978  16.661  13.986  15.442 -0.1615  0.3234 -0.5409
17510W        W32979  15.418   2.263   4.588 -0.3154  0.0563  0.0007
17511W        W32980   3.103   8.532   3.389 -0.0151 -0.2235  0.1722
17512W        W32981   4.552  12.059  14.838 -0.0525  0.1676 -0.1244
17513W        W32982  12.462   3.562   0.718  0.0041 -0.0412 -0.1102
17514W        W32983   2.225  11.284  13.512  0.3567  0.1178  0.2041
17515W        W32984  14.939  12.777   1.923 -0.3989 -0.0443 -0.2993
17516W        W32985   5.869   0.858   4.915  0.2068  0.3059  0.1423
17517W        W32986   9.251   8.798  10.442 -0.0377  0.1473 -0.1417
17518W        W32987   0.539   8.489  14.242 -0.0425  0.1022  0.3693
17519W        W32988   3.726   1.083  10.630 -0.1009 -0.3952 -0.0415
17520W        W32989   9.512  15.051  11.237 -0.1193  0.1668  0.1893
17521W        W32990   2.185   6.943   9.978 -0.2279  0.0034  0.3535
17522W        W32991   2.445   5.486  13.272 -0.0773  0.0491 -0.1251
17523W        W32992   8.281  10.472   1.559 -0.2644  0.0104 -0.0550
17524W        W32993   3.841  17.247  15.444 -0.1672  0.0372  0.1101
17525W        W32994  10.377  15.018   3.338 -0.0704 -0.1012 -0.0988
17526W        W32995   9.529   8.372  14.051  0.2104 -0.0560  0.2291
17527W        W32996  15.045  16.986  11.770  0.1494  0.3904 -0.2227
17528W        W32997  11.147  13.952  15.682 -0.2185  0.2296 -0.1443
17529W        W32998   8.297   0.350   1.174  0.0789 -0.1724  0.1854
17530W        W32999   3.454  16.774   4.265  0.2777  0.0337 -0.1970
17531W        W33000   0.082  14.574  11.144  0.0116  0.3973  0.0691
17532W        W33001  15.155  11.946  12.135 -0.1562 -0.0924 -0.1869
17533W        W33002  13.437  14.878  11.720 -0.0655  0.3501  0.1009
17534W        W33003  12.929   2.600   0.135  0.0427 -0.3156 -0.1969
17535W        W33004   4.490   2.288   4.246  0.0523  0.1201  0.1761
17536W        W33005   5.403   8.535   2.373  0.0213 -0.1730  0.0249
17537W        W33006   1.575  10.824  12.885  0.1459 -0.3329  0.3726
17538W        W33007  12.628  11.140   2.104 -0.0280 -0.2583 -0.1695
17539W        W33008   4.159  10.422   0.574  0.2275 -0.0016  0.2070
17540W        W33009  17.117   8.722   1.642 -0.2077  0.3231  0.0548
17541W        W33010   3.853  14.844   0.586 -0.1274  0.0888  0.3862
17542W        W33011   0.738  13.155  10.169  0.1657 -0.1465 -0.0959
17543W        W33012   0.144   5.571  10.847  0.1339 -0.2078 -0.0980
17544W        W33013  10.669   7.599  12.683  0.0528  0.1944  0.3304
17545W        W33014   3.559   8.642  11.057  0.2087  0.0956 -0.1133
17546W        W33015  16.209  16.462   0.335  0.0965 -0.0760  0.1834
17547W        W33016   9.985  15.677  14.753  0.0040 -0.2822  0.0395
17548W        W33017  14.344  12.885  14.191 -0.0284 -0.1490  0.1511
17549W        W33018   3.474  12.573  13.537  0.2161 -0.1154  0.0749
17550W        W33019   9.611   2.087   1.104  0.5299  0.3894  0.1895
17551W        W33020  16.748   1.279   6.314 -0.0212 -0.0346 -0.0460
17552W        W33021  11.796   2.432   4.457  0.0038 -0.1006 -0.0819
17553W        W33022   4.678   0.073   3.628 -0.0393 -0.3993 -0.0477
17554W        W33023  16.094  16.082   1.306  0.0701  0.0412  0.3785
17555W        W33024  10.680   7.946  12.078 -0.2500  0.0569 -0.2036
17556W        W33025   8.600   8.770   1.693 -0.0906  0.0482  0.1142
17557W        W33026  18.101   0.961  13.510 -0.0750 -0.1653 -0.2001
17558W        W33027  12.171  12.576   4.916  0.0226 -0.1366 -0.1985
17559W        W33028  13.488   4.474  13.618 -0.2405 -0.1086  0.0717
17560W        W33029   6.599   7.856   2.770 -0.0228 -0.0022  0.0067
17561W        W33030  11.554  15.885   1.461 -0.1069 -0.0719 -0.0620
17562W        W33031   8.445   0.956  13.159 -0.0465  0.1946  0.4811
17563W        W33032  15.466  14.298  12.028  0.2566 -0.2252 -0.0975
17564W        W33033  18.013   6.515  15.287  0.0245  0.0300  0.2003
17565W        W33034  17.456  15.990   2.452  0.2916 -0.2186 -0.0107
17566W        W33035   5.782   3.118   3.679 -0.2041  0.3360 -0.2480
17567W        W33036  14.521   2.516   2.882  0.3697  0.2306 -0.1136
17568W        W33037   2.175   2.266   3.584 -0.0104  0.2642 -0.0402
17569W        W33038   6.118   9.540  15.606 -0.1598  0.0094 -0.0016
17570W        W33039   3.198  11.842  15.353  0.0124  0.1952 -0.0366
17571W        W33040  13.685  12.001  12.148  0.0617  0.1911  0.1733
17572W        W33041   7.635   8.832   1.315  0.2486  0.1124 -0.0420
17573W        W33042  10.563   2.073  12.136 -0.0067  0.2256 -0.1593
17574W        W33043   9.214   2.140   0.769  0.1717  0.0955 -0.0898
17575W        W33044  17.255   3.187   4.721 -0.1124 -0.0728 -0.0758
17576W        W33045   1.902  10.537   0.611 -0.0964  0.1332 -0.2011
17577W        W33046  11.076  17.556   2.874  0.0207  0.2007  0.0556
17578W        W33047  17.266  10.970  15.734 -0.3115  0.3171  0.2970
17579W        W33048   2.888   3.095  11.194 -0.0341  0.1982 -0.0480
17580W        W33049   8.966  10.257   4.620  0.1595  0.2254 -0.0604
17581W        W33050   9.369   7.674   0.930  0.2671  0.2471  0.2095
17582W        W33051  15.000  15.817   2.882 -0.3847 -0.1276 -0.0575
17583W        W33052   8.052   5.279  10.951  0.3345 -0.3095  0.1495
17584W        W33053  10.151   2.051  12.498 -0.0169 -0.1114  0.0095
17585W        W33054   9.156   2.412  12.447 -0.3327  0.2287  0.0993
17586W        W33055   7.090   0.455  15.623  0.2521 -0.1193 -0.2189
17587W        W33056   1.542  18.253  14.937 -0.1381  0.0262 -0.0263
17588W        W33057   5.566   0.276  11.142 -0.1959 -0.0944 -0.0318
17589W        W33058   0.150   6.567  11.202  0.1846  0.1628  0.1562
17590W        W33059   8.279   1.696   5.292  0.1979  0.0312  0.2052
17591W        W33060  14.621  10.756  10.783  0.1789  0.0069 -0.2997
17592W        W33061   2.639  17.220  11.188 -0.2725  0.1241 -0.1564
17593W        W33062  13.738  13.779  13.645  0.0472 -0.0673 -0.4172
17594W        W33063   1.967   0.451  14.600 -0.0794  0.0465  0.2341
17595W        W33064  13.978   8.858  12.442 -0.2588  0.1247 -0.0611
17596W        W33065   2.906  17.691   4.996  0.0900  0.1800  0.1509
17597W        W33066   7.000  18.529  12.112 -0.0781 -0.1560  0.0614
17598W        W33067   2.441   5.726  11.167 -0.0455 -0.1296 -0.3879
17599W        W33068   2.317   9.672  15.103  0.2045  0.0757 -0.3271
17600W        W33069   9.505  17.706  12.048 -0.1355 -0.0928 -0.0981
17601W        W33070  18.471   0.972  15.198  0.1959 -0.2845  0.1618
17602W        W33071  14.939   6.264  11.211 -0.0125 -0.1104 -0.2647
17603W        W33072  15.601   5.612   3.091 -0.3852 -0.0370  0.1314
17604W        W33073   1.728  17.757  14.198  0.0104  0.1896 -0.0763
17605W        W33074   4.621   6.133  11.193 -0.0654 -0.0844 -0.0986
17606W        W33075  17.737   8.775  13.879 -0.2641  0.2269  0.0964
17607W        W33076   1.524   0.511  14.386  0.2319 -0.0170  0.3046
17608W        W33077  12.846  18.544  13.007 -0.1064  0.1950  0.1977
17609W        W33078   4.756  12.009   3.570 -0.0199  0.0944 -0.0713
17610W        W33079   5.461  17.605   3.526 -0.2178 -0.0026 -0.0259
17611W        W33080  10.757  14.041   4.279  0.0876 -0.0504  0.0690
17612W        W33081  11.703   2.254  11.539 -0.0969  0.0097 -0.1145
17613W        W33082  17.919  11.488   2.265  0.0412  0.1519  0.3717
17614W        W33083  11.284  13.671  14.137 -0.4766 -0.0170  0.1515
17615W        W33084   1.244  14.209   0.575  0.3861 -0.3143 -0.0249
17616W        W33085   7.216  13.757   4.572 -0.0955 -0.1818 -0.1894
17617W        W33086  14.128   9.079  13.221 -0.1979  0.1980  0.3679
17618W        W33087   6.552   1.115   3.536 -0.2631 -0.1383  0.0417
17619W        W33088  14.774   7.478   2.853 -0.4045  0.0562  0.2452
17620W        W33089  13.049  15.022   4.890  0.0184 -0.1435  0.2578
17621W        W33090   3.048  15.392  12.367 -0.4199  0.2315 -0.3115
17622W        W33091   5.455   0.324  14.762  0.1646  0.0329 -0.0254
17623W        W33092   8.657   8.180   4.300 -0.0163 -0.1715  0.0380
17624W        W33093  12.274  16.227  14.759 -0.0288  0.3535 -0.4561
17625W        W33094  11.950  17.753  13.267  0.0329  0.2011  0.0035
17626W        W33095   8.725  11.833   3.253 -0.0451 -0.0994  0.1071
17627W        W33096  11.918  10.147  15.430  0.2105  0.0364 -0.2061
17628W        W33097  13.221   4.851  13.975 -0.0854  0.2356 -0.2933
17629W        W33098   5.040   9.139   0.783 -0.0773  0.0991 -0.2033
17630W        W33099  11.278   0.180   5.925 -0.1360 -0.3248 -0.3611
17631W        W33100  11.438   5.402   2.348 -0.2602  0.0928 -0.0394
17632W        W33101   2.673   8.469  14.641  0.0295  0.1746 -0.2676
17633W        W33102  15.741   1.081   0.825 -0.2590 -0.1715 -0.0011
17634W        W33103   7.357   2.319  12.969  0.3622  0.1558 -0.0090
17635W        W33104   4.188   7.692  11.045  0.1627  0.1357 -0.1139
17636W        W33105  14.458   9.972   2.641 -0.0466 -0.4401  0.0854
17637W        W33106  15.669   5.504  11.240  0.1179  0.1937  0.2793
17638W        W33107   1.111   7.977   2.536 -0.0208  0.0174 -0.1820
17639W        W33108  13.474  17.946   2.384 -0.1244 -0.1852 -0.0290
17640W        W33109   1.464   5.920   2.344  0.1179 -0.1336  0.1088
17641W        W33110  12.198   4.130   3.437 -0.1299 -0.0679 -0.0389
17642W        W33111  15.504   7.473  10.510 -0.1342 -0.0000 -0.1268
17643W        W33112   5.040  13.834   2.618  0.2457  0.1337 -0.0669
17644W        W33113   2.280   5.946  13.450 -0.1787 -0.2126 -0.0860
17645W        W33114   2.553   6.157   0.757 -0.3445  0.0281  0.0376
17646W        W33115  12.091   5.313  15.355  0.1226 -0.0036 -0.0201
17647W        W33116   1.127  11.520   2.892  0.1671  0.1045  0.0351
17648W        W33117   8.697  12.152  12.338 -0.1235 -0.0176 -0.2790
17649W        W33118  12.448   8.549   3.887 -0.0485  0.1616 -0.2249
17650W        W33119   3.619  17.621  10.245 -0.0440  0.0151 -0.2653
17651W        W33120  14.983  18.409   1.175 -0.0613  0.1016 -0.1909
17652W        W33121   0.942  14.239  13.268 -0.1668 -0.0979  0.1634
17653W        W33122  11.090  18.357   6.049  0.0613  0.1366  0.0094
17654W        W33123   6.772   0.757   6.089  0.1011  0.1855 -0.0766
17655W        W33124   6.945   0.928  12.425  0.1840 -0.1624 -0.0524
17656W        W33125   6.910   5.225  11.069  0.0511  0.0550  0.2402
17657W        W33126   9.453   5.815   5.153  0.1199  0.0858 -0.1414
17658W        W33127  12.485   5.157  11.144  0.0409  0.0217 -0.1094
17659W        W33128  13.645   6.537  13.702  0.2625 -0.1802 -0.0817
17660W        W33129   5.128   1.972  14.197  0.1448 -0.1395 -0.0683
17661W        W33130  17.642  15.911   3.285 -0.2465  0.0459 -0.0666
17662W        W33131   9.994  14.872  14.097  0.0221  0.1622  0.1527
17663W        W33132   0.082  11.531   5.528 -0.3793  0.2352  0.3535
17664W        W33133  17.062   8.988   4.555  0.1504 -0.0554  0.1504
17665W        W33134  18.231  14.734   2.685 -0.1031  0.0353  0.0727
17666W        W33135   0.154  12.170   0.533  0.1248 -0.1928  0.1054
17667W        W33136  13.059  11.301  14.104 -0.1500 -0.2043 -0.0755
17668W        W33137   3.364  11.704   1.548 -0.1499  0.0564 -0.3000
17669W        W33138  16.936   2.768   3.724  0.0832 -0.0347  0.0705
17670W        W33139   7.492   9.043   5.814 -0.1959  0.0694 -0.0454
17671W        W33140  13.726   9.216   1.677 -0.0947  0.0575  0.2491
17672W        W33141   7.695  17.681   2.969 -0.1928  0.2494  0.5244
17673W        W33142   1.875   0.214  15.239 -0.0215 -0.2515 -0.0789
17674W        W33143  10.391   9.456   4.361  0.1851 -0.0592 -0.0658
17675W        W33144   5.518   5.892   2.071  0.0689 -0.4697 -0.0777
17676W        W33145   2.156   9.943   0.883  0.0762  0.1143 -0.0603
17677W        W33146   2.567  10.946   4.989 -0.2889 -0.0269  0.0461
17678W        W33147   9.960  17.881   1.825  0.0231 -0.1126  0.2698
17679W        W33148  12.291   9.670  12.938 -0.0018 -0.0733 -0.2567
17680W        W33149   7.962   9.294   2.568 -0.0225  0.2259  0.0488
17681W        W33150  14.210  13.536  13.643  0.1133 -0.2197  0.0115
17682W        W33151   9.779  14.876   5.962  0.1818  0.0440  0.0943
17683W        W33152   8.117  12.968  14.502  0.0067  0.2637  0.0836
17684W        W33153  13.199   2.723  13.977  0.4269  0.0550 -0.1424
17685W        W33154   9.990   9.273  14.069  0.1641  0.1601  0.1678
17686W        W33155  10.486   4.393   1.596 -0.1086 -0.3445 -0.1861
17687W        W33156   8.916   0.676   0.684 -0.1506 -0.0556  0.0477
17688W        W33157   4.700   4.841  14.394  0.1968  0.2352 -0.1569
17689W        W33158  13.506   6.700   5.167  0.1334 -0.2831  0.4301
17690W        W33159  13.652   6.134   4.334  0.0003 -0.0045  0.1852
17691W        W33160   7.312   6.483  14.248  0.0445 -0.0967  0.2681
17692W        W33161  10.932  17.410  14.816  0.0418 -0.2447  0.1408
17693W        W33162  13.631   6.702  11.374 -0.1340  0.1225  0.0213
17694W        W33163  10.076  14.103  15.757  0.3013  0.2713  0.1162
17695W        W33164   3.126   6.363  13.190  0.3137  0.0795 -0.0103
17696W        W33165  10.349  14.534  13.611  0.0878 -0.1142  0.4507
17697W        W33166  14.488  14.752   2.284 -0.1279  0.0068  0.3036
17698W        W33167  18.028   1.987  12.394 -0.0177  0.0376  0.1625
17699W        W33168  11.293   7.605   5.054  0.2598  0.2839 -0.1426
17700W        W33169   5.338  13.239   3.249 -0.2250 -0.1033 -0.2607
17701W        W33170   5.056  14.614   3.364  0.0190 -0.1518 -0.2339
17702W        W33171  12.590  16.716   2.052  0.2301 -0.0957 -0.0684
17703W        W33172  14.908   1.056  11.997  0.0068 -0.1647 -0.0651
17704W        W33173   8.392  15.579   1.849 -0.0606  0.0301  0.1547
17705W        W33174  14.213   8.725   0.563 -0.0602  0.0772  0.3233
17706W        W33175  14.931  13.694   1.763  0.0975 -0.1528 -0.1424
17707W        W33176   4.370  11.422  11.209  0.3007  0.2036 -0.2123
17708W        W33177  11.503  12.986  12.292 -0.2726 -0.1417  0.0799
17709W        W33178   7.030   1.855   1.856 -0.0666  0.0774  0.3875
17710W        W33179  17.615   7.837  12.450  0.1152  0.1726  0.1711
17711W        W33180  11.322   1.589  10.950 -0.3126  0.0453  0.2338
17712W        W33181   2.420  13.443  14.981 -0.3663 -0.0092  0.0809
17713W        W33182   7.971   0.690  15.236 -0.0729  0.1837 -0.1801
17714W        W33183  11.549   9.390   5.119  0.1173 -0.0879  0.0070
17715W        W33184   2.508  10.509   3.819 -0.0982  0.1387  0.1338
17716W        W33185   6.686   3.337   2.421  0.5380  0.2284 -0.0662
17717W        W33186   1.221   2.931   1.010  0.0217  0.0669  0.3873
17718W        W33187   9.651  10.021  13.062 -0.2543 -0.0973 -0.0406
17719W        W33188   4.437  18.416  13.822  0.1615  0.2511 -0.0803
17720W        W33189   5.046   9.315   4.211 -0.2283  0.0330 -0.3493
17721W        W33190   5.841  17.720  13.817  0.2972 -0.0766 -0.1003
17722W        W33191  16.703  10.337  10.371 -0.0613 -0.1377 -0.2605
17723W        W33192  17.727   4.337  15.373 -0.1495  0.1047 -0.0195
17724W        W33193  18.111   3.856  13.255  0.3751  0.1320  0.0530
17725W        W33194  17.235  17.550   1.462  0.5307 -0.2551 -0.0831
17726W        W33195  10.159   5.894   0.089  0.0220  0.1124  0.1574
17727W        W33196  18.022  14.269  10.641  0.0761 -0.2612  0.0925
17728W        W33197   2.255  17.807  14.233  0.1321  0.0258 -0.1544
17729W        W33198   0.196   3.642  11.702  0.1251 -0.1684 -0.0914
17730W        W33199   3.319  16.231   4.517 -0.0449 -0.2653 -0.1972
17731W        W33200   9.022  15.281  10.836  0.0813 -0.1237  0.1939
17732W        W33201   2.097   2.631  11.924 -0.1381 -0.0413 -0.1659
17733W        W33202   2.947   3.775  12.547 -0.1288 -0.2213 -0.0231
17734W        W33203   2.614  14.674   4.489  0.0666 -0.2942  0.0689
17735W        W33204  15.187   1.802  11.598 -0.0572 -0.0870  0.0043
17736W        W33205   4.946   6.508   3.191  0.1678  0.1026 -0.3881
17737W        W33206   5.963   9.270   0.735  0.0613  0.0914 -0.0126
17738W        W33207  13.615   7.663   0.624  0.0249 -0.0030  0.1671
17739W        W33208   3.705   4.473   0.242 -0.1257  0.1371 -0.1506
17740W        W33209   8.539   4.122  11.190 -0.0277 -0.1267 -0.1654
17741W        W33210   6.421  12.489   1.409  0.0598  0.0089 -0.0074
17742W        W33211   4.053  11.184   4.038 -0.0853 -0.2202 -0.1526
17743W        W33212   0.950  13.731  12.750 -0.3895 -0.0245 -0.1518
17744W        W33213  16.771  11.708   0.354 -0.0970 -0.2645  0.0417
17745W        W33214  16.189   6.029  11.076 -0.0866 -0.0550  0.1291
17746W        W33215   8.597   0.483  13.320 -0.2242  0.0511 -0.0758
17747W        W33216   6.343  17.484   3.255 -0.0964 -0.0109  0.0569
17748W        W33217   8.027   2.466  15.254 -0.0457  0.1635  0.1575
17749W        W33218  14.226  11.506  14.104  0.1849 -0.1738  0.0368
17750W        W33219  11.855   8.552   0.409 -0.0485  0.3098  0.2232
17751W        W33220  11.073   9.446   1.189  0.1884 -0.1224 -0.0258
17752W        W33221  18.030  11.552   0.984 -0.1478  0.0878 -0.0974
17753W        W33222   9.296   2.449   2.026  0.1152 -0.1544 -0.2380
17754W        W33223   8.632   3.011   1.545 -0.2203  0.2976 -0.0085
17755W        W33224   6.320  16.924  10.915  0.3855 -0.0232  0.1581
17756W        W33225  14.143  17.583   3.217 -0.0723 -0.0253  0.0808
17757W        W33226   6.882   4.637  15.496 -0.0999  0.1115  0.3243
17758W        W33227   7.391   6.905  13.053 -0.1604 -0.0594  0.0096
17759W        W33228   2.482   5.688   2.470 -0.0788 -0.1189 -0.1046
17760W        W33229   8.536  15.331  13.376 -0.1442 -0.2005 -0.0567
17761W        W33230   7.941   2.411  11.762 -0.0299  0.0582  0.0918
17762W        W33231   9.694  15.902   4.738 -0.0321 -0.2158 -0.1469
17763W        W33232   4.588   5.127   0.337 -0.2456  0.3783 -0.2658
17764W        W33233   1.822   8.813  15.337  0.1566  0.1556  0.1577
17765W        W33234  12.253   7.849   5.753 -0.1898 -0.0821  0.3473
17766W        W33235  14.835   4.466  10.911  0.0870 -0.3534  0.1393
17767W        W33236   9.013   8.974   4.926  0.0704 -0.0640 -0.5906
17768W        W33237   6.354   9.696   0.783 -0.1322 -0.1486  0.2742
17769W        W33238  17.376   0.695  12.150  0.0507  0.1211  0.0779
17770W        W33239   5.909   4.952  11.476  0.2789 -0.0168 -0.0418
17771W        W33240   7.344  10.107  13.484  0.2562 -0.1174 -0.0059
17772W        W33241  13.699   6.593   1.405  0.0835 -0.1779 -0.2327
17773W        W33242   6.233  16.450   3.836 -0.1947  0.0989 -0.2347
17774W        W33243  17.689   9.140  12.542  0.0926 -0.2323  0.2295
17775W        W33244  10.048   2.156  13.927  0.0255  0.2505  0.1750
17776W        W33245  14.117  18.449  12.039  0.1077  0.2912 -0.0628
17777W        W33246   5.068   2.241   3.726  0.1956 -0.0067 -0.0423
17778W        W33247   7.896   1.523   2.956 -0.2110  0.2702  0.2021
17779W        W33248  12.278  15.619  14.766  0.0284  0.0251  0.0586
17780W        W33249   5.692  13.472  13.720  0.1417  0.0201 -0.0492
17781W        W33250   4.974   6.181  14.206  0.3658 -0.3300  0.0865
17782W        W33251  10.321  17.630  14.187  0.2399 -0.3845 -0.1870
17783W        W33252   9.432  16.714  15.454 -0.0353 -0.1520  0.1160
17784W        W33253  16.897   6.917   4.310  0.2303 -0.3541  0.0319
17785W        W33254   5.111   0.843   0.420 -0.0922 -0.1569 -0.2398
17786W        W33255   6.642   0.067   2.832 -0.1381  0.0458  0.1995
17787W        W33256  14.607  17.638  11.312 -0.3234  0.2313  0.0251
17788W        W33257  12.697  14.124   2.404  0.0562  0.0648  0.1076
17789W        W33258   4.068  10.845   4.437 -0.2797 -0.1926  0.1665
17790W        W33259   1.697  16.851  12.321  0.1370  0.1798  0.0987
17791W        W33260   8.799   9.662   3.600  0.0131  0.0532  0.0412
17792W        W33261   2.846  10.258   0.613  0.1533 -0.0159  0.0152
17793W        W33262   3.413  15.097  13.338 -0.2199 -0.0067  0.2106
17794W        W33263  17.484  16.103  15.380 -0.0731  0.0719 -0.0255
17795W        W33264  11.086   2.893   1.840 -0.1387 -0.0849 -0.1070
17796W        W33265   5.347  10.781  12.521 -0.2154  0.0873 -0.0701
17797W        W33266   3.864   2.204  13.889  0.0481 -0.1314  0.1934
17798W        W33267  11.770  18.048  10.658 -0.0928  0.0104 -0.0713
17799W        W33268   3.396  12.167  11.950  0.1041  0.2290  0.1188
17800W        W33269  18.266   7.685   0.805 -0.1832 -0.1613 -0.1563
17801W        W33270  11.021   3.694   6.037  0.0560 -0.0183 -0.4750
17802W        W33271   8.772  16.064  14.811  0.0556 -0.0996 -0.3066
17803W        W33272  13.478  14.339  11.722 -0.0924  0.2880 -0.2460
17804W        W33273   7.404   4.856   0.380 -0.2757 -0.0387 -0.1154
17805W        W33274  15.860  15.102  13.041 -0.0626 -0.2262 -0.2616
17806W        W33275  13.340   7.513   1.447  0.1114 -0.1462  0.2223
17807W        W33276  10.810   2.308  11.458 -0.1258 -0.1073  0.1426
17808W        W33277  12.549   3.497   4.394 -0.0407  0.2484 -0.0373
17809W        W33278  11.102  14.659   5.588  0.0437 -0.0696  0.2011
17810W        W33279  12.005  15.232   1.963 -0.2591 -0.1577 -0.0901
17811W        W33280  12.331   4.097  13.385  0.0828  0.0389  0.1400
17812W        W33281  10.079   6.788  12.675 -0.1274 -0.0235 -0.1307
17813W        W33282   8.355  16.150   0.004 -0.3136  0.1855 -0.2182
17814W        W33283  18.029  10.194  15.693  0.0284  0.1536 -0.0751
17815W        W33284   1.026   5.619  11.079  0.2060 -0.1440 -0.3282
17816W        W33285  16.758  18.416  15.169  0.0575 -0.0790 -0.0970
17817W        W33286  10.081   0.029  13.000 -0.1840 -0.3000  0.1966
17818W        W33287  17.882   1.439   5.110  0.4591 -0.4003  0.0801
17819W        W33288  15.687  15.516   1.834  0.1962  0.0890  0.3625
17820W        W33289   9.959  14.429  11.590 -0.1640  0.1431  0.2011
17821W        W33290   8.063  12.036  12.937 -0.1445 -0.0808 -0.0634
17822W        W33291   7.846  11.452  14.169  0.0737 -0.2199  0.1140
17823W        W33292   2.153  15.125  14.205 -0.0965 -0.0211 -0.1403
17824W        W33293  12.760   3.524   2.711 -0.0209 -0.1181 -0.0573
17825W        W33294  16.458  12.839   2.952 -0.4315  0.3872 -0.4229
17826W        W33295  18.102  13.762  11.836 -0.0324  0.1136  0.0572
17827W        W33296   8.184   4.566  15.189  0.3257  0.1719 -0.1913
17828W        W33297   4.254  18.438  13.148 -0.1656  0.2239  0.1803
17829W        W33298   2.405  12.567  10.038 -0.1208  0.2840 -0.1958
17830W        W33299  10.704  16.086  15.613  0.0012  0.0493  0.1144
17831W        W33300   0.038   4.699  11.280 -0.1358  0.3186  0.0109
17832W        W33301   6.616   6.581   2.726  0.2555 -0.1413 -0.2039
17833W        W33302  10.336  15.877   0.538  0.1603  0.0452 -0.1513
17834W        W33303   8.007   4.445  13.407 -0.6644 -0.0142 -0.0475
17835W        W33304   5.057  17.048  14.286  0.0215 -0.0964  0.1533
17836W        W33305   3.928   0.526  13.108  0.2028  0.1243 -0.0127
17837W        W33306   9.922  17.644   3.612  0.4137  0.3146  0.2476
17838W        W33307   9.425   6.146  12.488  0.2004  0.1543  0.1609
17839W        W33308  11.856   4.854  15.488 -0.1445  0.2041 -0.1394
17840W        W33309   1.654  12.354  11.424 -0.2246 -0.0640  0.0197
17841W        W33310   6.732   9.735   3.265 -0.1305  0.1469 -0.0633
17842W        W33311   8.870   5.488  12.907 -0.0232 -0.2241  0.1376
17843W        W33312   4.309  16.935  15.744 -0.1818  0.1786  0.1043
17844W        W33313   0.952  16.589   4.594 -0.0584  0.3671 -0.1008
17845W        W33314  17.662  10.073  13.918 -0.3038 -0.0219  0.0035
17846W        W33315   7.013   2.391   4.982 -0.1445 -0.2175 -0.0278
17847W        W33316  18.622   3.442   2.767  0.0118  0.1613  0.1609
17848W        W33317  16.426   3.937  11.868  0.1975  0.0026 -0.0511
17849W        W33318   3.377   6.425  11.072  0.0842 -0.2131 -0.0809
17850W        W33319  15.655  13.406   2.832  0.0816 -0.1291  0.0143
17851W        W33320  17.926  16.419   2.540  0.0682  0.0008  0.0662
17852W        W33321  11.160  13.478   1.300 -0.1412  0.2289  0.1414
17853W        W33322  10.352   7.500  14.456 -0.2044  0.3449 -0.3147
17854W        W33323  13.868   0.079  13.861  0.3892 -0.1259  0.0005
17855W        W33324   1.855   0.256   4.552 -0.0932 -0.1589  0.1027
17856W        W33325   1.399   3.683   5.613 -0.0084  0.2371 -0.1946
17857W        W33326  11.683  14.894   2.331  0.4144 -0.1206 -0.0789
17858W        W33327  17.889   7.043   1.454  0.2376  0.1703  0.0298
17859W        W33328   1.145  12.132   0.293 -0.0183 -0.0414  0.2471
17860W        W33329  18.092   0.531  13.844 -0.2601 -0.1282  0.0175
17861W        W33330   6.072  10.176   0.856  0.1378  0.2689  0.0044
17862W        W33331   9.073   5.631  14.266  0.2541  0.0965  0.2386
17863W        W33332   5.682  12.535   1.798  0.1467 -0.3122 -0.0202
17864W        W33333   8.285   1.898   1.953 -0.0137 -0.2611  0.0992
17865W        W33334   9.807  14.238   4.698 -0.1235 -0.0071  0.0724
17866W        W33335  16.923  15.841   2.050  0.3156  0.3611 -0.0931
17867W        W33336   9.732   9.146   5.000  0.1610 -0.3750 -0.0088
17868W        W33337  15.677   1.416  14.662 -0.0925 -0.0054 -0.2805
17869W        W33338  17.202  11.231   1.559 -0.0679 -0.1043 -0.1067
17870W        W33339   8.158  11.063  14.257 -0.1242 -0.4008 -0.1407
17871W        W33340  15.928  12.378  15.115  0.0510 -0.0924 -0.0703
17872W        W33341  14.955  11.495  11.345 -0.5222  0.0440  0.3131
17873W        W33342   3.438   9.922  14.364 -0.5619 -0.2029  0.1264
17874W        W33343   4.299   0.117   3.344 -0.0692 -0.2224  0.1186
17875W        W33344  13.540  12.933  13.003  0.2913  0.2107 -0.0823
17876W        W33345   2.400   6.720  11.035 -0.1103 -0.5070  0.3118
17877W        W33346   3.689   6.373   0.723  0.0480  0.6028  0.0003
17878W        W33347   6.497  17.325  12.218 -0.2010 -0.1927 -0.0542
17879W        W33348  15.856   9.274   9.732 -0.0625  0.0238  0.1901
17880W        W33349  11.528  14.872   5.516  0.0904 -0.0842  0.0852
17881W        W33350   3.602  13.943  10.154 -0.2267  0.1071  0.0352
17882W        W33351   5.283   4.329   0.686  0.0193  0.0481  0.1266
17883W        W33352  16.269  17.574  14.194  0.2556 -0.0806  0.2975
17884W        W33353   8.062  13.188   4.995  0.2569 -0.2016 -0.0685
17885W        W33354   3.397   9.572  13.975 -0.2572 -0.1753  0.1725
17886W        W33355   3.597   3.788   1.893 -0.0381  0.0062 -0.3974
17887W        W33356   7.947  17.440   0.644  0.1867  0.1608  0.0563
17888W        W33357   1.963   4.589  13.815 -0.2312 -0.1058 -0.0270
17889W        W33358  10.360   1.862  12.975 -0.0744 -0.1596  0.1405
17890W        W33359   8.080   2.718   4.102  0.1348  0.1231  0.0106
17891W        W33360   0.326   1.239  11.969 -0.3003  0.3214 -0.0215
17892W        W33361  17.865   9.548  10.362 -0.0216  0.3584  0.1083
17893W        W33362   4.921   2.637   1.168  0.0537 -0.0244  0.2013
17894W        W33363   4.530  11.518   1.007  0.1301 -0.0780  0.3697
17895W        W33364  14.432   8.385   2.949 -0.1187 -0.3042 -0.0386
17896W        W33365   0.097   2.422   3.416 -0.2814 -0.0844 -0.0278
17897W        W33366   7.740   6.439  14.408  0.0620  0.2114 -0.0285
17898W        W33367  16.114   8.228  12.353 -0.1802 -0.3452 -0.0994
17899W        W33368   0.017  12.159  12.167 -0.1332  0.1358 -0.1283
17900W        W33369   3.754  12.040   2.177 -0.2917 -0.2005 -0.0219
17901W        W33370  13.690  11.580   1.517  0.0264 -0.0529 -0.2000
17902W        W33371   5.124  15.193  12.800  0.1385  0.2088  0.0272
17903W        W33372  17.619  14.181   1.507  0.2389 -0.0746 -0.1151
17904W        W33373   1.721  10.651   0.110  0.1924 -0.0868  0.0443
17905W        W33374  17.236   1.233  14.576  0.3342  0.0357 -0.0747
17906W        W33375   2.076   6.329   1.574  0.1178  0.0036 -0.1592
17907W        W33376  17.944   8.422   1.984 -0.2057 -0.1341  0.1234
17908W        W33377  17.750   1.390   4.170 -0.2721 -0.0313  0.2146
17909W        W33378   8.406   5.105  11.261 -0.1511 -0.2776  0.1124
17910W        W33379   6.201   7.612   5.279  0.0707  0.1630 -0.1843
17911W        W33380   8.197  11.712  12.460  0.1886 -0.1310 -0.1293
17912W        W33381  12.796   7.943   1.526 -0.0417 -0.2129  0.0561
17913W        W33382   7.510   5.610   1.226 -0.0599  0.0936 -0.1122
17914W        W33383   5.737   5.339  15.301 -0.3867  0.1240 -0.0038
17915W        W33384   4.557   2.925  12.583 -0.0439 -0.1214 -0.1003
17916W        W33385  14.796   0.851  13.509  0.2649  0.1479  0.1099
17917W        W33386  11.689  17.298  12.585  0.5417 -0.1986  0.0809
17918W        W33387   4.898  15.169   1.094  0.0794  0.2438  0.2268
17919W        W33388   4.075   5.804  14.161 -0.1535  0.0004 -0.0506
17920W        W33389  12.671   7.188  11.332 -0.1881 -0.0673 -0.3626
17921W        W33390  13.928   4.557  12.496 -0.0300 -0.2307 -0.2227
17922W        W33391  11.786  10.884  13.163  0.3019  0.0123 -0.3769
17923W        W33392  17.867   5.985   2.375 -0.0281 -0.1452 -0.0314
17924W        W33393   6.282   2.178   3.854  0.0094  0.1768  0.0461
17925W        W33394  16.598  16.864   1.939  0.4236  0.0693 -0.2519
17926W        W33395   3.437   5.522  12.813  0.2032 -0.2795  0.1400
17927W        W33396   0.075   2.615   9.917 -0.1588 -0.1404  0.0941
17928W        W33397   5.376  18.101   5.326 -0.1915  0.2022  0.1757
17929W        W33398   8.014   0.212   2.602  0.1485 -0.3341 -0.0687
17930W        W33399   3.879   1.020  13.233 -0.1415 -0.1489  0.1016
17931W        W33400   8.697  13.189  11.552 -0.0423  0.0468 -0.0117
17932W        W33401   9.443   3.966   4.316 -0.3867  0.1096 -0.1689
17933W        W33402   0.558  11.084  11.990 -0.1307 -0.0447  0.0501
17934W        W33403   5.852  18.031  15.558  0.4054 -0.1412 -0.1412
17935W        W33404   0.243  17.359   3.111 -0.2219 -0.0676 -0.1830
17936W        W33405  16.300   9.789  12.082  0.3243  0.2092 -0.2086
17937W        W33406   2.404   8.866   4.412 -0.0621 -0.3107  0.0038
17938W        W33407  12.419  14.555   5.672 -0.2710 -0.1489 -0.3161
17939W        W33408   6.642   1.879  13.379  0.1994 -0.1059 -0.1482
17940W        W33409   0.538   6.500  12.843  0.0204  0.0745  0.0967
17941W        W33410  12.654  16.653   6.083  0.3934 -0.1459  0.0217
17942W        W33411  14.600  12.246  14.781  0.2920 -0.2243  0.0776
17943W        W33412   3.207   6.247  10.138  0.2505  0.0776  0.0698
17944W        W33413  15.683   7.628   5.143 -0.2303  0.0973  0.0394
17945W        W33414   8.187  17.109  12.410  0.1715 -0.3089  0.1706
17946W        W33415  18.361   2.604   2.790 -0.2379  0.0854 -0.0831
17947W        W33416   7.732   1.963   2.494 -0.0120 -0.3070  0.0973
17948W        W33417   0.441  12.024  11.009  0.3117  0.2363 -0.1494
17949W        W33418  10.924  14.490   2.453 -0.0580 -0.2187 -0.2583
17950W        W33419   1.172   7.747  13.795  0.2264  0.0352  0.0668
17951W        W33420  14.861   0.641  14.626  0.0053  0.4214  0.4292
17952W        W33421  13.995  10.622   1.870  0.3899 -0.3683 -0.0426
17953W        W33422   0.510  13.812   3.126 -0.2991 -0.1052  0.1583
17954W        W33423  13.334   3.851   3.233 -0.1950 -0.1941  0.1801
17955W        W33424  13.516   5.083  14.828  0.2964  0.1144 -0.0961
17956W        W33425  15.372  18.060   1.249 -0.0804  0.0857 -0.1501
17957W        W33426  16.165   7.882   1.189  0.3887 -0.3313 -0.0424
17958W        W33427  14.042   3.927  11.202 -0.0837  0.1149  0.3769
17959W        W33428   1.973   1.758   2.718  0.2413 -0.2004  0.0211
17960W        W33429   1.517  15.000   1.752 -0.2463  0.4965 -0.2539
17961W        W33430  15.518   5.568  15.537  0.2243 -0.0957  0.1641
17962W        W33431  10.950  16.452  11.824  0.0068  0.0867  0.0655
17963W        W33432   9.814  11.207  11.330  0.3695 -0.0798 -0.0201
17964W        W33433   4.557   9.694  11.163  0.1286 -0.2059  0.0247
17965W        W33434   8.630  10.090   2.210  0.0219  0.1465  0.0440
17966W        W33435  17.713  13.576   4.042 -0.0185 -0.0863 -0.5773
17967W        W33436   5.063  16.519  10.654  0.3766 -0.1597  0.0553
17968W        W33437  13.672  12.267   3.607 -0.4497  0.2252  0.0885
17969W        W33438  16.036   8.842  11.129 -0.0780 -0.2624  0.0562
17970W        W33439  13.075   3.087  11.385  0.3623 -0.1742  0.0204
17971W        W33440  12.957   1.359   6.403  0.0240  0.3548 -0.0365
17972W        W33441   7.936   8.160  11.583 -0.0593 -0.1485  0.1930
17973W        W33442   6.644  16.430  14.824 -0.1523 -0.0404 -0.3336
17974W        W33443   3.749   2.414  14.699 -0.1678  0.0338  0.1165
17975W        W33444   1.963  15.563   2.946 -0.0144  0.0469 -0.1453
17976W        W33445  13.324  17.392   5.642  0.1001 -0.0019  0.1605
17977W        W33446   5.923  10.688  12.926 -0.0243 -0.2096 -0.1301
17978W        W33447  12.255   6.797   5.389 -0.0161 -0.4143  0.4670
17979W        W33448  17.731   6.185   3.640  0.0136 -0.0072  0.1847
17980W        W33449   9.352   5.443  13.225 -0.0193 -0.3501  0.0356
17981W        W33450  16.392  14.992  13.032 -0.2475  0.1254 -0.1581
17982W        W33451  18.179   1.425  13.151 -0.2706  0.1179 -0.1270
17983W        W33452  16.317  10.343   9.507  0.0118 -0.2668 -0.0300
17984W        W33453   2.459  14.840   1.596 -0.4134 -0.0047 -0.3897
17985W        W33454  13.576   6.509  10.725 -0.2710  0.2067 -0.0560
17986W        W33455  18.024   0.740   3.659 -0.0106  0.2519 -0.1237
17987W        W33456  18.004   3.554   2.061  0.0712  0.2789  0.1582
17988W        W33457   9.819   3.322  12.052  0.1846 -0.1148  0.2257
17989W        W33458  15.203   7.480  13.827 -0.1261  0.4313  0.2517
17990W        W33459  12.045  16.554   1.360  0.3274  0.0823 -0.1399
17991W        W33460  13.953  11.632  11.562 -0.0225 -0.2964 -0.2035
17992W        W33461   7.779  11.009  12.828 -0.2334 -0.3730  0.3907
17993W        W33462   8.968   8.408   3.066 -0.1411 -0.2412 -0.3407
17994W        W33463  13.015   9.154  11.363 -0.1232 -0.0807  0.1745
17995W        W33464   8.485  17.236   2.749 -0.2060 -0.2748 -0.2620
17996W        W33465  12.965   1.953  12.120  0.1706 -0.0049 -0.1768
17997W        W33466  12.762   8.778  10.495  0.0339  0.1005 -0.3206
17998W        W33467  16.920   4.881  13.424 -0.1903 -0.1273 -0.1497
17999W        W33468   0.117   2.235   1.198  0.1418 -0.1713  0.2095
18000W        W33469   3.280   4.560  14.618  0.0235 -0.4288 -0.1234
18001W        W33470  11.468   8.313   3.169  0.1558 -0.0536 -0.1984
18002W        W33471   6.539  15.118   5.224 -0.0508 -0.2266  0.1169
18003W        W33472  16.668  15.836  14.966 -0.0025  0.3671 -0.1114
18004W        W33473  15.042  12.547  12.586  0.0714 -0.0925 -0.2217
18005W        W33474   9.787  11.480  13.248 -0.1134  0.0302  0.1924
18006W        W33475   9.737   4.864   5.268  0.2070  0.0194  0.0025
18007W        W33476   0.099   9.715  11.156 -0.2165 -0.2644 -0.0956
18008W        W33477   4.819   6.347  10.774 -0.0650  0.0148 -0.0708
18009W        W33478  10.794  14.805   0.921 -0.1267 -0.1818  0.1880
18010W        W33479   8.564   5.054  11.774  0.1803  0.3222  0.0559
18011W        W33480  15.275  13.717  15.485 -0.1767  0.1641 -0.0779
18012W        W33481  10.841  11.236  11.603 -0.0364 -0.1866 -0.1093
18013W        W33482   5.582   3.265  15.612  0.1023  0.0628  0.2613
18014W        W33483   0.564  14.473  13.500  0.0494 -0.3403 -0.0543
18015W        W33484   5.211   8.604  10.410 -0.0881  0.0091 -0.1641
18016W        W33485  16.456   1.448  14.110  0.1727 -0.0058 -0.0866
18017W        W33486   5.962  18.189  14.585 -0.1805  0.0399 -0.1702
18018W        W33487   3.401  13.801   1.491  0.1340  0.0377 -0.1234
18019W        W33488  16.341   5.851   4.484  0.4772 -0.0491  0.2066
18020W        W33489   8.340  15.794   3.355 -0.0731  0.0992 -0.0212
18021W        W33490   1.594   7.378  13.260 -0.1497  0.3106 -0.1636
18022W        W33491  11.041   1.417  13.237  0.1712 -0.2428  0.5360
18023W        W33492  16.898   7.130   5.367 -0.3814  0.0701 -0.2717
18024W        W33493  14.780  18.244   6.715 -0.1147 -0.0874 -0.0372
18025W        W33494   3.778   4.475   3.817  0.1228 -0.1690 -0.1157
18026W        W33495  13.322   6.514   4.146  0.1024 -0.2328  0.1123
18027W        W33496   3.779   6.081   3.007 -0.3160 -0.2383  0.1600
18028W        W33497   9.702  11.582  15.748  0.4954 -0.0080 -0.1172
18029W        W33498  13.287   6.383  15.355  0.0878  0.0223 -0.0391
18030W        W33499  17.891  16.714   5.446 -0.2881  0.2480  0.0995
18031W        W33500   6.808  13.930   2.898  0.0424  0.1084 -0.2946
18032W        W33501  11.130  12.978   3.801  0.0125 -0.2348 -0.1595
18033W        W33502  17.185   8.231  13.252 -0.1584  0.1369 -0.5108
18034W        W33503  14.618   8.924   4.019 -0.1965  0.1693  0.0069
18035W        W33504   9.331   8.459   1.279  0.1816 -0.1211 -0.0402
18036W        W33505  18.173   0.978  10.784 -0.3187  0.0501  0.0481
18037W        W33506  15.193  13.440  13.450  0.0916 -0.0265  0.0418
18038W        W33507   9.988   1.166  10.685 -0.0165 -0.0764 -0.1205
18039W        W33508   6.626   3.261   4.960  0.4866 -0.2129 -0.1791
18040W        W33509  18.169  14.354   0.630  0.1960 -0.0947  0.3974
18041W        W33510   7.634   6.562  11.551  0.0772 -0.1092  0.0191
18042W        W33511  12.831  14.737   5.408 -0.0141 -0.0080  0.0336
18043W        W33512   4.330  11.651   5.279 -0.0657 -0.0700  0.1409
18044W        W33513   9.941   5.464  12.111 -0.0254 -0.0553  0.1595
18045W        W33514   6.587   1.207   1.036 -0.1848 -0.3818 -0.0644
18046W        W33515   5.588   0.468   2.402 -0.0287 -0.1331  0.0310
18047W        W33516   7.039   8.950   1.503  0.0099 -0.0066 -0.1142
18048W        W33517  11.222   1.729   4.609 -0.0826 -0.0005 -0.0582
18049W        W33518  14.695  11.690   4.607  0.1752 -0.1199 -0.0381
18050W        W33519   5.489   9.443   3.936 -0.2919  0.2201 -0.1398
18051W        W33520   7.311   5.743   1.720  0.3973  0.3549 -0.0005
18052W        W33521   6.126   8.628  12.412  0.1308 -0.1260  0.1548
18053W        W33522   8.942  17.461   4.133 -0.3486 -0.0328 -0.1982
18054W        W33523   5.704   3.277   4.150  0.2001  0.0525  0.0161
18055W        W33524   2.555  17.654   4.610  0.0535 -0.0049  0.1034
18056W        W33525   4.153  17.967   4.044  0.0412  0.1653  0.0708
18057W        W33526   2.444   4.500   1.297  0.0522 -0.3509 -0.0623
18058W        W33527  11.347  15.436   5.423 -0.0559  0.2587  0.1877
18059W        W33528  10.726  15.300   1.325 -0.2654  0.0512  0.2921
18060W        W33529  14.175   3.901  10.753  0.0816 -0.2149 -0.2410
18061W        W33530   5.293   2.920   1.284 -0.3830  0.2112 -0.0168
18062W        W33531   6.053  15.142   0.136 -0.5547  0.1882 -0.1128
18063W        W33532  15.658  11.027  15.554 -0.0910  0.0480 -0.0651
18064W        W33533   3.415  15.958  15.618  0.3980 -0.2369  0.0813
18065W        W33534   2.044   4.405  12.526 -0.2203  0.3159 -0.0269
18066W        W33535  16.025   4.835   1.497  0.1908  0.0719 -0.0260
18067W        W33536   1.266  14.309   3.252 -0.0662  0.1702 -0.0969
18068W        W33537  16.836  11.847  11.173 -0.1887 -0.3929 -0.1070
18069W        W33538  16.984  13.686   1.133  0.2530 -0.0221 -0.1330
18070W        W33539  14.965   0.227   1.918  0.2870  0.0060  0.2056
18071W        W33540  15.401   0.796  15.180  0.2197 -0.2438 -0.2948
18072W        W33541  12.373  14.913   3.517  0.0583  0.0053  0.3666
18073W        W33542  10.535   7.895   1.565 -0.2363 -0.2392  0.1222
18074W        W33543  18.489  14.285   2.620  0.0243  0.2768  0.0034
18075W        W33544   8.787   9.094   1.049  0.1195  0.2259  0.0675
18076W        W33545   9.554   5.064  10.887 -0.0634 -0.1989 -0.1116
18077W        W33546  12.532  10.219  13.582  0.1663 -0.1343 -0.1276
18078W        W33547  12.623  13.676  14.562  0.1380 -0.3682 -0.2181
18079W        W33548  15.249  10.313  13.188  0.1026  0.0431 -0.1407
18080W        W33549   7.628   1.975  12.721 -0.1760 -0.0409  0.1679
18081W        W33550   1.352  17.570  10.990 -0.2773 -0.3517  0.0521
18082W        W33551  11.043   0.232   5.470 -0.0523 -0.0312 -0.1332
18083W        W33552  16.379   9.006   3.098  0.1033  0.2455 -0.3351
18084W        W33553   6.050   3.892   0.917 -0.0144 -0.0853  0.1834
18085W        W33554  13.223   4.795  14.507 -0.0410  0.1015  0.2924
18086W        W33555   4.165  14.298   0.025  0.1134 -0.2623  0.1718
18087W        W33556   1.970  18.137  14.432  0.0334 -0.1477  0.0828
18088W        W33557   7.550   5.267   1.732 -0.0335 -0.2122  0.2404
18089W        W33558   8.904  12.832   4.791 -0.1734  0.2298 -0.2425
18090W        W33559   2.009   5.436  11.990  0.0187  0.0636  0.1940
18091W        W33560   3.311   5.002   3.159 -0.1777 -0.1752 -0.3436
18092W        W33561   9.364  16.572   4.285  0.0698  0.0090 -0.1664
18093W        W33562   3.593   6.887   0.618 -0.1333 -0.4764  0.0745
18094W        W33563  12.932   3.681   4.150  0.1293 -0.1851 -0.4046
18095W        W33564   7.541  12.002   2.282 -0.0575  0.2861 -0.1681
18096W        W33565   8.427   8.304   1.556 -0.2749  0.0954  0.0603
18097W        W33566  10.916  17.661   5.310 -0.0757  0.0795 -0.3279
18098W        W33567   0.012  16.435   2.886  0.0111 -0.0508 -0.1056
18099W        W33568   2.782   5.252   0.798  0.0358  0.0757  0.2302
18100W        W33569   7.711   2.923   1.420  0.0369  0.3190 -0.1278
18101W        W33570   5.419  11.135  11.341  0.0590 -0.1109  0.2611
18102W        W33571   6.232  12.544   1.876  0.0909  0.2900  0.0558
18103W        W33572  15.936  13.267  12.910  0.0495 -0.3014 -0.1023
18104W        W33573  13.078   9.916   3.704  0.0951 -0.3441 -0.1236
18105W        W33574  13.240   9.451   3.895  0.2681 -0.3159 -0.1533
18106W        W33575   8.507   9.805  15.689  0.1208 -0.3548  0.1728
18107W        W33576  10.480  15.697   5.399 -0.0538 -0.0974 -0.0901
18108W        W33577   9.595  15.235  15.499 -0.1223  0.3968  0.0060
18109W        W33578   7.933  10.213   3.527 -0.3919  0.0253 -0.1626
18110W        W33579   2.282  16.453   1.388  0.2441 -0.0704 -0.1860
18111W        W33580   1.640   1.629   4.171  0.3472 -0.3870 -0.0786
18112W        W33581  10.749   8.552  14.190 -0.1827 -0.0976  0.0105
18113W        W33582   1.472   3.702   0.381 -0.0527 -0.1028  0.0777
18114W        W33583   2.821  16.749   0.869 -0.2287  0.0833  0.1556
18115W        W33584   5.159   1.415  15.007  0.1106 -0.1141  0.1458
18116W        W33585  11.477  12.244   2.457 -0.2215 -0.2516  0.4399
18117W        W33586   0.830  10.538   1.699  0.1904 -0.1356  0.3258
18118W        W33587  13.570   0.535   2.269 -0.0554 -0.1714  0.0569
18119W        W33588  18.256  18.287   1.089  0.0578 -0.4286  0.1206
18120W        W33589   8.072   2.028   5.791 -0.3156  0.0832 -0.3241
18121W        W33590  10.674  11.899   0.766  0.0830 -0.2149 -0.0197
18122W        W33591   1.240  17.523  13.326 -0.0717 -0.3131  0.0207
18123W        W33592   3.839  17.532  11.695  0.0572  0.0664 -0.0188
18124W        W33593   6.551   1.756  12.125 -0.1910  0.2293 -0.0071
18125W        W33594  17.304   4.280   2.834 -0.1081  0.2486  0.1575
18126W        W33595   7.572   1.482  12.898 -0.2996  0.0547 -0.0230
18127W        W33596   7.856  12.919   2.492 -0.2016 -0.2903  0.2637
18128W        W33597  13.630  10.640  11.634 -0.0892 -0.0963 -0.0853
18129W        W33598   5.305  10.332  10.743  0.1382  0.1537  0.0872
18130W        W33599   7.310  10.532   0.202 -0.1560  0.2805  0.0079
18131W        W33600  10.772   5.112   0.497 -0.1816  0.1805 -0.0549
18132W        W33601   7.495  18.056  13.922 -0.0083  0.1949 -0.3471
18133W        W33602   0.535  16.181  13.078  0.3247 -0.0848 -0.2199
18134W        W33603  17.496   3.791  13.332 -0.2587 -0.3223  0.2051
18135W        W33604   4.648  13.749  12.978 -0.0851 -0.0276  0.0861
18136W        W33605  14.510   3.228   0.222  0.2367 -0.0543  0.1097
18137W        W33606   3.402   2.106  12.666 -0.1592  0.0109 -0.0359
18138W        W33607  18.326   2.845   0.797 -0.1155 -0.1750 -0.0854
18139W        W33608  11.768  11.142  15.459 -0.1655  0.1309 -0.0057
18140W        W33609   6.167   1.464  15.399  0.0321  0.0687  0.3057
18141W        W33610   3.758   5.352  12.521 -0.2937  0.3051  0.0525
18142W        W33611  17.441  10.670   2.306  0.1733  0.2033  0.1294
18143W        W33612  16.697  10.575   2.487  0.1950  0.2669  0.0030
18144W        W33613   4.825   5.422   5.084 -0.1948 -0.1073  0.0473
18145W        W33614   3.459  16.517   4.982 -0.1886 -0.1358  0.1925
18146W        W33615   8.441   4.110  13.516 -0.2539  0.3582  0.0553
18147W        W33616   9.579   2.700   4.506  0.3838  0.0282  0.1208
18148W        W33617   5.871   8.502  14.267 -0.1931  0.0466 -0.0912
18149W        W33618  14.279   0.570   0.989  0.1003 -0.0677 -0.1978
18150W        W33619   6.085  10.653   1.605 -0.1898 -0.2705 -0.3566
18151W        W33620   7.488   1.172   5.600 -0.3425 -0.2025  0.0501
18152W        W33621   3.284  12.772   0.964  0.0109 -0.2744  0.2227
18153W        W33622   6.054  18.257   3.450  0.1713 -0.0874 -0.1999
18154W        W33623   9.823  18.257   0.064 -0.3395  0.2135  0.2763
18155W        W33624  14.786   0.631  12.181  0.2094  0.0325 -0.2916
18156W        W33625  12.507   9.661  11.918  0.0794 -0.2387  0.0586
18157W        W33626  13.439   0.723   1.780 -0.2289  0.0216  0.2477
18158W        W33627   2.271   5.117  10.464 -0.1415 -0.0448 -0.1049
18159W        W33628   5.644   2.902  13.938 -0.1993 -0.0859  0.3292
18160W        W33629   7.093  17.123   3.817  0.0651  0.2030  0.1981
18161W        W33630   5.292   6.777  14.954  0.0136 -0.0696 -0.1633
18162W        W33631   9.257   7.904  14.189 -0.3943 -0.2712  0.4157
18163W        W33632  12.598   8.758   3.025 -0.1002  0.0274  0.3159
18164W        W33633   0.178   9.463  14.223 -0.2619 -0.0584  0.2239
18165W        W33634   5.126  16.253   0.979  0.3101  0.0002 -0.1466
18166W        W33635   0.460  14.996  11.172  0.3130  0.1666  0.0929
18167W        W33636   1.770   6.563   3.849  0.1149  0.0219 -0.0719
18168W        W33637   0.897   6.654  11.838  0.1212  0.1466  0.4365
18169W        W33638  14.182   0.456   0.433  0.1527 -0.1889 -0.2303
18170W        W33639   8.050   2.043   1.024  0.1483  0.0559  0.3569
18171W        W33640   3.967  17.134   3.384 -0.0723  0.0139 -0.1863
18172W        W33641   6.975   5.863  13.192 -0.2511  0.1363  0.0312
18173W        W33642  13.232   9.639   2.868  0.2691  0.4683 -0.1914
18174W        W33643   5.524  10.423  12.089 -0.3263  0.0912  0.5161
18175W        W33644  11.550  14.940  14.834 -0.4329  0.0965 -0.0793
18176W        W33645   8.004   9.301   4.277  0.0822 -0.0095  0.0929
18177W        W33646  18.364   8.402  15.463 -0.2809 -0.1602 -0.1694
18178W        W33647  12.116  17.333  14.047  0.1180 -0.1794 -0.0062
18179W        W33648   5.023   9.989  10.366 -0.0231  0.0627 -0.1698
18180W        W33649  16.942   5.294   3.401 -0.1023  0.1690 -0.3074
18181W        W33650   9.314   3.056   4.258  0.1087 -0.0481 -0.0684
18182W        W33651   1.844  14.988  13.411 -0.0681 -0.0407  0.1828
18183W        W33652  13.020   2.783  12.210  0.0492  0.0899 -0.0072
18184W        W33653  12.419  10.075  10.778 -0.1264  0.3978  0.0296
18185W        W33654   6.322   8.198   2.561  0.0332 -0.0681  0.2783
18186W        W33655  12.999  10.939   4.548  0.2477  0.2227 -0.2647
18187W        W33656  16.889   3.996  13.167 -0.0055 -0.1116 -0.0310
18188W        W33657   3.937  11.068   2.329 -0.3414  0.1174  0.0237
18189W        W33658   4.878  15.302   2.904  0.0331 -0.0505  0.2599
18190W        W33659   0.802   7.982  10.423 -0.1601 -0.5095 -0.1952
18191W        W33660  12.797  13.582  12.192 -0.2104  0.1052  0.0967
18192W        W33661   4.942   2.752  13.382  0.0835 -0.0439  0.0090
18193W        W33662   8.925   1.926  15.271  0.2960  0.1185 -0.3790
18194W        W33663   9.119   1.313  14.367  0.2146 -0.2256  0.0473
18195W        W33664   2.835   0.606  14.859  0.1426 -0.1861 -0.1533
18196W        W33665   0.846   2.432   6.106 -0.2877 -0.0795 -0.0970
18197W        W33666   9.754   0.563   0.045 -0.1494  0.2101  0.2242
18198W        W33667   3.921   3.482  10.706  0.0487  0.2841 -0.1929
18199W        W33668   5.347   2.529   4.815 -0.0989  0.2425 -0.1662
18200W        W33669   5.380   8.357  15.053 -0.1017  0.0535 -0.0396
18201W        W33670   0.987   6.745   1.922  0.2781 -0.0206  0.1116
18202W        W33671   2.593  17.354  12.438  0.0601  0.3479 -0.1528
18203W        W33672   5.911  12.126  10.595  0.1084  0.1265  0.0847
18204W        W33673  15.898   6.669  10.128 -0.2045  0.1628  0.1320
18205W        W33674  15.162   6.670   9.517  0.2857  0.0316 -0.3767
18206W        W33675   0.250   6.053  12.837 -0.1521 -0.0442  0.0655
18207W        W33676   9.639   7.607  12.894  0.0329  0.0334  0.3175
18208W        W33677   8.155  18.617   5.305  0.0303  0.2098 -0.1259
18209W        W33678   5.563   2.438  11.613 -0.2115 -0.2261 -0.0959
18210W        W33679   0.933  17.029   3.299  0.0528  0.6245 -0.1660
18211W        W33680  16.349   7.520   3.554 -0.2480 -0.4542  0.0254
18212W        W33681   5.985  15.321  15.391  0.0446 -0.1209  0.0957
18213W        W33682   8.809  16.999  14.412  0.1486  0.0724  0.1628
18214W        W33683   5.540  18.021  10.668 -0.1766 -0.1752  0.0544
18215W        W33684   8.487   6.701   1.627 -0.0657 -0.0441  0.2215
18216W        W33685   4.817   8.134  12.229 -0.1578 -0.0454  0.1683
18217W        W33686   3.424   7.031   3.325  0.0091 -0.1242 -0.0143
18218W        W33687  16.592   7.728   0.888 -0.0191 -0.1369  0.2057
18219W        W33688   1.131  11.881  13.713 -0.2492  0.0503 -0.1010
18220W        W33689  11.368  17.745   6.537 -0.0793 -0.2880  0.1913
18221W        W33690  10.256   1.504   4.506  0.0894  0.3317  0.6210
18222W        W33691  14.995  11.987   2.524 -0.0523 -0.0256  0.0030
18223W        W33692   3.136   7.383  12.923 -0.1052  0.1223 -0.3102
18224W        W33693   3.562  15.833   0.986  0.0326  0.1968 -0.2974
18225W        W33694   1.830   3.163   3.078 -0.1058  0.0537  0.2732
18226W        W33695   5.979  13.023   0.910  0.0551  0.4152 -0.0669
18227W        W33696   0.106   1.670  13.786  0.2720 -0.0512 -0.2169
18228W        W33697   8.962  10.876   2.900  0.3228  0.1607 -0.2791
18229W        W33698   9.086   1.140   2.871 -0.0138 -0.0879  0.2252
18230W        W33699   7.996   2.834  15.619 -0.0401 -0.0276 -0.0330
18231W        W33700   7.110  11.753  10.722 -0.1517 -0.0665 -0.1274
18232W        W33701  14.637  12.342   1.167 -0.2274 -0.0095  0.2543
18233W        W33702  18.438   6.401   2.486  0.2848  0.3054  0.3960
18234W        W33703  15.907   6.677   5.488  0.1886 -0.1442  0.1991
18235W        W33704   2.575  12.585   4.140  0.0966 -0.3205 -0.2276
18236W        W33705  15.046  15.228   5.126  0.2362 -0.0795  0.1607
18237W        W33706  16.930   8.851   2.105  0.1090 -0.2243 -0.0325
18238W        W33707   1.695   2.222  12.484  0.0009  0.1885  0.0252
18239W        W33708   6.320  16.260   0.343  0.0192  0.4649  0.0676
18240W        W33709   4.520  12.990   9.626  0.0766  0.1326 -0.1871
18241W        W33710  17.078   0.962   0.699 -0.0666  0.0733  0.3056
18242W        W33711   6.980  13.486  14.742 -0.1482  0.1835  0.0687
18243W        W33712   6.882  15.631   0.120  0.0657  0.0155 -0.2265
18244W        W33713  12.683  14.605   4.910  0.0405 -0.1289 -0.0991
18245W        W33714   7.034   4.358  14.115 -0.1501 -0.0334 -0.0499
18246W        W33715  17.907   3.221   4.346 -0.1400 -0.2119 -0.0582
18247W        W33716  14.554   6.836   2.121  0.4279  0.2460  0.3629
18248W        W33717   7.802   6.969   0.384  0.1331  0.0393  0.2465
18249W        W33718  12.635  17.786   1.151 -0.1579 -0.1113 -0.4287
18250W        W33719  11.843  17.813  12.718 -0.3647 -0.3562 -0.1213
18251W        W33720  17.692  12.589  15.471 -0.1110 -0.1908  0.1911
18252W        W33721  12.898   5.478  13.924  0.1489 -0.0822  0.1484
18253W        W33722   3.062   9.188  13.858  0.1826 -0.3829  0.0787
18254W        W33723  10.723   6.062   0.318 -0.0969  0.1235  0.1736
18255W        W33724  10.868   4.818   0.928  0.0174 -0.0729  0.1346
18256W        W33725   6.064   3.306   4.572 -0.3604  0.2591 -0.0576
18257W        W33726  17.440  18.030   1.178 -0.3787 -0.0184 -0.1054
18258W        W33727   5.925  16.144  12.211 -0.1403  0.2852 -0.1026
18259W        W33728   7.896  17.539  15.404  0.0226 -0.1034  0.0157
18260W        W33729  11.411  15.051   9.923 -0.0590  0.2255  0.1089
18261W        W33730   5.260   9.644   0.871 -0.1405  0.0454  0.2918
18262W        W33731   0.490   2.094  11.588  0.0998 -0.1957  0.2218
18263W        W33732   1.319  14.699   5.082 -0.3065 -0.1121  0.0722
18264W        W33733   2.389  15.607  14.190  0.2461  0.1450 -0.1273
18265W        W33734  18.500  14.622  10.679 -0.2922  0.0936 -0.1624
18266W        W33735   0.048   2.841   4.716  0.1201  0.0871 -0.1373
18267W        W33736  12.801   8.198  14.645 -0.0355  0.1892  0.0451
18268W        W33737   6.566  13.439  13.150  0.5358  0.0603  0.0652
18269W        W33738  12.356  15.789   4.475 -0.0342  0.2337  0.0368
18270W        W33739  13.878   8.178   5.573  0.1933 -0.1226  0.2887
18271W        W33740   9.349   4.249  13.157 -0.1369 -0.0911 -0.1024
18272W        W33741   8.953  12.961  14.543 -0.0803  0.0848  0.1218
18273W        W33742   4.794  12.085   4.770 -0.2535  0.2862 -0.1339
18274W        W33743   4.136  12.709  11.827 -0.0471 -0.2938  0.4162
18275W        W33744   6.155  11.354  10.813 -0.1526  0.0050 -0.0277
18276W        W33745   6.140  11.022   2.499  0.1974  0.3098 -0.0920
18277W        W33746  18.486  10.556   0.400  0.0261 -0.1465 -0.3574
18278W        W33747  10.560   0.129  12.979  0.0368 -0.0753  0.0604
18279W        W33748   8.795  12.361   0.424  0.0253  0.2376  0.2101
18280W        W33749  11.493  16.996   0.076  0.1529  0.0141  0.0244
18281W        W33750  16.711  16.328  14.683  0.0946  0.2227  0.1274
18282W        W33751  18.372  17.420  14.559 -0.0249  0.1175 -0.3013
18283W        W33752   5.581  11.190   1.722  0.0376 -0.0566 -0.0911
18284W        W33753  10.227   0.511  11.641  0.3540  0.1692 -0.0014
18285W        W33754   3.286  13.479  14.383  0.1892 -0.0450 -0.4212
18286W        W33755   9.902  13.655  10.390  0.3716  0.0387  0.1432
18287W        W33756  10.072   6.733   3.033 -0.0758  0.3427  0.1740
18288W        W33757  14.961   5.739   1.150  0.2314  0.0110  0.0581
18289W        W33758  17.906   5.519  11.361 -0.0595 -0.2693 -0.2682
18290W        W33759  16.045  17.131   5.473 -0.2765 -0.0439  0.0617
18291W        W33760   3.425  13.072   3.951  0.1944 -0.1130  0.0842
18292W        W33761  15.693   0.743   4.320  0.1220 -0.1901  0.2910
18293W        W33762  15.495   5.574  14.516  0.1448  0.0448 -0.2855
18294W        W33763  13.465   8.775  12.290  0.1629  0.0853 -0.2022
18295W        W33764   1.620   6.443  12.117 -0.4527  0.1757  0.1576
18296W        W33765   4.764   4.876  12.348 -0.0820 -0.1786  0.1661
18297W        W33766  17.973   3.892   1.649 -0.2520 -0.1873 -0.1910
18298W        W33767   9.406  12.027  10.556 -0.0819  0.1009 -0.0944
18299W        W33768  16.762   4.724  11.485 -0.0471 -0.0278  0.0353
18300W        W33769  17.427   0.420  14.010  0.2998  0.1716  0.0207
18301W        W33770   2.818  11.347   1.293  0.2046 -0.1453 -0.0318
18302W        W33771  12.530   0.253   3.835  0.0470  0.0864 -0.3530
18303W        W33772   1.184  10.926  10.924 -0.0731 -0.1822 -0.0753
18304W        W33773  14.468  17.309  12.857 -0.0888  0.1404 -0.3363
18305W        W33774  13.471   1.693   5.551 -0.0074  0.0381 -0.0759
18306W        W33775  12.924  12.126   1.726 -0.5012  0.0709 -0.2160
18307W        W33776   4.913  17.969   0.092  0.2910  0.1509  0.2052
18308W        W33777   8.841   4.997   5.165  0.2399 -0.1233 -0.0745
18309W        W33778   5.949  10.250  10.509  0.0246  0.1789 -0.0160
18310W        W33779   2.314  15.708   2.497 -0.0830 -0.0008 -0.2518
18311W        W33780   2.266   1.772   3.640 -0.0109 -0.0376 -0.2651
18312W        W33781   7.511   6.882  15.139  0.2886 -0.2665  0.0381
18313W        W33782  14.006   0.885   0.204 -0.1239  0.0708  0.0243
18314W        W33783  18.551   9.091   0.522  0.0572 -0.2013  0.0096
18315W        W33784  14.196  15.790  10.396  0.2161  0.1501 -0.0737
18316W        W33785  15.992   3.455  10.062 -0.2064  0.1088  0.0838
18317W        W33786  16.206   8.221   1.981 -0.1950 -0.0190 -0.1800
18318W        W33787   0.739  15.568  12.944 -0.0014  0.1099 -0.2209
18319W        W33788   8.194  12.639   3.611  0.0121 -0.2531 -0.0146
18320W        W33789  15.384  15.853   3.276 -0.0981 -0.0927  0.1047
18321W        W33790   6.695   2.595   4.174 -0.0136  0.0378  0.0111
18322W        W33791  11.203  13.257  15.456 -0.1953 -0.3069  0.0363
18323W        W33792  12.274  13.825   6.096 -0.1967  0.0357 -0.1119
18324W        W33793   3.632  13.655  11.044 -0.0738 -0.4221  0.2354
18325W        W33794   3.540   6.492   3.243  0.2714 -0.1107 -0.0878
18326W        W33795   4.044   7.860   4.199  0.0129  0.3351  0.2754
18327W        W33796  13.560   6.648  12.298  0.4259 -0.2079  0.1328
18328W        W33797  14.417  11.956  14.363  0.1122  0.1463  0.0668
18329W        W33798   9.487   0.958  10.989 -0.0133 -0.0328  0.1454
18330W        W33799   5.039  18.138  11.342 -0.0958 -0.1849 -0.0282
18331W        W33800  14.644   6.240  11.625  0.0315  0.1461 -0.1319
18332W        W33801  15.243  14.388   0.223 -0.1231 -0.0798  0.3780
18333W        W33802  11.967  10.018   1.765 -0.1301  0.1392  0.0294
18334W        W33803  18.573  16.061   6.212 -0.0713  0.0074 -0.3511
18335W        W33804  15.802   3.927   0.212  0.1615 -0.1493  0.1934
18336W        W33805   3.234  10.486  13.152 -0.2343 -0.2283  0.1006
18337W        W33806   3.509  13.716  13.504 -0.0197  0.0438  0.0223
18338W        W33807   3.964  14.535  12.659  0.2913 -0.1201 -0.0569
18339W        W33808   8.721   4.651   6.303 -0.0203  0.2004  0.2554
18340W        W33809  17.739   7.696   1.568  0.3210 -0.1090  0.1862
18341W        W33810   4.175  17.450   3.846 -0.1161 -0.1258  0.0656
18342W        W33811  13.266  11.436  13.225 -0.1693  0.2992 -0.2185
18343W        W33812  14.927   2.929   2.309  0.0474 -0.0009 -0.1628
18344W        W33813  15.425  15.557   4.085 -0.1012  0.0599 -0.3458
18345W        W33814  16.319   7.713   3.104 -0.0459 -0.3954  0.0607
18346W        W33815   4.091   0.180  11.963 -0.0626 -0.1197  0.1737
18347W        W33816  15.318  14.481  15.089 -0.1093 -0.1961 -0.1209
18348W        W33817  13.579  11.045   5.505 -0.0116  0.0541  0.0189
18349W        W33818  17.172   7.310   4.758  0.1013  0.1425 -0.0468
18350W        W33819   3.135  16.177   5.351  0.1962  0.2537  0.0056
18351W        W33820  16.029  18.022  14.073  0.0791  0.1130 -0.2045
18352W        W33821  16.844  17.895  13.597  0.0676 -0.2086  0.0583
18353W        W33822   5.260  16.961  11.715 -0.1327 -0.4453  0.3799
18354W        W33823   9.487  13.876  14.258  0.1136 -0.2636  0.2295
18355W        W33824   4.986   9.539   3.756  0.0380  0.0799  0.0639
18356W        W33825  10.735  11.374   9.881  0.2409  0.0902  0.0244
18357W        W33826   8.628  14.526   1.625  0.1149 -0.1546 -0.2159
18358W        W33827  10.898   9.723   2.401 -0.0022  0.2358 -0.0574
18359W        W33828   0.794   9.519   1.730 -0.3185  0.0973  0.5433
18360W        W33829  12.625   3.459  12.605 -0.3367  0.1808 -0.1225
18361W        W33830   2.248   3.429   3.163  0.1676  0.1311 -0.1567
18362W        W33831  17.223   5.527   2.176 -0.2628 -0.1275  0.1561
18363W        W33832  15.999   1.689  12.499  0.0433 -0.1010 -0.0024
18364W        W33833  13.893  14.989  14.198 -0.0720  0.1363 -0.1389
18365W        W33834   7.647   5.674  13.750 -0.2789 -0.1341 -0.3368
18366W        W33835   1.533   3.354  11.385 -0.2320 -0.0458 -0.1254
18367W        W33836   5.923  15.379  13.500 -0.0274 -0.1072 -0.1155
18368W        W33837   7.310  11.626   2.542 -0.0223 -0.0594 -0.1545
18369W        W33838   9.104  17.780   5.396 -0.1414  0.0790 -0.0357
18370W        W33839  17.676   8.376  13.160  0.2680  0.3349 -0.1807
18371W        W33840   5.347   2.584  12.559 -0.0115  0.1065 -0.1983
18372W        W33841   8.626   5.219   4.273  0.0542 -0.2785 -0.0347
18373W        W33842  12.831   4.598   0.700  0.1729 -0.0272  0.3073
18374W        W33843  16.741   5.215  12.226 -0.0519  0.1423 -0.0893
18375W        W33844  14.882   6.686  11.821 -0.0046 -0.1125  0.0387
18376W        W33845  10.659   5.014  15.144 -0.1871 -0.0834  0.0226
18377W        W33846  16.392   1.641   2.170 -0.1225 -0.0454 -0.2162
18378W        W33847   7.982  12.915  10.908 -0.2839  0.0521  0.1763
18379W        W33848   0.985  13.355  11.137  0.2312  0.0302  0.0444
18380W        W33849  12.901  16.113   3.460 -0.0732  0.0834 -0.0065
18381W        W33850   4.978   3.115   4.308 -0.1929 -0.1445  0.1235
18382W        W33851  12.540  17.634  11.288 -0.0278 -0.3937 -0.0577
18383W        W33852   0.612   4.761  11.737  0.2586 -0.0078  0.4156
18384W        W33853   8.931  13.379  13.706 -0.0273 -0.0649  0.3428
18385W        W33854  12.553   7.668  13.749 -0.2811  0.6124 -0.1034
18386W        W33855   7.537   4.718   4.842  0.0512  0.0370 -0.1934
18387W        W33856  17.052  13.699  15.187  0.0055 -0.2076 -0.0052
18388W        W33857   1.415   5.790  15.222 -0.0315 -0.2401 -0.3996
18389W        W33858  11.429   9.473  12.300  0.1762  0.0479 -0.0829
18390W        W33859   9.665  12.059   2.899  0.2336 -0.3770  0.3810
18391W        W33860  11.713   1.401  13.327  0.2868  0.2126  0.2142
18392W        W33861  14.707  17.162   4.966  0.0809 -0.1070  0.1525
18393W        W33862   9.780   2.063  13.516 -0.3232  0.1329  0.1845
18394W        W33863   7.926  14.581  13.052  0.0654 -0.0377  0.1124
18395W        W33864  13.784   0.031   3.215  0.0717  0.1948  0.2216
18396W        W33865  11.191  17.142   5.559  0.3900  0.3380  0.4935
18397W        W33866  11.806   1.702  10.261 -0.0451  0.0543  0.0737
18398W        W33867  10.002  17.781   1.263  0.0643 -0.0383 -0.2129
18399W        W33868   7.488  17.193   4.249  0.2694  0.3169  0.0603
18400W        W33869   2.264  10.180   3.521 -0.0406 -0.1554 -0.1592
18401W        W33870   0.813  12.355  13.926 -0.0538 -0.3267  0.1046
18402W        W33871   0.647  18.454   3.949 -0.1673  0.5082  0.3420
18403W        W33872   5.364   5.819  13.365  0.1820  0.0267 -0.0088
18404W        W33873   9.050  15.263   5.136 -0.4470 -0.1226  0.2177
18405W        W33874  10.777  11.155  12.901  0.1336  0.2243  0.0100
18406W        W33875  14.867   9.392   4.840 -0.0232  0.0171 -0.1952
18407W        W33876  12.648  15.852   2.214  0.1701 -0.4224 -0.2463
18408W        W33877   5.354   8.973  14.481  0.1815  0.4392 -0.0621
18409W        W33878   3.235   5.056   0.865  0.0961  0.0118 -0.0723
18410W        W33879   6.804   6.499  15.140 -0.1276 -0.0298 -0.0525
18411W        W33880   3.267   5.321  15.727  0.0714 -0.0296 -0.1145
18412W        W33881  15.627   1.420  12.208  0.0586 -0.0310  0.1336
18413W        W33882   8.855   8.216   5.483 -0.0046  0.0878  0.2302
18414W        W33883   8.513   0.960  12.233 -0.0648 -0.0579  0.1494
18415W        W33884  11.699  17.480  13.647  0.0346 -0.1749 -0.0545
18416W        W33885   3.563  15.133  13.804  0.0382  0.3742  0.0189
18417W        W33886  17.368   5.782   2.583  0.1126 -0.1212 -0.4291
18418W        W33887  12.118   2.497  14.224 -0.0020 -0.2900 -0.0922
18419W        W33888   7.158   4.508   3.153  0.2303  0.0542 -0.1395
18420W        W33889  10.774  18.261   3.052  0.0273 -0.2924  0.1593
18421W        W33890   0.426  12.667  12.985 -0.2626  0.1525  0.1669
18422W        W33891   9.736  11.385   3.503  0.3014 -0.0428  0.0164
18423W        W33892   5.866   7.005   1.798  0.0161 -0.1267  0.0043
18424W        W33893   2.573   5.509  10.383 -0.1370  0.0298 -0.1444
18425W        W33894   6.208  17.361   5.370  0.1430  0.3588  0.2209
18426W        W33895  14.836   1.857  15.685 -0.3111 -0.2477  0.0042
18427W        W33896  12.417   8.359  11.137 -0.0429  0.0048 -0.1702
18428W        W33897   7.350   0.754   5.207  0.2047  0.1108  0.0532
18429W        W33898   2.463  16.197  14.992  0.2682 -0.2129  0.1462
18430W        W33899   5.880   4.015  15.593 -0.0140  0.1611 -0.2373
18431W        W33900  15.735   0.935  10.143 -0.0746 -0.2609  0.2972
18432W        W33901   2.679   3.436   4.854  0.0008 -0.2961  0.0296
18433W        W33902  16.213   3.296   5.348  0.3629 -0.2476 -0.2141
18434W        W33903  17.732   2.030   1.457  0.3042  0.2957  0.3388
18435W        W33904   4.802   8.686  10.746  0.0354  0.0165 -0.1400
18436W        W33905  13.731  15.860   2.156  0.0385 -0.0033 -0.1836
18437W        W33906   7.126   0.960   4.287  0.1224  0.0215  0.0135
18438W        W33907   3.133  13.543   2.093 -0.1511  0.1312 -0.3233
18439W        W33908  10.230  12.814   0.579 -0.0986 -0.0950 -0.0026
18440W        W33909  15.226   2.913  11.499  0.2109 -0.1460 -0.1351
18441W        W33910   7.886  11.976   3.318  0.0759 -0.1775 -0.0208
18442W        W33911   7.927   7.227   2.914 -0.1658  0.0905  0.3189
18443W        W33912   1.779  13.372  14.336  0.1763  0.1552 -0.0254
18444W        W33913  11.007   8.267  12.128 -0.1715  0.0837 -0.5599
18445W        W33914   0.876  15.103  13.100 -0.0884  0.1415 -0.1097
18446W        W33915  18.274  14.738   1.654 -0.1724  0.2029  0.0786
18447W        W33916  15.373   3.552   4.885 -0.2232 -0.0866  0.1917
18448W        W33917   8.536   9.622   2.074 -0.1641  0.1856  0.0387
18449W        W33918  17.008   8.404  12.014  0.0309 -0.1394  0.0636
18450W        W33919  11.032   6.362  13.670  0.0933 -0.1079  0.2109
18451W        W33920  14.843  14.710  15.763 -0.1234  0.1118 -0.1214
18452W        W33921  12.993   5.910  15.520  0.3471  0.0276  0.2022
18453W        W33922   2.103  13.882  15.647 -0.1758 -0.0720  0.2386
18454W        W33923   5.859   1.638  14.446  0.0254  0.1306 -0.0240
18455W        W33924   4.969   7.459   4.395 -0.2990  0.1686  0.0047
18456W        W33925   9.024  18.315  14.367 -0.0819  0.2390 -0.0433
18457W        W33926  14.182   4.052  12.421  0.0487 -0.0835 -0.4161
18458W        W33927   3.186   5.849  11.827  0.1208 -0.6813 -0.1629
18459W        W33928  13.986   7.043  15.630  0.3178  0.1643  0.1902
18460W        W33929   6.636  11.113  14.834  0.0905  0.0063 -0.2691
18461W        W33930  18.175  12.586   3.278  0.1376  0.0994 -0.0044
18462W        W33931  12.488  12.638  15.501  0.0472  0.3390  0.1241
18463W        W33932  14.672   4.650  15.634  0.3199 -0.1069  0.0167
18464W        W33933  10.706  11.233   3.686 -0.1926 -0.0589 -0.0377
18465W        W33934   7.050  16.233  12.676  0.1143  0.2936  0.0027
18466W        W33935  17.329   6.441  13.118  0.2906 -0.0631  0.2548
18467W        W33936  16.831   1.030   4.553  0.2992  0.1711 -0.0971
18468W        W33937   5.570  14.416   1.056 -0.0843  0.2342 -0.1035
18469W        W33938   4.184  14.697   6.186  0.1413  0.2686  0.1681
18470W        W33939   6.826   2.090  12.957  0.3422  0.1597 -0.2719
18471W        W33940   2.130   1.811   0.962  0.0046  0.1254  0.4091
18472W        W33941  11.940   7.651   2.840  0.1142  0.1421 -0.1734
18473W        W33942   5.782   9.157  10.891  0.3070 -0.5505  0.0368
18474W        W33943  10.234   7.956   5.258  0.2879 -0.0943  0.0855
18475W        W33944  14.687   6.196  10.544  0.1918 -0.0015 -0.1667
18476W        W33945  12.339   4.023  10.292 -0.1289  0.0652  0.3855
18477W        W33946  10.719   3.078   4.678 -0.1111  0.2685  0.0188
18478W        W33947   4.122  16.958   3.975  0.2411 -0.3656  0.0936
18479W        W33948  13.956   0.853   2.209  0.0258  0.0775 -0.0063
18480W        W33949  12.458  17.185  13.720  0.2067  0.0735 -0.2931
18481W        W33950   8.960  12.738  13.028  0.2650  0.1522  0.0544
18482W        W33951   6.017   1.873   3.499  0.2817  0.0134  0.1327
18483W        W33952  17.219  11.382   4.842  0.0467  0.2737 -0.4370
18484W        W33953  14.668   1.020  12.442 -0.1547 -0.0498  0.1061
18485W        W33954  12.379  15.088  14.518 -0.0821  0.0549 -0.0743
18486W        W33955   5.500  17.462  14.635  0.5195 -0.1812  0.1737
18487W        W33956  10.010  15.469   1.947 -0.1560 -0.0174 -0.1556
18488W        W33957  11.472   3.459   0.808  0.2683 -0.2261 -0.0429
18489W        W33958   5.861   2.520  12.865  0.3452  0.1429 -0.0964
18490W        W33959   0.716   3.080   2.961 -0.3552  0.3279 -0.0286
18491W        W33960  18.231  13.518  12.656  0.4781 -0.2089  0.1290
18492W        W33961   6.957   3.928  13.014  0.2980 -0.2549 -0.2268
18493W        W33962   0.200  14.013   2.366  0.0835 -0.1238 -0.2338
18494W        W33963  10.279   4.003  11.684 -0.1145  0.2840 -0.2981
18495W        W33964  12.863   7.710   0.011 -0.0254  0.0642  0.1008
18496W        W33965   4.854  14.981   3.892  0.0834 -0.0051  0.3377
18497W        W33966  16.359   3.469  11.395  0.1392  0.0338  0.0798
18498W        W33967   4.041  13.915  13.796  0.1370  0.2968 -0.1950
18499W        W33968  14.076   2.154  12.900  0.0930  0.1234  0.0376
18500W        W33969  16.932   3.791  14.394  0.0602 -0.1443  0.1053
18501W        W33970  12.694  14.687  12.067 -0.1959  0.2663 -0.2657
18502W        W33971  15.711   9.965   3.394  0.1954  0.1236 -0.0209
18503W        W33972  16.696  18.109  14.705 -0.3337  0.0659 -0.2137
18504W        W33973  12.996   2.511  14.845 -0.0304 -0.3477  0.1210
18505W        W33974  15.866   6.817  11.618  0.2102  0.2106 -0.1667
18506W        W33975   2.012  17.607  12.367  0.0792 -0.3250 -0.1751
18507W        W33976  13.461  11.586  14.025  0.0071  0.3773 -0.1198
18508W        W33977   4.856   5.483  13.872  0.3409 -0.0396 -0.2871
18509W        W33978   8.101   3.597  14.001 -0.1626 -0.0413  0.3460
18510W        W33979   3.397  12.067  13.528  0.4070 -0.0533  0.0512
18511W        W33980   7.160  17.697   2.922 -0.1368  0.1548  0.0761
18512W        W33981   1.026   8.350  11.450 -0.2354 -0.2670 -0.3330
18513W        W33982  10.982   0.980   5.269  0.0761 -0.2084 -0.1324
18514W        W33983   9.599  16.537  10.810  0.0447 -0.0476 -0.4215
18515W        W33984   3.307  15.537  14.730 -0.2690  0.0051  0.1794
18516W        W33985  13.633  15.587   0.357  0.1304 -0.0748  0.0098
18517W        W33986  16.429   1.132  12.483  0.1952  0.0468 -0.3097
18518W        W33987   1.412  11.307  14.101 -0.2625  0.0026 -0.2239
18519W        W33988  11.328  16.676   0.431  0.0324  0.0274  0.2323
18520W        W33989   0.955   5.246   0.266  0.0404 -0.1084  0.2697
18521W        W33990  10.622   6.381  15.253 -0.0204 -0.1149 -0.0832
18522W        W33991   3.420  10.785   1.251  0.0765 -0.0234  0.0718
18523W        W33992  15.145  10.249  15.713 -0.0936  0.2693 -0.2815
18524W        W33993  10.609  14.142   3.763  0.0402 -0.1391 -0.0615
18525W        W33994  14.919   5.155   2.592 -0.1438  0.1419 -0.0579
18526W        W33995   8.299   8.242  11.271  0.1854 -0.0319  0.0379
18527W        W33996   2.395   2.207  14.996  0.1177  0.0463 -0.2556
18528W        W33997  14.524   9.856  10.999 -0.0453 -0.1161 -0.1017
18529W        W33998  17.950  12.362  10.560  0.3360 -0.0803  0.0862
18530W        W33999   7.635   1.546  14.591  0.1212 -0.0367  0.3669
18531W        W34000   1.995   3.993  11.131  0.0381  0.0004  0.2433
18532W        W34001   9.732  16.958  11.171 -0.1468 -0.0793  0.0199
18533W        W34002  16.730   4.721   2.330 -0.2281  0.1970 -0.3304
18534W        W34003   0.631  13.322   3.235  0.1967 -0.1087 -0.0752
18535W        W34004  12.938   0.980   2.980  0.0673 -0.2096  0.0289
18536W        W34005  14.843   6.733  15.097 -0.3955 -0.3927  0.0818
18537W        W34006   0.952   0.151   3.636 -0.1673 -0.0388  0.0865
18538W        W34007  16.025  13.009   3.707  0.1409  0.0215  0.1529
18539W        W34008   0.793   7.822   2.144  0.2853  0.1007  0.1465
18540W        W34009   6.285  17.769  14.923 -0.1196 -0.0322  0.1071
18541W        W34010  13.684  17.168   4.329  0.1953 -0.2180  0.0799
18542W        W34011   3.987  12.674  13.272  0.4338  0.0135 -0.0843
18543W        W34012   6.344   7.896  10.517 -0.0659  0.1772 -0.2701
18544W        W34013  18.549  15.062  13.847  0.1288 -0.2404 -0.0807
18545W        W34014   7.179   1.738  14.577 -0.0712 -0.2983  0.1919
18546W        W34015   6.297  10.090   2.144 -0.2236  0.1627 -0.0222
18547W        W34016  10.020   9.952  12.196 -0.2992 -0.1087 -0.2122
18548W        W34017  17.547  12.157  10.933 -0.0130  0.0452 -0.2302
18549W        W34018  17.629   0.807   2.292  0.1861 -0.1790 -0.2142
18550W        W34019   9.393   2.290   1.526 -0.3520  0.1147  0.1270
18551W        W34020  15.217   7.613   5.454 -0.1179  0.3123  0.0366
18552W        W34021   9.197   6.177   2.304  0.0646  0.0061 -0.0425
18553W        W34022  12.993   8.216   1.052  0.1461  0.0637 -0.2763
18554W        W34023   1.474  14.997   0.024 -0.1356  0.1456 -0.0283
18555W        W34024  15.204   2.796  13.908  0.3341 -0.1565  0.1119
18556W        W34025  15.601  13.158  11.444  0.1377 -0.4171  0.0283
18557W        W34026   7.871  13.871  15.454  0.1024 -0.0681 -0.0601
18558W        W34027   0.248  14.310   0.376 -0.2604 -0.0513  0.0138
18559W        W34028  11.979   4.317   0.058  0.4778  0.1929  0.3055
18560W        W34029   0.253  12.426   1.630 -0.0615  0.2268  0.0500
18561W        W34030   1.194   7.992  12.044 -0.1562  0.0966  0.0531
18562W        W34031   8.894   2.579   0.803 -0.2500  0.3446 -0.0387
18563W        W34032  17.342   4.536   1.790  0.0588 -0.0593  0.4251
18564W        W34033   3.807   7.817   4.931 -0.2066  0.2413 -0.0346
18565W        W34034   6.532  13.495   4.065  0.0755 -0.0259  0.2087
18566W        W34035   9.013  13.205   1.503  0.1451  0.0137  0.0267
18567W        W34036  12.430   0.130   4.381  0.0733  0.2294  0.1364
18568W        W34037  10.691  17.548  13.793  0.3734  0.0583 -0.0889
18569W        W34038  12.793   6.987   5.884  0.2784 -0.0856 -0.0422
18570W        W34039  18.359  11.862  15.358  0.0261 -0.1166  0.0996
18571W        W34040   1.195   6.465  10.611 -0.3467 -0.3778 -0.1180
18572W        W34041   7.820  17.767  13.650  0.0308 -0.1907  0.1417
18573W        W34042   4.403   2.618  12.113  0.0320 -0.4358 -0.1952
18574W        W34043  14.218   2.914   1.037  0.1856  0.2790  0.2669
18575W        W34044  16.510  10.234  13.999  0.1223  0.0343 -0.1857
18576W        W34045   4.599  18.224   4.507  0.0428 -0.0113  0.1635
18577W        W34046   6.067  13.263   5.867 -0.1483 -0.3210 -0.0269
18578W        W34047  13.897   7.490  10.638 -0.0203 -0.1529 -0.0456
18579W        W34048  17.515  13.744  11.130  0.2290 -0.0417 -0.4891
18580W        W34049  15.171  18.517   0.068  0.0664  0.2343 -0.1768
18581W        W34050  14.146  13.924   1.790 -0.0219  0.0707 -0.4975
18582W        W34051   7.143   5.733  13.787 -0.1130 -0.2296 -0.0345
18583W        W34052   3.796  10.466   0.251 -0.0122 -0.0349 -0.4045
18584W        W34053  10.839   4.086   4.299  0.0852  0.0151 -0.2319
18585W        W34054  12.750   2.374  12.340 -0.1671  0.2532 -0.1443
18586W        W34055  10.503   1.521  10.637 -0.1161 -0.4461 -0.2786
18587W        W34056  15.142  17.981   3.286 -0.2144 -0.5744 -0.1328
18588W        W34057   9.945   5.973  11.227  0.0510  0.1448 -0.1983
18589W        W34058  15.480  11.175   2.022  0.0251  0.0570  0.3120
18590W        W34059   5.703  13.637   5.940  0.1940  0.1979 -0.3186
18591W        W34060   5.741   5.349  11.791  0.2817 -0.0351  0.3007
18592W        W34061  11.577   9.728   1.911 -0.0398 -0.0981 -0.1690
18593W        W34062   1.450   3.754  15.226  0.0230 -0.1001  0.1524
18594W        W34063  13.436  16.722   5.041 -0.0098  0.0102  0.1536
18595W        W34064   1.449  11.596   5.401  0.4868 -0.0366  0.0137
18596W        W34065   0.707   8.515   3.374 -0.0298 -0.0271  0.4386
18597W        W34066  16.353  16.369  11.379 -0.0149 -0.0818 -0.1768
18598W        W34067  14.044  11.372  11.008 -0.0721 -0.1235 -0.0713
18599W        W34068  17.096   3.851  11.816  0.2461  0.1433 -0.1692
18600W        W34069   4.729  17.138   5.117 -0.2247 -0.3593  0.1589
18601W        W34070   1.226  15.982   0.098  0.0376  0.0058  0.4378
18602W        W34071  17.176  11.378  13.109 -0.0006 -0.1208  0.2307
18603W        W34072  10.981   2.156   6.070  0.0351  0.2138 -0.0230
18604W        W34073   6.431   2.580  10.566  0.1671  0.1374  0.2035
18605W        W34074  11.966   9.948   0.448  0.0356 -0.1727 -0.0049
18606W        W34075   3.661   7.493  14.416 -0.2495  0.0508  0.2740
18607W        W34076   7.211  16.011  13.124  0.2336 -0.0572 -0.0722
18608W        W34077  17.192  18.445   1.312  0.1825  0.1128 -0.1539
18609W        W34078   2.763  13.838   2.272 -0.0138  0.4382  0.0253
18610W        W34079  12.924   0.151   5.333 -0.0811 -0.2213 -0.1165
18611W        W34080  12.353  15.635   1.843  0.3100  0.1756  0.0259
18612W        W34081  10.545  17.145   0.740  0.0665 -0.3036 -0.1212
18613W        W34082  17.012   3.523  10.894 -0.1305 -0.4047 -0.0126
18614W        W34083  10.659  12.283  10.921 -0.0487 -0.1659  0.3398
18615W        W34084  16.261   5.910  13.254 -0.1136 -0.1296 -0.3901
18616W        W34085   8.149  15.838  14.460  0.1088  0.0055  0.0804
18617W        W34086   9.469   4.981   3.819 -0.0318 -0.2865 -0.2784
18618W        W34087   6.090   4.877  14.091  0.0019  0.1012  0.1312
18619W        W34088  14.714  12.557   3.186 -0.0098 -0.0221  0.0884
18620W        W34089   3.781  11.887   4.488  0.0025 -0.0756 -0.1973
18621W        W34090   4.531   5.039  13.978 -0.1614 -0.0127 -0.0626
18622W        W34091   2.656  10.386   3.352  0.0743 -0.0834 -0.1654
18623W        W34092   6.210   1.512   5.101 -0.2048 -0.0090  0.1334
18624W        W34093   2.656   9.932   9.639 -0.2042 -0.0252  0.1776
18625W        W34094  14.891  12.091  11.725  0.0654 -0.2786 -0.4154
18626W        W34095   5.422   8.778   5.659  0.2779 -0.1826 -0.0343
18627W        W34096   8.717   8.658  12.287  0.2567 -0.1034  0.3003
18628W        W34097  16.949  16.970   2.316  0.0113  0.1031 -0.0264
18629W        W34098   4.935   0.790   5.153  0.1173 -0.3236  0.1604
18630W        W34099   0.681  10.627  11.642 -0.0560 -0.0698  0.2780
18631W        W34100   2.395  16.300  13.578  0.1288 -0.0677  0.3236
18632W        W34101  14.596   8.489   1.747 -0.0240  0.0398 -0.3387
18633W        W34102  14.720   0.552   5.888  0.1513  0.1352 -0.4121
18634W        W34103  13.904  12.849   4.942  0.0523  0.0108  0.1919
18635W        W34104   5.445  18.196   6.126 -0.0728 -0.0977  0.0482
18636W        W34105   4.316  14.330  12.277 -0.1813 -0.0420  0.1009
18637W        W34106  18.027   9.190  11.240 -0.0915 -0.1583  0.3376
18638W        W34107   1.501   5.610  10.421  0.1040  0.0159  0.1498
18639W        W34108  11.582   8.613   0.885 -0.0963  0.0532 -0.1408
18640W        W34109  11.961  13.581   0.938 -0.0966  0.3192 -0.1197
18641W        W34110   1.177   0.943   5.311  0.2591 -0.0278  0.0054
18642W        W34111  14.082   6.827  13.802  0.0271 -0.1154 -0.1033
18643W        W34112   3.647   2.723  13.814 -0.2175 -0.1343  0.0644
18644W        W34113   3.736   8.267   5.036  0.0776 -0.0459  0.2901
18645W        W34114  10.247   2.070  15.521 -0.1864  0.4528 -0.1943
18646W        W34115   6.311   4.039  11.531 -0.0744 -0.3704  0.0519
18647W        W34116  10.192   9.621   2.866 -0.3342 -0.0817 -0.0943
18648W        W34117  10.238   5.720   5.678  0.1670  0.3139  0.3254
18649W        W34118   2.798   0.105  12.204 -0.2257 -0.4105 -0.0469
18650W        W34119  11.217  13.523   3.587  0.1562  0.1563  0.0270
18651W        W34120  10.584   1.587   1.487 -0.0543  0.1257  0.1689
18652W        W34121  18.035   0.402  14.888  0.1772  0.0838 -0.0299
18653W        W34122   0.231  17.260   3.950  0.0952  0.0541 -0.1995
18654W        W34123   2.088   6.379  12.938  0.2091  0.0841  0.1182
18655W        W34124   5.704   5.738  13.823 -0.2404  0.2254  0.3819
18656W        W34125   9.855  12.560   2.978  0.2594 -0.0693  0.0994
18657W        W34126  14.871  17.212   1.373  0.3607 -0.2434  0.1316
18658W        W34127  14.220   4.866  10.480 -0.0161  0.1106  0.1051
18659W        W34128   0.807  15.863   4.593  0.1712 -0.4129 -0.0401
18660W        W34129  12.698  17.131  12.122  0.1502 -0.3964  0.2092
18661W        W34130   3.139   1.199   5.781 -0.1316 -0.2042 -0.1522
18662W        W34131  18.361  10.199  15.296  0.5798 -0.1043 -0.3552
18663W        W34132  11.451   1.906  15.664  0.2494  0.3695 -0.0120
18664W        W34133   1.441   1.917   4.595  0.1616 -0.0633 -0.2321
18665W        W34134  18.622  10.376   1.352  0.0407 -0.1139 -0.0663
18666W        W34135   4.570   7.903   1.080  0.2805 -0.1630 -0.1152
18667W        W34136   2.964   8.468  14.075  0.2897 -0.3845  0.3104
18668W        W34137  13.559   9.877  13.682  0.3837 -0.1966  0.0241
18669W        W34138  10.940  10.084   3.777  0.0063  0.1444 -0.1741
18670W        W34139   8.713   4.399  15.199 -0.0686 -0.1020 -0.1340
18671W        W34140  18.320   9.961   3.858 -0.1163  0.1762  0.1901
18672W        W34141  15.516   6.619  12.651  0.2413  0.1343  0.0959
18673W        W34142   6.925  15.797   0.661  0.3640  0.2538 -0.2470
18674W        W34143  16.046  16.524  13.420 -0.2016  0.0538  0.0353
18675W        W34144  15.363   1.386   3.285 -0.4439  0.3160  0.0494
18676W        W34145  15.976   6.976  13.972  0.1222  0.1446  0.3421
18677W        W34146  12.634  18.189   0.815 -0.1485 -0.0200  0.3442
18678W        W34147   7.002   7.027  14.405 -0.0201  0.2021 -0.2298
18679W        W34148  16.429  15.693   1.114  0.0007 -0.0919  0.1830
18680W        W34149   1.509   8.396  11.681  0.3095  0.1139  0.1113
18681W        W34150  12.024   7.399  12.465 -0.2255 -0.0797 -0.1876
18682W        W34151  11.352  14.678   2.617 -0.1753 -0.1016 -0.3087
18683W        W34152   2.169   1.108   0.074 -0.2211  0.2862  0.2067
18684W        W34153   0.181   4.399  13.374 -0.2677 -0.1691  0.1038
18685W        W34154   8.262   9.872   4.337  0.1256 -0.2424  0.1269
18686W        W34155   1.526   3.863  13.813 -0.0686  0.1875  0.1198
18687W        W34156  14.863  17.150  13.138  0.1081 -0.3158 -0.1954
18688W        W34157   5.388   8.448  14.353  0.2652 -0.2711  0.0022
18689W        W34158  15.669   9.027  14.470  0.1559 -0.1284  0.2215
18690W        W34159  14.674  18.056   3.135  0.0694  0.1030 -0.0253
18691W        W34160  18.361   4.967   4.592  0.0135  0.1083 -0.1778
18692W        W34161  11.388   4.115  11.615 -0.0295  0.0764  0.1687
18693W        W34162   2.135  14.477   3.304 -0.3327  0.0296  0.1217
18694W        W34163   2.821  13.812   0.732 -0.0085  0.2064  0.0525
18695W        W34164  11.414  14.863   5.029  0.2160  0.0694  0.1720
18696W        W34165   7.670   5.187  15.252  0.1213 -0.0444 -0.0560
18697W        W34166   0.082   2.085   2.958 -0.3074  0.1674 -0.1527
18698W        W34167  14.082   8.467  15.459  0.1128  0.1675  0.0819
18699W        W34168   2.643   2.331   0.491 -0.0813 -0.1375  0.4298
18700W        W34169   3.401  13.967   3.795 -0.1035  0.1685  0.0624
18701W        W34170  17.816  13.067   0.949  0.1367  0.2160  0.0555
18702W        W34171   8.960  18.585   1.396 -0.0684 -0.1609  0.2264
18703W        W34172   3.688   6.248  14.324 -0.0890 -0.0517 -0.1782
18704W        W34173   6.102   5.549  14.286  0.1273 -0.1502  0.0888
18705W        W34174   6.264   6.779  14.082 -0.3359  0.1826 -0.4316
18706W        W34175   1.968   0.538   1.925  0.2104  0.0644  0.0282
18707W        W34176   8.654   1.785  13.525  0.0584 -0.0541  0.1407
18708W        W34177   7.400  13.622   0.348 -0.1185  0.1642  0.2178
18709W        W34178   2.825  15.436  14.488  0.2137  0.2835  0.0415
18710W        W34179   5.225  15.050   0.739  0.0350  0.1070  0.2376
18711W        W34180   0.665   1.366   4.129 -0.0256 -0.5102 -0.4127
18712W        W34181  11.823   2.436   5.435  0.0850 -0.1954 -0.1695
18713W        W34182  15.016  11.724   2.038  0.3081  0.0204  0.0078
18714W        W34183  10.046   0.451   0.462  0.1064 -0.0513 -0.0400
18715W        W34184   4.253  11.947  15.780  0.1223 -0.1275  0.3386
18716W        W34185   6.425  17.835  15.403 -0.0823  0.3050 -0.1540
18717W        W34186   2.493   8.102   5.608 -0.1518 -0.1207  0.1458
18718W        W34187  12.740   7.155  13.034  0.3912  0.0605 -0.2030
18719W        W34188   2.481  15.914  11.646  0.3028  0.4937 -0.0830
18720W        W34189  10.592   0.299   6.856  0.1691 -0.0340  0.1843
18721W        W34190   1.937  11.010  14.207 -0.1540 -0.1423 -0.1315
18722W        W34191  15.281   8.581   1.042  0.2703  0.4508 -0.0653
18723W        W34192  17.620  12.653   2.112  0.3462  0.2165 -0.0328
18724W        W34193  16.614   9.248   3.906  0.1112  0.1237 -0.1989
18725W        W34194  17.256  11.818   4.228  0.0656 -0.2006 -0.3255
18726W        W34195   7.588   5.593   0.131  0.0267  0.0405 -0.0148
18727W        W34196   7.906   5.534  14.896  0.0646 -0.2847  0.1813
18728W        W34197  16.533  13.431   1.282 -0.0878 -0.0134  0.2425
18729W        W34198  12.285   5.502   1.573 -0.2093 -0.1269 -0.3054
18730W        W34199  16.316   2.083  12.890 -0.3583  0.0752  0.1593
18731W        W34200   4.885   6.620   2.655  0.2584  0.0478  0.0189
18732W        W34201   7.183  14.371  11.648 -0.1501 -0.0209  0.0892
18733W        W34202  17.715  10.528  11.260 -0.1439  0.0047 -0.0630
18734W        W34203  13.213  15.476  10.501  0.0846 -0.1972  0.2392
18735W        W34204  10.651   2.914  12.556  0.0569 -0.0728 -0.3896
18736W        W34205  14.601  11.517   2.108 -0.0838  0.2800 -0.0801
18737W        W34206   7.105  17.189   3.003 -0.3950 -0.2753  0.0236
18738W        W34207   2.127   8.497   2.981 -0.2941  0.0248  0.0565
18739W        W34208  13.494  14.702  10.827 -0.2660 -0.4147 -0.3148
18740W        W34209  16.949   4.861  15.179 -0.2634  0.0947 -0.4786
18741W        W34210   2.074   6.408  12.314  0.0096 -0.4393 -0.0151
18742W        W34211   6.432   3.892   3.503 -0.0292  0.0532  0.2380
18743W        W34212  17.187  16.159   3.819 -0.0219 -0.2604 -0.2660
18744W        W34213  15.835  12.102   3.008  0.1970 -0.2036 -0.2582
18745W        W34214   2.817   7.833  14.627  0.2066 -0.2624 -0.0797
18746W        W34215  15.820   8.936   5.103 -0.2202  0.1047  0.2847
18747W        W34216   8.169  17.094  12.945  0.1517 -0.1834  0.0031
18748W        W34217  17.757   1.123  15.627 -0.0297 -0.1264  0.0692
18749W        W34218   0.284   4.638  14.741 -0.0152 -0.1403  0.0231
18750W        W34219   2.025   5.770  14.821 -0.0589 -0.0654 -0.2124
18751W        W34220   2.808   9.837   2.551 -0.2824 -0.1466 -0.0903
18752W        W34221   5.637  13.714   1.177 -0.2324  0.0948 -0.1238
18753W        W34222  14.013   8.825   0.069 -0.0515 -0.0051 -0.3583
18754W        W34223   3.253   4.405   4.902  0.0519 -0.0151  0.1581
18755W        W34224  13.156  18.060  15.744  0.1959 -0.0550 -0.1384
18756W        W34225   4.202   7.987  12.922 -0.2783 -0.1764  0.1755
18757W        W34226   7.839   9.769   1.167  0.2080  0.2169  0.1339
18758W        W34227  17.109   3.612  14.907  0.2907 -0.2651  0.0756
18759W        W34228   2.177  11.039   0.344  0.1366 -0.0489  0.1049
18760W        W34229   0.643  12.324   0.245 -0.1230  0.2693  0.1867
18761W        W34230  14.096  10.994   2.841 -0.0892 -0.2271 -0.1722
18762W        W34231   2.970  10.747  14.583  0.2374  0.1936 -0.2206
18763W        W34232   5.308  11.896   3.326 -0.1154  0.0104  0.1891
18764W        W34233   9.122  18.559  11.150  0.1634 -0.2442  0.2062
18765W        W34234  10.741   8.212  15.170  0.0718  0.1465  0.0463
18766W        W34235  11.661   7.298   4.819  0.4482 -0.0791  0.1898
18767W        W34236   7.600   0.471  14.356 -0.1430  0.2573 -0.1613
18768W        W34237   1.673  14.073   4.623 -0.2945  0.1505  0.0617
18769W        W34238   2.052  13.920   3.255  0.1217  0.0519 -0.0448
18770W        W34239   2.639   4.290   3.069 -0.1171  0.0115 -0.1790
18771W        W34240   7.215   5.530  15.252  0.3001  0.2047  0.3851
18772W        W34241   3.016   0.286  13.965 -0.0136 -0.0364 -0.0569
18773W        W34242  17.326   9.330   3.406 -0.0721  0.0741  0.2668
18774W        W34243   6.010   9.657  14.210 -0.1263 -0.1528  0.1594
18775W        W34244  11.563  18.532  10.839  0.1172  0.2720 -0.2198
18776W        W34245   7.549  12.639  10.753 -0.0861  0.0542  0.1588
18777W        W34246   9.651   9.284  12.341 -0.0000  0.1362 -0.0412
18778W        W34247  13.295  14.752   2.749 -0.0847  0.3952  0.0777
18779W        W34248  17.648  12.361   0.173 -0.0010  0.3090 -0.0038
18780W        W34249  12.298  14.298  13.458  0.2221  0.1115  0.1139
18781W        W34250   1.047  15.445   4.581  0.1695  0.2919  0.1315
18782W        W34251  12.619   6.706  12.621 -0.0201  0.0397 -0.0449
18783W        W34252  15.633  17.655   1.441 -0.0070 -0.1674  0.0414
18784W        W34253   0.132   4.711   0.690 -0.1249 -0.0909  0.0673
18785W        W34254   7.896   7.785  14.147  0.0540  0.2231 -0.0355
18786W        W34255   0.641   7.712  13.538  0.1432  0.1923 -0.0758
18787W        W34256  11.093   4.089   5.068  0.0855  0.2508 -0.0392
18788W        W34257   9.724   0.801   0.527 -0.0666  0.0610  0.0862
18789W        W34258  10.607   5.440   1.834  0.0367 -0.1474  0.0286
18790W        W34259   1.689   4.363  15.508 -0.3156 -0.3020  0.0585
18791W        W34260  11.132  17.956  12.560 -0.0243 -0.0534  0.2515
18792W        W34261  14.299  18.314  13.844  0.1684 -0.1798 -0.1845
18793W        W34262  13.195   5.618   0.113 -0.1590 -0.0461  0.0745
18794W        W34263   3.132  15.422   2.445 -0.1986 -0.0185 -0.1097
18795W        W34264  13.727   2.341   3.354 -0.1091 -0.0607  0.2600
18796W        W34265   0.280   3.647   0.909 -0.0162 -0.0241 -0.1966
18797W        W34266   1.254   7.189  12.423  0.1757  0.2863 -0.0515
18798W        W34267  14.811  17.507   1.755  0.2474  0.2370 -0.0265
18799W        W34268  12.003   1.323   6.195 -0.0269 -0.0467 -0.2484
18800W        W34269  18.379  14.734   3.768  0.2594 -0.2965  0.1820
18801W        W34270  15.413   6.909  15.682 -0.2470 -0.3465  0.0933
18802W        W34271  16.119   9.370  11.275 -0.3853 -0.0558 -0.0255
18803W        W34272   0.882  11.648   5.203  0.1097  0.1680 -0.0010
18804W        W34273   2.588   7.395   3.077 -0.2898 -0.1323 -0.0200
18805W        W34274   0.203   1.095   1.461  0.0154 -0.2626 -0.5484
18806W        W34275  17.383  10.939  11.412  0.2220 -0.0498 -0.0243
18807W        W34276  18.344   0.974  11.239 -0.0110 -0.1691  0.0628
18808W        W34277  12.113   3.112  11.287 -0.1593 -0.0346  0.3773
18809W        W34278  10.932   5.543   2.751 -0.0801 -0.4350  0.1980
18810W        W34279  11.312   6.077   3.497 -0.0138  0.0205 -0.3408
18811W        W34280   8.484   7.720   0.092 -0.1248  0.0379  0.3442
18812W        W34281  15.417  11.270  10.705 -0.0527 -0.4279  0.1525
18813W        W34282   0.031   6.154  14.732  0.0090 -0.2198  0.1467
18814W        W34283  11.931   6.792  15.457  0.0222  0.0988  0.4412
18815W        W34284   0.329  10.591  12.021  0.1903  0.2585  0.1982
18816W        W34285  11.065  15.978   4.838 -0.0803  0.2969  0.0147
18817W        W34286   6.302   2.373  14.380 -0.2844  0.1856  0.1344
18818W        W34287   7.576   1.553   3.675 -0.3654 -0.4115 -0.1568
18819W        W34288   7.355   9.523   1.134  0.0743 -0.0571 -0.1269
18820W        W34289   3.141   2.080  15.654 -0.2127 -0.1149  0.1188
18821W        W34290  17.933   5.203   4.329 -0.0537  0.3028  0.2376
18822W        W34291  10.076   9.575  14.492 -0.3211  0.0453 -0.0909
18823W        W34292   1.060   5.632  12.661  0.0569 -0.0595 -0.0367
18824W        W34293   2.157   5.175  12.721  0.1300 -0.0067 -0.2825
18825W        W34294   6.887   1.121  10.938 -0.1117 -0.2111  0.1208
18826W        W34295   0.696   8.442  10.291 -0.0107 -0.1061  0.0322
18827W        W34296   6.714   6.654   4.035 -0.0031  0.0313  0.0896
18828W        W34297   6.465  11.740  13.559 -0.0340  0.0484  0.1161
18829W        W34298   7.797   1.483   4.255 -0.2341  0.2932  0.0976
18830W        W34299   9.477  11.511  15.160 -0.1505 -0.0740  0.1451
18831W        W34300   6.585   7.677   5.013  0.0041  0.3049  0.2255
18832W        W34301   7.384   4.082  15.003 -0.0728 -0.0538  0.1782
18833W        W34302   6.939  18.368  12.637  0.0194 -0.1529 -0.2318
18834W        W34303  11.022  15.194  14.621 -0.4098 -0.0931  0.4228
18835W        W34304   9.065   6.173   3.952 -0.2454  0.1002 -0.1097
18836W        W34305   9.824   0.928  12.011 -0.1276  0.2312  0.2296
18837W        W34306  14.589   4.424  11.726  0.2928 -0.0810 -0.0101
18838W        W34307   1.478  11.291   3.158 -0.0230 -0.1648  0.4582
18839W        W34308  16.738  15.224  11.451 -0.0226 -0.1821 -0.0185
18840W        W34309   3.669   4.921   0.604  0.1098  0.3288  0.0594
18841W        W34310  13.874   0.759   0.767 -0.1134  0.1441  0.1421
18842W        W34311  15.077   4.485  11.894 -0.1931  0.4011  0.1731
18843W        W34312  16.849  10.015   1.719  0.0243  0.1466 -0.0197
18844W        W34313   0.958  11.869   1.563  0.0365  0.1502 -0.1235
18845W        W34314   6.237  12.207  11.315 -0.0393 -0.0794 -0.2929
18846W        W34315  13.072  10.406  15.383  0.0398  0.3565 -0.1746
18847W        W34316   4.439   2.059   2.696  0.2113 -0.1469 -0.1349
18848W        W34317   3.811  13.711  15.410 -0.2838 -0.0780  0.0262
18849W        W34318   9.840  10.503   2.746 -0.1850 -0.1664 -0.1453
18850W        W34319   6.630   8.324   2.113  0.1166  0.0346  0.0414
18851W        W34320  15.463  12.246  12.702  0.0552 -0.2341  0.1045
18852W        W34321  14.897   2.702   0.640 -0.1800 -0.2347 -0.0115
18853W        W34322   0.113  13.600  14.487 -0.0089  0.1763 -0.5420
18854W        W34323  15.985  13.495   4.966 -0.2097 -0.0632  0.1301
18855W        W34324   7.087   0.367  13.746  0.2313 -0.3890  0.0492
18856W        W34325  12.408   5.496   2.899  0.0583  0.2678  0.1741
18857W        W34326  10.185  15.943   2.036  0.3017  0.1167  0.1075
18858W        W34327   9.656  12.044   4.875 -0.0027 -0.2472  0.2204
18859W        W34328   6.846   0.830   5.383 -0.0999 -0.1532 -0.0755
18860W        W34329  16.844  11.341  15.061  0.1874 -0.3418  0.0727
18861W        W34330   1.336   1.155  12.041  0.1189  0.0859 -0.0904
18862W        W34331  16.939  13.655   5.312  0.1209  0.2063  0.2993
18863W        W34332  17.551  12.441  13.758 -0.1381 -0.0734  0.3157
18864W        W34333  11.927   1.027  11.988 -0.3711  0.0628 -0.0903
18865W        W34334  13.632   5.741   1.642 -0.0979  0.1773 -0.0847
18866W        W34335   3.588  13.368   3.077 -0.1937  0.0180 -0.0487
18867W        W34336  11.636   8.243  12.188  0.1812  0.2406 -0.1439
18868W        W34337   6.660  13.524   1.378 -0.0617 -0.2319 -0.2618
18869W        W34338  15.339  16.900  11.398  0.1250 -0.0700  0.2526
18870W        W34339   9.536  17.819   6.190 -0.0833 -0.1569 -0.0510
18871W        W34340   3.314  11.304  12.176 -0.1854  0.2308 -0.0284
18872W        W34341   5.390  15.183   4.769 -0.0922 -0.3025  0.0024
18873W        W34342   6.920  16.052   5.224  0.0200 -0.2591 -0.4601
18874W        W34343   1.832  15.051  11.424  0.0638 -0.0178  0.0798
18875W        W34344  13.602  18.237  11.869  0.0213  0.0014  0.0471
18876W        W34345   2.339   6.772  13.700 -0.0127 -0.0837 -0.3382
18877W        W34346  10.104   9.179  13.311  0.0735  0.0042  0.1424
18878W        W34347  14.084   4.195  14.886 -0.2349  0.0460 -0.3079
18879W        W34348  17.422   6.997  15.360 -0.1291  0.0292 -0.1077
18880W        W34349  10.063  12.578   0.112  0.0035  0.0370 -0.2564
18881W        W34350   9.529   2.182   6.161 -0.0511 -0.2407  0.0519
18882W        W34351   7.115  10.895   5.969 -0.5119  0.1763  0.0977
18883W        W34352   3.236  11.596   3.900  0.2659  0.0935  0.0888
18884W        W34353   7.438  14.928  14.886 -0.0446 -0.0958 -0.2862
18885W        W34354   2.973   7.902   0.375 -0.1224  0.0060  0.0036
18886W        W34355   4.431   8.748   2.117 -0.2127  0.0329  0.0651
18887W        W34356   9.852   9.785  10.535  0.2050  0.2086  0.0966
18888W        W34357  17.047  16.108   1.490  0.1879 -0.0181 -0.0467
18889W        W34358   0.822   0.392  13.757  0.1456  0.0682  0.1302
18890W        W34359  12.991   9.726  12.216  0.0432 -0.1349  0.0138
18891W        W34360   1.187  16.144  10.809  0.0583 -0.0720 -0.0061
18892W        W34361  11.890  11.340  10.023 -0.0644 -0.1076  0.2475
18893W        W34362   0.297  18.249   2.073 -0.0881  0.0486 -0.0682
18894W        W34363  11.680  16.183   4.745  0.1386  0.1925  0.3098
18895W        W34364  13.796  12.332   2.955 -0.0806  0.3270  0.2673
18896W        W34365  13.054  18.075   2.748  0.0761  0.0135 -0.1101
18897W        W34366  11.793   8.425  13.269 -0.0115 -0.1372  0.0993
18898W        W34367  12.727   7.745   4.513 -0.0659 -0.2269  0.0571
18899W        W34368   2.418  16.928  11.897 -0.0508  0.0266 -0.1493
18900W        W34369   7.051   2.066   1.201  0.0925 -0.2214  0.1280
18901W        W34370  17.616   6.706  11.889  0.2657 -0.2054  0.0210
18902W        W34371   2.668  17.833  15.532 -0.1620  0.2540  0.3354
18903W        W34372   4.677   0.669   2.069 -0.2090  0.2582 -0.1408
18904W        W34373   7.202   9.488   0.677 -0.0153 -0.1544 -0.1216
18905W        W34374  11.723   7.852  15.582  0.1544 -0.0614  0.0518
18906W        W34375  17.018  17.438  14.720  0.1876 -0.1050  0.0628
18907W        W34376  13.960  12.955  11.883  0.0813 -0.1505  0.0153
18908W        W34377   1.951   7.735  13.797  0.0472 -0.1345  0.0206
18909W        W34378   1.140   8.182   2.047 -0.1615 -0.2101 -0.0564
18910W        W34379   1.460   6.401   2.161 -0.2830 -0.1577 -0.2235
18911W        W34380  17.761   8.714  10.847 -0.1653 -0.1662  0.1448
18912W        W34381   6.683   6.004  10.716  0.0773  0.0761  0.1399
18913W        W34382   6.218  11.574   0.196 -0.2083  0.3950 -0.2208
18914W        W34383  10.855  15.365   5.617  0.0156  0.0668 -0.2111
18915W        W34384   0.645   0.498   1.138  0.0400 -0.0443  0.0060
18916W        W34385   2.156  13.398  12.438  0.3160 -0.1139  0.3324
18917W        W34386   7.136  15.872  12.331 -0.1439 -0.0984  0.2666
18918W        W34387   6.462   6.942   0.545  0.1764 -0.1586 -0.0527
18919W        W34388   9.485  13.605  13.777  0.0857 -0.0025 -0.1535
18920W        W34389   9.260  14.566  12.673  0.0757 -0.0104  0.1822
18921W        W34390   6.658   6.008   1.384 -0.1910 -0.2026  0.2494
18922W        W34391   4.420  15.406  13.796 -0.0184 -0.2113  0.1446
18923W        W34392   2.154   0.232   4.143  0.1524 -0.1970 -0.1137
18924W        W34393   0.587  18.468  10.123  0.0335 -0.2346 -0.2581
18925W        W34394  14.982   8.962   0.374  0.0705 -0.1046 -0.2579
18926W        W34395  17.388  17.468  14.279 -0.0636 -0.0380  0.0200
18927W        W34396  13.344  13.867  13.348  0.1042 -0.1672  0.0021
18928W        W34397   6.705  12.480  13.227 -0.2241 -0.0837 -0.1578
18929W        W34398  10.877   5.200  15.625  0.0106  0.0799 -0.0517
18930W        W34399   1.012   5.470   4.590  0.0127 -0.2780 -0.0341
18931W        W34400   7.922   4.866   6.066 -0.0227 -0.2411 -0.0347
18932W        W34401  16.672   4.102   4.738  0.3869 -0.0667 -0.1237
18933W        W34402  17.429   5.824  11.298 -0.2591 -0.3938  0.0764
18934W        W34403  15.472   0.432   3.783 -0.0941  0.2089 -0.1896
18935W        W34404  11.672  14.401  14.186  0.5611 -0.2662  0.2910
18936W        W34405  14.492   5.331  12.063 -0.0546  0.0468  0.3036
18937W        W34406  15.299  17.691   3.655 -0.0968 -0.0819  0.0001
18938W        W34407   6.793   2.767  15.736 -0.1072  0.0001  0.1042
18939W        W34408  14.838   1.672  12.736  0.0184  0.2112  0.1299
18940W        W34409   9.789  13.417  14.476  0.0718  0.1541 -0.0780
18941W        W34410  18.435  16.229  12.524 -0.0691  0.0316  0.1463
18942W        W34411  11.299   5.195  11.353 -0.0042  0.1161  0.0363
18943W        W34412   9.841   9.603  11.898 -0.0038  0.2915  0.2326
18944W        W34413  14.828  10.846   1.584 -0.4783 -0.0325 -0.1189
18945W        W34414   5.392   7.991   2.320 -0.3210 -0.1733 -0.3313
18946W        W34415   9.257   9.361   3.715  0.0637  0.0516 -0.1124
18947W        W34416   1.925  13.922   0.368  0.0150 -0.2097  0.2555
18948W        W34417   5.519  10.578   4.750  0.1213 -0.0975 -0.0094
18949W        W34418  10.498   6.262   2.231 -0.2648 -0.1684 -0.0621
18950W        W34419   7.175   4.912   3.411  0.3041 -0.1014  0.0584
18951W        W34420  11.547  15.225   0.295 -0.0316  0.1583  0.1101
18952W        W34421   6.910  18.378   6.265 -0.2118 -0.1670  0.0339
18953W        W34422   1.677   6.122  11.476  0.2218 -0.0624 -0.1447
18954W        W34423  14.617   7.178  10.370  0.0565 -0.1877 -0.0336
18955W        W34424  12.724  10.730   2.491 -0.0073 -0.0379 -0.2143
18956W        W34425   9.068  11.813  10.905 -0.0933 -0.0657 -0.2143
18957W        W34426  11.659   4.443   2.096  0.0661  0.0207  0.1560
18958W        W34427   5.512  16.322   2.619 -0.0899 -0.0387  0.1046
18959W        W34428   5.734   7.468   5.090  0.1594 -0.1707 -0.1162
18960W        W34429  16.003  12.958   3.132 -0.1060 -0.1209  0.0908
18961W        W34430   3.278   2.874  14.070  0.1845 -0.0329 -0.3055
18962W        W34431   2.425   2.626   3.814 -0.2457 -0.0005  0.1984
18963W        W34432  16.327   6.918   2.864  0.0746  0.1360  0.1079
18964W        W34433   3.365   8.550   4.210  0.0989  0.2874 -0.1089
18965W        W34434  11.260   8.469   1.898  0.1472 -0.2120 -0.0261
18966W        W34435   0.402   9.115  15.337 -0.0991  0.4353  0.0504
18967W        W34436  15.157  17.046  10.884 -0.4211 -0.0796 -0.0989
18968W        W34437   4.401   5.053  14.934 -0.2167 -0.0016  0.0551
18969W        W34438   5.862   2.425   1.655 -0.3183  0.0751  0.2487
18970W        W34439  11.582   9.916   5.931  0.0506  0.2588 -0.1962
18971W        W34440   7.596   5.907  15.107 -0.3671  0.1438  0.0664
18972W        W34441   7.367   8.362  12.700 -0.0773  0.1994  0.0696
18973W        W34442  13.804   4.764   4.631 -0.0232 -0.0728 -0.1580
18974W        W34443  12.786  18.621  12.180 -0.0644  0.2653 -0.3437
18975W        W34444  17.953   2.784  10.991 -0.2368 -0.1159 -0.2083
18976W        W34445  17.880   1.636  14.117 -0.1031  0.3162 -0.1423
18977W        W34446   3.950  11.435  10.695  0.1207  0.2663  0.0904
18978W        W34447   1.434   2.876   3.143 -0.2007  0.0630 -0.0505
18979W        W34448   1.393   1.843  14.552 -0.1223  0.0096  0.1272
18980W        W34449   9.215  14.974   4.092  0.1967 -0.3998 -0.0924
18981W        W34450   9.292   4.136   2.996  0.2800 -0.3557  0.2121
18982W        W34451  18.200   3.112  13.800  0.2270  0.3121 -0.3445
18983W        W34452  17.752   9.502   2.783  0.0893  0.1679  0.2968
18984W        W34453   4.037   3.570   1.022  0.1840  0.1770 -0.1139
18985W        W34454  14.488  17.846   3.824  0.3353 -0.4615  0.1076
18986W        W34455   2.680   9.189  10.112 -0.1053  0.1930  0.1055
18987W        W34456   6.749  13.299  14.275  0.0185 -0.0615 -0.1859
18988W        W34457  12.078  11.564   1.337 -0.1313 -0.1706  0.2184
18989W        W34458   7.518  16.584  14.350 -0.2260  0.0984  0.0262
18990W        W34459   8.073  13.247   1.552  0.2085  0.0310  0.1570
18991W        W34460   1.442  13.751   0.417  0.0500  0.1089  0.2436
18992W        W34461   4.843  14.194   9.781 -0.3330 -0.0698  0.1483
18993W        W34462  16.793   9.600  11.987 -0.0227 -0.2642  0.1514
18994W        W34463   3.516  13.606   0.169 -0.0043  0.2747 -0.1914
18995W        W34464  10.853   0.634   1.752 -0.4002 -0.0183  0.1619
18996W        W34465   2.732  18.231   3.898 -0.2007  0.0456  0.0416
18997W        W34466   4.486   6.060  13.196  0.2634  0.0765  0.2068
18998W        W34467  10.461  11.570   1.087 -0.3922 -0.1307  0.0658
18999W        W34468   2.641  15.169   5.641 -0.1969  0.2581 -0.2197
19000W        W34469  15.060  12.533  10.934 -0.1368  0.1352  0.1038
19001W        W34470  13.885  10.424  10.623 -0.1106 -0.0670  0.3778
19002W        W34471  16.437  14.157   2.237 -0.0495 -0.3484 -0.0064
19003W        W34472  14.273   5.952   4.906 -0.0521 -0.1575 -0.1010
19004W        W34473   2.746  15.106   2.592 -0.1063  0.1043 -0.0703
19005W        W34474  13.016   4.837  15.416 -0.3221 -0.2521  0.1951
19006W        W34475  10.448   6.314  15.713 -0.2758  0.3412  0.3076
19007W        W34476  14.774   8.958   1.692  0.0509  0.2182  0.1991
19008W        W34477  11.948   8.810   5.420 -0.2852 -0.1351  0.1525
19009W        W34478  13.231   6.993   0.207 -0.0463 -0.1649 -0.3842
19010W        W34479   6.771   2.032  14.429 -0.1083 -0.0940  0.2884
19011W        W34480   9.305   9.685  14.642 -0.1716  0.2028  0.2125
19012W        W34481   2.163  15.226  10.186  0.2908 -0.1263 -0.1351
19013W        W34482   7.872  11.444  13.660  0.4381  0.0497 -0.0582
19014W        W34483   5.125  17.919   4.378 -0.0441 -0.2294 -0.3860
19015W        W34484   5.152  15.108   0.200  0.0507  0.2663  0.0219
19016W        W34485  11.385   1.987   6.292  0.4277 -0.0283 -0.0600
19017W        W34486  10.078   7.693  11.886  0.2806 -0.0435 -0.2202
19018W        W34487   5.945   6.071   4.302 -0.2176 -0.0314  0.1060
19019W        W34488  15.337   4.667   3.407 -0.3248  0.2774 -0.1131
19020W        W34489  12.123   8.364   1.547  0.2296  0.3290 -0.4871
19021W        W34490  10.429   0.575   4.734  0.0352 -0.1144  0.1672
19022W        W34491   0.097  18.030  15.332  0.4232 -0.0898  0.2154
19023W        W34492   6.976   5.274  14.890  0.1136  0.2474  0.0005
19024W        W34493   1.000  17.960   4.138 -0.1504 -0.0492 -0.1954
19025W        W34494  15.219   5.141  13.405  0.1490 -0.0865  0.1331
19026W        W34495   6.894  11.176  15.358  0.2271  0.1660  0.0119
19027W        W34496   0.884   0.092  11.617 -0.0904  0.0211 -0.1667
19028W        W34497   5.486   5.351   2.826 -0.0610 -0.1510  0.0986
19029W        W34498  18.248  14.620  13.804 -0.1072  0.0735 -0.1453
19030W        W34499  14.583   0.419   2.341  0.0967  0.1226 -0.0926
19031W        W34500  12.847   2.095   3.402  0.0011  0.0000 -0.0439
19032W        W34501   7.918   6.295  10.644  0.0709 -0.0437  0.0313
19033W        W34502  18.496   7.979   3.158  0.0978 -0.0415 -0.0327
19034W        W34503  10.201   9.714  12.558  0.1246 -0.1902  0.0277
19035W        W34504  17.630   0.322  15.455 -0.3832 -0.0063  0.0832
19036W        W34505  11.043   4.359   1.829 -0.1139  0.3498 -0.3538
19037W        W34506  15.902  10.509  12.736 -0.1759  0.2810 -0.0816
19038W        W34507  10.109   0.697   2.945 -0.0808 -0.1643  0.0116
19039W        W34508   4.812  10.477  11.036 -0.0850 -0.0412  0.2902
19040W        W34509   6.392  10.925  12.191 -0.0851  0.2734 -0.1337
19041W        W34510   7.099   7.140   5.550 -0.0239 -0.1403  0.0320
19042W        W34511   8.401   1.316   1.227 -0.0539 -0.0072 -0.0851
19043W        W34512  17.263   7.108   3.432 -0.3589 -0.1169 -0.0065
19044W        W34513  17.716  17.748  10.788  0.0531 -0.3069 -0.1857
19045W        W34514  12.204   5.070   1.099 -0.2205 -0.4412  0.0517
19046W        W34515  11.326  17.699  14.245 -0.2954 -0.1930  0.0989
19047W        W34516  13.491   3.235  11.022  0.3329  0.0520  0.0457
19048W        W34517  13.271   0.161  13.112  0.0607 -0.2034  0.0185
19049W        W34518  13.480  11.284   0.301 -0.0583 -0.1832 -0.0583
19050W        W34519  10.561  15.553   0.092  0.4965  0.4652 -0.1220
19051W        W34520  15.168  14.678  11.297 -0.0853  0.0340 -0.0905
19052W        W34521   9.902   7.247  11.474  0.0476  0.0990 -0.0520
19053W        W34522  15.390  14.333   4.180 -0.0909 -0.2690  0.1495
19054W        W34523  10.391   7.559   2.834 -0.0002 -0.1119  0.2046
19055W        W34524   2.441  18.058  15.156  0.2079  0.2758 -0.3174
19056W        W34525  14.348  15.755   3.427  0.2381  0.4818  0.2322
19057W        W34526  13.074  11.724   5.147  0.0152  0.0794  0.1999
19058W        W34527   5.012  15.526  14.391  0.1281 -0.1097  0.1610
19059W        W34528  14.735  15.754   2.430  0.5825  0.3002  0.1849
19060W        W34529  15.228   2.465  12.281 -0.1306 -0.0263  0.1097
19061W        W34530   3.216   3.457   4.703  0.4032  0.0774  0.1681
19062W        W34531  10.040   4.472   0.548 -0.3628  0.1148 -0.3130
19063W        W34532  12.611   8.480  14.272 -0.3131  0.1680  0.0397
19064W        W34533  14.986  11.503  15.125 -0.2241 -0.0343 -0.1285
19065W        W34534  16.944  12.869  10.828  0.0724 -0.3012  0.0403
19066W        W34535   8.175  16.180   0.445  0.0160 -0.4365  0.2976
19067W        W34536  15.532  12.592   3.808  0.0722  0.1163  0.1316
19068W        W34537  17.812  15.235  11.425  0.3438  0.2158  0.0246
19069W        W34538   5.285   7.299   4.865  0.0989 -0.1839  0.0476
19070W        W34539   0.683  12.404  11.234 -0.1744 -0.0111 -0.1981
19071W        W34540  14.427  14.850   0.590 -0.1900  0.0897 -0.1038
19072W        W34541   1.479   4.317   0.753  0.2125  0.2729 -0.1067
19073W        W34542   7.803   0.185  12.280  0.1490  0.1029 -0.0898
19074W        W34543   6.711   2.050  11.221 -0.0399 -0.2575 -0.0273
19075W        W34544   8.717   1.805   5.017 -0.0835  0.0585 -0.2181
19076W        W34545  17.899  14.692  13.370  0.0124  0.1122  0.0238
19077W        W34546  13.068  11.260  10.903 -0.0618 -0.4210  0.3015
19078W        W34547  12.385  10.772  14.754  0.0925  0.0239 -0.0340
19079W        W34548   4.156   4.885   3.691 -0.2210 -0.1754 -0.1457
19080W        W34549  10.088   4.571  14.464 -0.0625 -0.3253  0.2602
19081W        W34550  15.148  18.152   2.465  0.0434 -0.1982  0.0784
19082W        W34551   7.596  11.957   9.502  0.2731  0.0644 -0.1285
19083W        W34552  14.959  18.521   4.391  0.1840  0.3062  0.1474
19084W        W34553  12.514   2.575  11.378  0.2212  0.3061  0.1653
19085W        W34554   2.788   2.143  14.677 -0.0174 -0.1776  0.2810
19086W        W34555  16.187  11.072  15.538 -0.0628  0.0325  0.4018
19087W        W34556  18.265  15.015  13.355  0.0948  0.3129  0.1584
19088W        W34557  10.513   2.150   2.861 -0.0804  0.0644  0.2590
19089W        W34558  12.978  15.354  11.314 -0.1320 -0.1452  0.0777
19090W        W34559  12.496  13.075   5.399 -0.2555 -0.0888  0.0863
19091W        W34560   8.909   1.195  11.024  0.1609  0.2218  0.2688
19092W        W34561   6.768   1.849  14.903 -0.2752  0.0868  0.0767
19093W        W34562   7.832   5.416   4.796 -0.2547  0.1946  0.1289
19094W        W34563   2.212   4.706  12.974  0.3309 -0.2285 -0.1339
19095W        W34564   5.021   3.382   2.068 -0.3132  0.0690  0.0286
19096W        W34565   7.170  12.918   1.372 -0.2080  0.0553 -0.0415
19097W        W34566   3.140   5.692  10.359 -0.1175  0.0166 -0.0686
19098W        W34567  11.682  17.841   2.380 -0.1596  0.0906  0.2254
19099W        W34568  11.229  14.899  10.843  0.0308  0.0775  0.2742
19100W        W34569   3.786  14.798   2.137 -0.1162  0.0979  0.1551
19101W        W34570  11.396  15.865  14.054 -0.1366 -0.2115  0.0372
19102W        W34571   2.996  17.650   0.923  0.1366 -0.0646  0.0615
19103W        W34572  10.884  15.661  14.846  0.1544  0.1978 -0.1616
19104W        W34573  15.649   9.699   4.911 -0.0482  0.2077 -0.0841
19105W        W34574  15.568  15.111  10.445  0.4368 -0.1239  0.0967
19106W        W34575  13.217   9.180   4.762  0.2393  0.3863 -0.0059
19107W        W34576  13.416  10.355   0.023  0.2307 -0.1277  0.2492
19108W        W34577   5.306   7.742  14.908 -0.0568 -0.0542  0.0123
19109W        W34578   1.800  17.934   0.142  0.0358  0.2695 -0.0056
19110W        W34579   1.875  14.240  15.402 -0.2674  0.0270  0.0473
19111W        W34580  18.515   7.394   2.639  0.3741  0.2297  0.2819
19112W        W34581  15.144   4.132   2.705  0.0970  0.0177 -0.1145
19113W        W34582   9.668  18.248   5.927 -0.0398  0.0476  0.0812
19114W        W34583  16.240   5.937  12.686 -0.1237 -0.1841  0.0593
19115W        W34584  17.657  16.924   0.578  0.1836  0.0093  0.1237
19116W        W34585  11.211   0.642  12.641  0.1829 -0.2735  0.0447
19117W        W34586  10.047  18.486  14.872  0.1654 -0.0393  0.3054
19118W        W34587  17.657   7.049   0.014 -0.0766  0.0793 -0.3025
19119W        W34588   8.583   8.731   5.223 -0.1534 -0.6371  0.0064
19120W        W34589   5.737   1.497  11.763 -0.1071 -0.0709 -0.3126
19121W        W34590  11.740   4.789  14.973 -0.1854  0.1731 -0.2610
19122W        W34591   4.276  11.508   2.392  0.1481 -0.1473  0.0618
19123W        W34592   2.929  10.151   4.672  0.0527 -0.1952 -0.2941
19124W        W34593  18.274   5.156   0.028 -0.0550 -0.0104 -0.0204
19125W        W34594   4.376  12.167  14.229 -0.0745  0.3840 -0.4440
19126W        W34595   1.557   9.489  11.684 -0.2290 -0.0828  0.0478
19127W        W34596  18.391  15.993   1.474 -0.1942 -0.2119  0.0985
19128W        W34597   8.423   7.397   2.164 -0.3936  0.1207  0.3682
19129W        W34598  18.090   6.308   5.190 -0.1183 -0.0188  0.0457
19130W        W34599   0.400  11.092   4.683  0.3231  0.0474 -0.2912
19131W        W34600   0.640   0.608   0.211  0.1599  0.1754 -0.0388
19132W        W34601  16.853  14.939  11.039 -0.0197  0.0061 -0.1022
19133W        W34602   1.477  13.114   0.606  0.0241  0.0435  0.2276
19134W        W34603  11.648  11.130   3.454 -0.1361 -0.0473  0.3429
19135W        W34604  10.474  10.416   5.014  0.1116 -0.0652  0.0879
19136W        W34605   9.615   9.943  11.017  0.1174 -0.1360 -0.1318
19137W        W34606   7.380  15.059  15.369 -0.0628 -0.1207 -0.3193
19138W        W34607   6.191  14.934  10.472 -0.3238 -0.1188 -0.1069
19139W        W34608   3.567  15.663   3.766 -0.0558  0.0143  0.0328
19140W        W34609  11.915  12.411   4.417 -0.1326 -0.0067  0.2428
19141W        W34610  10.905  17.118   2.642 -0.2370 -0.0629  0.0762
19142W        W34611  13.047   3.191   2.483  0.0957 -0.0641 -0.1198
19143W        W34612   5.256  15.375  11.912  0.1139 -0.0973  0.0147
19144W        W34613   7.395  12.065  14.963 -0.1835 -0.0153  0.3220
19145W        W34614   5.509   2.034   1.742 -0.0423  0.2406  0.0648
19146W        W34615  12.192   0.611   5.650  0.0971  0.4275  0.2338
19147W        W34616  12.489   4.467  12.798 -0.1290 -0.4289 -0.0720
19148W        W34617   0.500   6.063  10.170 -0.0032  0.3727  0.1065
19149W        W34618   9.499   9.529  15.755  0.1471  0.1082  0.1716
19150W        W34619   0.527   6.298  14.706  0.2205 -0.2240 -0.1907
19151W        W34620  16.537  12.430   2.662 -0.0906  0.1620  0.0883
19152W        W34621   8.696   8.808   0.568  0.1208  0.2027  0.2030
19153W        W34622  15.051   9.351   1.974  0.2347  0.1003 -0.3232
19154W        W34623   9.376   1.819  14.769  0.0844 -0.1495 -0.3032
19155W        W34624  17.911  10.965   3.590 -0.0594  0.0552  0.0617
19156W        W34625   8.262   6.187   0.178  0.1416 -0.1608 -0.4511
19157W        W34626   0.619   3.304   0.795  0.0627 -0.0195 -0.2131
19158W        W34627  14.220   5.172  14.147 -0.0107 -0.1722 -0.1724
19159W        W34628  17.437  13.790   2.900  0.0778  0.2637  0.2502
19160W        W34629  10.650  15.284  14.135  0.1629 -0.0494  0.1555
19161W        W34630   5.977   3.140  13.475 -0.0657  0.1644  0.2272
19162W        W34631  16.941   4.888  10.623 -0.1133 -0.0951 -0.1665
19163W        W34632   7.769   5.924   4.954  0.0384  0.3236 -0.0739
19164W        W34633  15.693  17.305   5.122  0.0477 -0.1435  0.0902
19165W        W34634   9.998   3.936   5.650 -0.0053  0.3262 -0.2584
19166W        W34635  10.637  12.976  14.894 -0.0246  0.1015  0.0684
19167W        W34636   6.773   1.739   2.484  0.2522  0.3443  0.0978
19168W        W34637  15.374  14.788   4.500 -0.0313 -0.1788 -0.0466
19169W        W34638  17.093  14.467  13.433  0.0198  0.3084 -0.2964
19170W        W34639  17.126  18.259   4.613 -0.0684 -0.3290  0.1703
19171W        W34640   9.400   9.226  15.356 -0.1480  0.3075 -0.4149
19172W        W34641  11.465   1.345  14.696  0.1088 -0.3645  0.0398
19173W        W34642   3.805  16.041  14.087 -0.4677  0.2233  0.0708
19174W        W34643   1.784  16.578  14.323  0.1265 -0.2333  0.2025
19175W        W34644   1.424  10.338   0.509  0.0121  0.1311  0.0294
19176W        W34645   2.599  14.232  10.673 -0.0585 -0.0948 -0.2945
19177W        W34646   2.523   9.407   9.305 -0.1429  0.6617  0.0215
19178W        W34647   5.938  13.636   1.771 -0.4824  0.0360 -0.2358
19179W        W34648   3.683   9.667  12.954  0.2632  0.1463 -0.2653
19180W        W34649   5.203  16.418  15.170  0.0767 -0.3536  0.0745
19181W        W34650   5.961   2.842   1.884 -0.1221 -0.0523 -0.3422
19182W        W34651   7.384  10.590  10.047  0.0184 -0.0160 -0.1562
19183W        W34652   0.320   5.415   3.227  0.0464  0.1202  0.1101
19184W        W34653  17.171   9.070  14.593 -0.3955  0.2123 -0.0473
19185W        W34654   4.109  17.024   1.604 -0.3892  0.2775  0.0085
19186W        W34655   9.193  12.070   3.632  0.1250 -0.1237  0.0222
19187W        W34656  13.700   5.367   0.261  0.2363 -0.0276 -0.0756
19188W        W34657  13.843   3.916   0.487 -0.1036  0.0838 -0.3070
19189W        W34658  13.031   6.034   0.333 -0.0075  0.4494 -0.1786
19190W        W34659   7.191  16.626   0.226  0.0692 -0.1425 -0.2386
19191W        W34660   1.866  11.877  10.338 -0.0116  0.2901 -0.0801
19192W        W34661  14.712  13.556   4.693  0.0036 -0.1563 -0.0750
19193W        W34662   6.632  11.530  15.123  0.2844  0.0737  0.1013
19194W        W34663   6.136   8.136   1.911  0.1864  0.3669  0.2917
19195W        W34664  15.937   8.023   4.846  0.1587 -0.0678 -0.1968
19196W        W34665  11.485   9.740   3.293  0.1358  0.0375  0.0897
19197W        W34666  18.163   3.607   3.486  0.0711 -0.0974  0.3210
19198W        W34667   2.398   8.919  14.544  0.3650  0.0882  0.0706
19199W        W34668  15.112   3.994  11.806 -0.2577 -0.1715  0.1310
19200W        W34669   0.464  12.034   1.372  0.0617  0.2292  0.2911
19201W        W34670   7.935  11.487  15.434  0.3168  0.1450  0.0027
19202W        W34671  10.126  10.750  15.456 -0.2346  0.3858  0.0318
19203W        W34672  15.237   3.989   4.445 -0.1484  0.0326 -0.1769
19204W        W34673  17.036  15.774   0.989 -0.1920 -0.2059 -0.0788
19205W        W34674   2.346   7.961   4.406  0.2588 -0.0971 -0.1592
19206W        W34675   1.050   7.729  11.565  0.1678 -0.1459 -0.0674
19207W        W34676  13.676   2.848  13.277  0.0996  0.2665 -0.2041
19208W        W34677  18.615   5.117  14.893  0.0646  0.0776 -0.1003
19209W        W34678   2.696  10.347  14.463 -0.0342 -0.1205  0.2867
19210W        W34679   1.311   9.525  14.004 -0.1556  0.2495  0.0083
19211W        W34680   4.825  12.709  11.154 -0.1833  0.5853 -0.1963
19212W        W34681   0.650  14.735   2.776  0.0537 -0.1810 -0.0347
19213W        W34682  12.553  18.316   1.272 -0.2683 -0.3762 -0.0272
19214W        W34683   9.533  16.704   2.111  0.0717  0.4472 -0.3895
19215W        W34684   4.139   6.855  11.004 -0.1131 -0.3275 -0.0564
19216W        W34685  12.053   9.298  15.606  0.0700 -0.1790 -0.0677
19217W        W34686  11.575   2.179   6.764  0.5129 -0.3001  0.0476
19218W        W34687   7.081  16.580  14.626  0.4589  0.0291  0.1676
19219W        W34688   8.704   6.118   4.260 -0.0038  0.0172 -0.0577
19220W        W34689   4.857   4.145   1.969  0.3706 -0.1040  0.2062
19221W        W34690  15.020  12.181   3.187  0.0657 -0.3455 -0.1354
19222W        W34691   1.432  16.806   5.459 -0.0039 -0.1074 -0.0911
19223W        W34692  16.463   1.762   5.529  0.1761 -0.1994 -0.0436
19224W        W34693  18.279   8.817  14.724 -0.0127 -0.0377  0.0175
19225W        W34694   6.276  10.959  12.722  0.0261  0.0659 -0.1147
19226W        W34695  14.848   6.955  10.938  0.0589 -0.2379 -0.1622
19227W        W34696   2.924  11.430   0.783  0.0631 -0.1290 -0.0720
19228W        W34697  10.269  11.719  14.822 -0.2872  0.1082 -0.0493
19229W        W34698   5.160  16.806  10.199 -0.0732  0.0387 -0.0631
19230W        W34699  14.763   3.201  15.346 -0.0555 -0.3428 -0.2441
19231W        W34700  10.275   4.584   2.040  0.0839  0.1050  0.1955
19232W        W34701  15.309   2.238  11.348 -0.5585  0.2055 -0.3917
19233W        W34702   4.747   7.725  15.299 -0.1587  0.1867 -0.0719
19234W        W34703  16.757  13.487   0.209 -0.1030  0.0809 -0.0302
19235W        W34704   4.613  13.125   0.472  0.2640  0.1053  0.1931
19236W        W34705  17.173  18.542   1.882 -0.1578  0.0030 -0.1073
19237W        W34706   3.721   0.236  14.454 -0.2623 -0.0477 -0.0658
19238W        W34707   9.376  14.483   3.862 -0.1381  0.1345  0.0452
19239W        W34708   2.296   3.786  15.494 -0.1015  0.1040  0.0608
19240W        W34709   3.055  14.181  15.059 -0.1529 -0.0910 -0.2191
19241W        W34710   5.350  15.860   0.160 -0.0481  0.0152  0.0703
19242W        W34711   9.743   7.552   1.872  0.2896  0.3728  0.0120
19243W        W34712  14.836   5.130  14.493 -0.1372  0.1700 -0.0649
19244W        W34713  17.879   4.632  11.100 -0.2383  0.1938 -0.1713
19245W        W34714   5.442  15.449   0.988 -0.0284 -0.0301 -0.2597
19246W        W34715   1.383   6.910  11.851  0.0947 -0.0195  0.3112
19247W        W34716  11.801  12.918  10.903  0.1418  0.0937  0.0179
19248W        W34717   3.697   6.220   0.224 -0.0487  0.0795 -0.0978
19249W        W34718  14.218   9.248   5.591  0.1389 -0.0577  0.3101
19250W        W34719   6.356   7.993  12.852 -0.2216 -0.0513  0.0276
19251W        W34720  18.025  15.128   2.950 -0.1328 -0.1061 -0.2086
19252W        W34721   4.678  12.885   4.037  0.0748  0.1079  0.0666
19253W        W34722  12.467   4.689   5.056  0.2909 -0.0091  0.1242
19254W        W34723  16.194   9.158  13.249  0.0168  0.0281  0.0691
19255W        W34724   8.725   7.407   3.120  0.0235  0.1198  0.1225
19256W        W34725   8.802  16.520  10.614 -0.0896 -0.0999 -0.3055
19257W        W34726  10.865   7.146  10.329 -0.0286  0.4782  0.1169
19258W        W34727   9.072   4.859   0.149  0.1000  0.1453  0.0433
19259W        W34728   7.678  14.906   4.238  0.0543 -0.1795 -0.1669
19260W        W34729   5.106   5.407   1.076 -0.0484 -0.0477  0.0772
19261W        W34730   1.597  11.621  14.468  0.2938 -0.3246  0.0822
19262W        W34731  13.949   2.127  14.657  0.3575 -0.0884  0.2832
19263W        W34732  17.614   9.287   3.990  0.2759 -0.1277  0.1101
19264W        W34733  10.762  17.386   3.283 -0.1832  0.4270 -0.2170
19265W        W34734   4.167  14.204   2.684  0.1371  0.0787  0.0360
19266W        W34735  16.308   9.221   1.692 -0.2180 -0.0166  0.1323
19267W        W34736   9.537   5.797  15.030 -0.4135 -0.0161 -0.0787
19268W        W34737  14.528   8.837   0.197  0.3545 -0.0907 -0.1716
19269W        W34738  17.330  14.349  14.741 -0.2716  0.3008 -0.2701
19270W        W34739   9.367   6.910  15.652  0.0788  0.4330  0.1462
19271W        W34740  11.897  10.467   3.772 -0.0331 -0.4020 -0.0430
19272W        W34741  11.494   6.587  13.427  0.0677  0.2511  0.1010
19273W        W34742   3.948  15.515   2.147  0.2068 -0.0230  0.1332
19274W        W34743  10.243   4.769  15.227 -0.0354  0.0368 -0.2302
19275W        W34744  10.009  17.876  13.339  0.0177  0.4776 -0.2010
19276W        W34745  16.965  14.191   2.412  0.1141  0.2668  0.2967
19277W        W34746   7.297  16.781   3.432  0.0876 -0.2524  0.1430
19278W        W34747   1.225  16.449  15.093 -0.1547  0.1709  0.0658
19279W        W34748   7.252  15.495   1.110  0.1747  0.0684 -0.0842
19280W        W34749  13.576  18.464   0.698 -0.0543  0.4296  0.0064
19281W        W34750   1.476   5.205   1.279  0.2257  0.0780 -0.0897
19282W        W34751  18.327  11.282  13.024  0.2073  0.2872 -0.1402
19283W        W34752  15.424  16.247   6.045 -0.3336 -0.2149  0.0114
19284W        W34753  12.497  13.127   3.359 -0.0475  0.2086  0.0597
19285W        W34754   7.481   0.384   3.365  0.1903  0.0382  0.4126
19286W        W34755   8.563   2.040  14.794  0.0694 -0.0345  0.2774
19287W        W34756  10.681  16.023  14.557 -0.2205  0.0827  0.1374
19288W        W34757  10.733  15.192  15.008  0.1209  0.0550  0.2303
19289W        W34758  12.485  12.237  14.961 -0.0964 -0.2792  0.0424
19290W        W34759   6.251   1.159   4.149  0.0501  0.2455  0.1500
19291W        W34760   7.565   9.637  10.832 -0.2164  0.0545  0.2062
19292W        W34761  17.790  10.348  14.706  0.1441 -0.0170  0.0132
19293W        W34762  10.906  14.088   2.118  0.3320 -0.0052 -0.0740
19294W        W34763   3.802   4.524   0.983 -0.0772 -0.0869 -0.1073
19295W        W34764   2.822   5.097   0.040 -0.0363 -0.0817  0.1041
19296W        W34765   4.497   3.990   2.395  0.1154 -0.0709 -0.3751
19297W        W34766   9.936  12.270  11.311  0.2421  0.0444 -0.0083
19298W        W34767   9.956   4.352   1.644 -0.0581 -0.0942  0.3051
19299W        W34768   0.731  15.347   9.737 -0.1639 -0.0615  0.1321
19300W        W34769   2.384  11.622  14.854  0.0910  0.3071 -0.0237
19301W        W34770   3.771  16.328  12.579 -0.2983 -0.0423  0.0991
19302W        W34771  14.211   9.373  14.608  0.1048  0.0620 -0.0446
19303W        W34772   8.208  15.546  10.919  0.1456 -0.3960 -0.2829
19304W        W34773  18.395   8.703   3.878  0.4550  0.1433 -0.2411
19305W        W34774  14.625  13.011  15.007 -0.0299  0.2137 -0.0337
19306W        W34775  17.589  18.053  11.588  0.1419 -0.0076  0.2535
19307W        W34776   5.469   3.896   0.900 -0.1388  0.3288 -0.0316
19308W        W34777   0.652   5.652  12.175 -0.0816 -0.0746  0.1326
19309W        W34778  11.338   1.747  15.130 -0.2569 -0.1071  0.1482
19310W        W34779   8.163  13.439  14.561  0.1572 -0.1699  0.0137
19311W        W34780   0.077   6.677   3.499 -0.4515 -0.1168  0.3381
19312W        W34781  15.463   2.217  11.878 -0.1152  0.6440  0.2137
19313W        W34782   5.373   5.612  12.157  0.1128 -0.1345  0.1224
19314W        W34783   0.559  17.836   2.678  0.0703  0.0954 -0.0313
19315W        W34784   2.094   4.269  10.682 -0.0102 -0.1054 -0.0807
19316W        W34785  16.777  17.937   4.853 -0.0389  0.2213  0.0716
19317W        W34786  10.198  13.557   2.099 -0.0790  0.1751  0.0266
19318W        W34787   3.828  16.284  15.554  0.0366 -0.6950 -0.0675
19319W        W34788   1.948  14.939   4.317  0.1804  0.4066  0.0409
19320W        W34789  16.676   5.839  12.949 -0.0049  0.4706  0.1745
19321W        W34790   0.207   0.087   4.129 -0.0064 -0.0655 -0.0485
19322W        W34791   9.763  10.902  12.186 -0.3124 -0.0994  0.1903
19323W        W34792  10.851  13.113   0.800 -0.0001  0.0648 -0.3503
19324W        W34793  16.412  13.916  14.251  0.2968 -0.0616  0.2252
19325W        W34794  16.906   9.011   3.559  0.1627  0.3529 -0.1952
19326W        W34795  18.030   7.934  12.727 -0.3453  0.0483 -0.0736
19327W        W34796   9.831  17.110  15.681 -0.1229  0.2487 -0.1527
19328W        W34797  11.644   7.737  12.690  0.0389  0.0915  0.1864
19329W        W34798   3.212   2.566   2.635 -0.3599 -0.1728  0.2186
19330W        W34799  15.250   2.269  14.133 -0.1611  0.0742  0.1781
19331W        W34800   6.230   4.674   2.152 -0.0477  0.1024  0.0367
19332W        W34801  11.859  13.579   5.109 -0.1469 -0.0525 -0.2431
19333W        W34802   3.223  16.508   1.944  0.0584  0.1771  0.0001
19334W        W34803  16.215   2.474   1.516 -0.1820 -0.0850  0.4403
19335W        W34804  15.120  16.326   2.044  0.1046  0.3355 -0.1342
19336W        W34805   6.287  13.021  10.921  0.1367 -0.0866 -0.0145
19337W        W34806  12.099   8.213  14.892  0.1034 -0.0309 -0.2402
19338W        W34807   7.147   6.765  15.457  0.0205 -0.0291  0.1749
19339W        W34808   2.489  11.147   3.170  0.0112  0.2837 -0.2756
19340W        W34809   1.833  17.039  15.415  0.0221 -0.0732  0.1377
19341W        W34810  10.514   1.417  13.176 -0.0150 -0.1760 -0.4860
19342W        W34811   4.178   9.412  11.042  0.2125  0.1412 -0.0519
19343W        W34812   2.213   9.167  10.307  0.0936  0.0264 -0.1292
19344W        W34813   5.033  13.070  14.629  0.0413  0.0716 -0.2197
19345W        W34814   4.832  14.877  12.358 -0.0995 -0.3008  0.3752
19346W        W34815   5.147   8.210   2.696  0.1348  0.1125 -0.1382
19347W        W34816   5.029   6.854  15.374  0.0659  0.1317  0.0074
19348W        W34817   2.719  18.115  10.909 -0.2347 -0.2880  0.1085
19349W        W34818   9.713   2.814  11.888 -0.0806  0.0484  0.0580
19350W        W34819   4.160   4.772  13.080  0.2331  0.1140  0.0786
19351W        W34820   1.481  13.349   1.612 -0.0494  0.0657 -0.2220
19352W        W34821   1.477  14.094  10.119 -0.0026 -0.0802 -0.3161
19353W        W34822   3.736  13.677   4.894 -0.0514  0.0018 -0.0909
19354W        W34823   7.607   0.227   4.469  0.1047  0.1790  0.1974
19355W        W34824  16.282   0.794  11.677 -0.1190  0.1046  0.4271
19356W        W34825   8.541   9.210  12.430 -0.0403 -0.1133  0.1034
19357W        W34826   6.195   3.808   1.787  0.5075 -0.0279  0.0482
19358W        W34827  12.312   8.356  13.917 -0.0261  0.0944 -0.0815
19359W        W34828  13.707   6.949   3.340 -0.0918 -0.1144  0.1400
19360W        W34829   3.563   4.598   2.366  0.0553  0.2642  0.0678
19361W        W34830   1.087   2.214   3.027  0.0862 -0.1329 -0.0474
19362W        W34831   4.923  15.038  11.886 -0.2571 -0.2137 -0.0557
19363W        W34832   7.887  13.299   2.950 -0.0559  0.0639 -0.0317
19364W        W34833  14.976   4.713   2.438 -0.4212  0.2261  0.3138
19365W        W34834   9.624  16.276   1.486 -0.2680  0.1475  0.0264
19366W        W34835  17.795   7.697   0.868  0.1169  0.1458  0.2436
19367W        W34836  11.048  11.480   1.124  0.2765 -0.0673  0.2507
19368W        W34837  16.727   1.841   1.819 -0.3068 -0.2535  0.3372
19369W        W34838  10.622   7.972   2.637 -0.3228  0.0611 -0.1791
19370W        W34839  10.638  17.493  11.307 -0.2643 -0.3547 -0.1442
19371W        W34840  12.375  17.820   0.610  0.0823 -0.1669 -0.2909
19372W        W34841  15.778   5.284  14.072  0.0369 -0.3351 -0.0011
19373W        W34842   2.622   8.672   3.282  0.4031  0.0407  0.0221
19374W        W34843   6.061  11.170  14.467  0.1565  0.1856 -0.0952
19375W        W34844  18.437   7.181  12.342  0.1709  0.1410 -0.2334
19376W        W34845   7.224  13.136   0.462 -0.1981  0.0627 -0.0263
19377W        W34846   2.668   3.743   2.928 -0.0976  0.0172  0.0528
19378W        W34847   0.193   2.009   0.674 -0.0664 -0.0222 -0.1791
19379W        W34848  13.566  11.970  12.676  0.1159 -0.1101 -0.1198
19380W        W34849  12.353  12.237  10.083 -0.2775 -0.1960 -0.0071
19381W        W34850  12.843   5.755   2.668 -0.0103  0.4414 -0.4387
19382W        W34851   3.213   1.002  14.746  0.2582  0.2592  0.2845
19383W        W34852   3.779  16.691  10.529  0.2007 -0.2372 -0.0272
19384W        W34853   2.625  17.966  13.818  0.1841  0.1271 -0.2673
19385W        W34854  13.904  13.124   4.002 -0.1211  0.0312  0.1962
19386W        W34855   1.063  10.427   4.147  0.2883  0.0175 -0.3611
19387W        W34856  11.824   2.760   3.919  0.1600  0.2131 -0.1400
19388W        W34857  10.442  17.762  11.913 -0.2452  0.1104  0.1509
19389W        W34858   2.116  18.310  13.435 -0.2528  0.1202  0.0894
19390W        W34859  17.740   0.045   3.253  0.0531 -0.0220  0.1052
19391W        W34860  16.736   8.066  14.494 -0.1006 -0.1086 -0.2999
19392W        W34861  11.532  15.559   3.830  0.2261  0.5916  0.0416
19393W        W34862  15.443  11.507  15.424  0.2092 -0.3210  0.1932
19394W        W34863  15.406  18.445  15.410 -0.2009  0.1644  0.0398
19395W        W34864  10.538   2.716   5.506  0.0894 -0.1200 -0.2078
19396W        W34865  10.626  16.152   5.473  0.3180  0.0680  0.0785
19397W        W34866  13.351  12.253   0.943  0.0878  0.2799  0.1543
19398W        W34867   0.454  12.618   0.612 -0.1533  0.1091  0.0874
19399W        W34868  14.045   3.219  13.548  0.0271  0.0408 -0.1325
19400W        W34869   4.487   3.265   4.009  0.0170 -0.1709 -0.1337
19401W        W34870   5.863   5.054  13.215  0.6719 -0.0487 -0.0666
19402W        W34871  17.081   0.844   0.116  0.0121  0.1267 -0.0732
19403W        W34872   5.008  15.737   0.975 -0.2279 -0.1802 -0.1254
19404W        W34873   1.719   1.931   0.720 -0.0169 -0.0294  0.3225
19405W        W34874   3.985   1.615  14.533 -0.1164  0.3020 -0.3780
19406W        W34875  11.005   5.947   6.217 -0.0286 -0.0383  0.2979
19407W        W34876   6.759  16.548   5.184 -0.0364 -0.0453  0.0823
19408W        W34877   4.798  11.268   4.755 -0.0305 -0.0753 -0.0253
19409W        W34878   1.916  11.893  11.424  0.1426  0.2582 -0.0997
19410W        W34879   2.465  16.755  13.135  0.1014 -0.0244 -0.0433
19411W        W34880  12.173   6.725   1.841 -0.0112 -0.2840 -0.2210
19412W        W34881  14.061   7.495  11.610  0.0104 -0.3871  0.1045
19413W        W34882   1.652  16.532  13.181  0.1240 -0.0314  0.0536
19414W        W34883   6.424   1.046   3.012 -0.0573 -0.0126 -0.0809
19415W        W34884   1.687   3.555  14.822 -0.0630 -0.4031  0.0815
19416W        W34885   1.668   6.037   4.585  0.1055 -0.0138  0.2013
19417W        W34886  13.754  10.738   0.850 -0.3159 -0.1216 -0.0939
19418W        W34887   9.743  13.308   0.822 -0.0024 -0.0930  0.0206
19419W        W34888   1.086  15.554   1.882 -0.0801  0.2850  0.1653
19420W        W34889   1.347   0.485  12.391  0.0378  0.0129  0.0281
19421W        W34890  12.006  17.152   0.677 -0.2559  0.2065  0.0852
19422W        W34891   0.299   7.124  12.246  0.3403 -0.1918 -0.0202
19423W        W34892  10.455   7.780  15.284 -0.1208 -0.1022 -0.4408
19424W        W34893  13.156   3.178   2.987 -0.1653 -0.2341 -0.0882
19425W        W34894   4.866   9.341   9.445 -0.2110  0.1091  0.1959
19426W        W34895  12.120   2.671  12.608 -0.1936  0.0956  0.2672
19427W        W34896  13.983   4.523   1.256 -0.2631 -0.0327 -0.1096
19428W        W34897  12.080   8.996  15.217 -0.1271  0.1530 -0.1632
19429W        W34898   1.121   9.295  11.328  0.0588  0.0400  0.1846
19430W        W34899  15.122   3.461   2.265 -0.1067 -0.0903 -0.1344
19431W        W34900  14.748   9.681  12.859  0.0294 -0.0458 -0.1896
19432W        W34901  18.013  17.340  13.253 -0.0232  0.1483 -0.0033
19433W        W34902  13.796   4.869   5.099  0.2028 -0.0463 -0.1499
19434W        W34903   1.170  10.304  15.666 -0.2113 -0.3229 -0.2051
19435W        W34904  14.326  12.952  12.875 -0.0749  0.0032  0.0576
19436W        W34905   0.405   2.283  12.929  0.2096  0.1511 -0.0148
19437W        W34906  13.180   1.523   4.098 -0.1029 -0.2630 -0.1576
19438W        W34907   3.412  16.881   2.787 -0.3473  0.1919  0.3139
19439W        W34908  13.819   2.167   2.110  0.3222 -0.1016 -0.1009
19440W        W34909   8.279  16.656   2.609 -0.1347 -0.2966  0.0477
19441W        W34910   0.527  17.363  15.629 -0.1331 -0.0515  0.1898
19442W        W34911  13.018   1.500  13.984  0.2489  0.0213 -0.0642
19443W        W34912   8.059   4.954  15.600  0.1062  0.2036  0.5377
19444W        W34913  14.508   8.657   2.555 -0.1093 -0.0108 -0.2297
19445W        W34914  14.099  15.815   2.960  0.1971  0.0386 -0.0277
19446W        W34915   0.985   5.641   4.015 -0.0788  0.2477  0.3131
19447W        W34916   5.155  17.044   0.221 -0.2913 -0.0793 -0.0699
19448W        W34917  16.149  13.005   1.900 -0.1755  0.0797  0.1049
19449W        W34918  11.229  16.063  15.613 -0.0269  0.0910 -0.3295
19450W        W34919  12.607   0.691   1.559  0.2009 -0.2240 -0.3034
19451W        W34920  17.564   0.616  14.972  0.0975 -0.1099  0.0416
19452W        W34921  12.267  16.883   4.595  0.1214  0.0527 -0.0835
19453W        W34922   1.535  14.803   3.344  0.2343 -0.2027 -0.3096
19454W        W34923  18.359  12.886  12.377 -0.0864  0.1127 -0.1632
19455W        W34924  11.237   9.365   5.461  0.1009 -0.2684 -0.1001
19456W        W34925   8.984   6.770  14.923  0.2073  0.1526  0.1175
19457W        W34926   4.957   5.462   0.559 -0.1698 -0.1110 -0.2033
19458W        W34927  16.634   7.308   2.992  0.1204 -0.1336  0.2196
19459W        W34928   5.207  12.999   1.491 -0.4142 -0.0092 -0.1225
19460W        W34929   1.225  10.599   4.594 -0.1348 -0.2623  0.0174
19461W        W34930   0.235  10.205  15.147  0.3683  0.0192 -0.0682
19462W        W34931   0.851   8.974   4.937 -0.3644  0.0547  0.0491
19463W        W34932   2.951   5.094  13.266  0.0250  0.3616 -0.2387
19464W        W34933   2.119   6.623  15.365  0.4242 -0.3099  0.0322
19465W        W34934   5.510  14.200   4.745 -0.0065  0.0783  0.2441
19466W        W34935  12.413  13.586   5.343 -0.3189 -0.0949 -0.1360
19467W        W34936   4.550   1.330   2.821 -0.0824  0.0988  0.0935
19468W        W34937  15.739  10.462   3.222 -0.0384 -0.2610 -0.0069
19469W        W34938  18.122   3.224  11.192 -0.0382 -0.1120  0.0115
19470W        W34939  11.684   3.218   3.764  0.0719  0.0669  0.0013
19471W        W34940  11.992  11.480  14.157 -0.0868  0.1310 -0.0546
19472W        W34941  16.683  16.015  11.594 -0.2185 -0.0421  0.4564
19473W        W34942  18.194  15.019  11.208 -0.2305 -0.0133  0.1122
19474W        W34943  15.927   0.641   5.259  0.1373 -0.1085  0.2187
19475W        W34944   3.964  15.572  11.199  0.0572 -0.0145  0.0305
19476W        W34945   3.138   6.602   3.580 -0.2186  0.1774  0.1227
19477W        W34946   7.678   1.179   2.561 -0.4358 -0.3465  0.4250
19478W        W34947   5.820   6.348  11.837 -0.2804 -0.0156 -0.2392
19479W        W34948  17.247  13.701  12.022 -0.3402 -0.3326  0.0768
19480W        W34949   7.570   3.453   1.815  0.3378 -0.1730  0.0637
19481W        W34950   3.868  10.799  11.494 -0.1521 -0.0672 -0.2011
19482W        W34951   9.826   1.441   0.213 -0.0671 -0.1533  0.0023
19483W        W34952  11.126  16.651   4.316  0.1848  0.3042 -0.1549
19484W        W34953   5.304   1.777  13.746 -0.2598 -0.1155 -0.0642
19485W        W34954   1.442   9.305  10.909  0.3543  0.3483  0.1134
19486W        W34955  18.564   9.541   3.635 -0.1694 -0.1079  0.1346
19487W        W34956   9.964   0.809   3.914 -0.1435  0.2155  0.1058
19488W        W34957  10.478  17.160  14.159 -0.1344  0.1492  0.0907
19489W        W34958   2.724  15.052   0.197  0.4007  0.2338  0.2563
19490W        W34959   7.272  12.247   1.787  0.3883 -0.1741 -0.1041
19491W        W34960  17.731   2.855   4.667 -0.0658 -0.2577 -0.0188
19492W        W34961   3.085  14.579  11.552  0.1195 -0.3865 -0.0765
19493W        W34962   8.510  12.932   9.819  0.3379  0.1696 -0.1259
19494W        W34963  12.521   2.653  13.316  0.0560 -0.1434 -0.1841
19495W        W34964  13.442   2.292   1.221  0.2658 -0.2115 -0.0943
19496W        W34965  13.564  11.496   5.043 -0.0392  0.1564  0.0199
19497W        W34966  10.813   8.996   1.238 -0.0760 -0.3541 -0.0499
19498W        W34967   0.197  14.859   2.704  0.0538 -0.0080 -0.0385
19499W        W34968   0.476   0.958  12.829  0.1684  0.1215 -0.0063
19500W        W34969  15.774  14.803   5.554  0.0888 -0.4137  0.1440
19501W        W34970  10.286   0.251  15.364  0.0188  0.2525  0.0570
19502W        W34971   2.088  11.438  15.236 -0.0626  0.1640 -0.0502
19503W        W34972   5.190  13.724  15.026 -0.1772 -0.1032 -0.2789
19504W        W34973   3.813   0.891  12.281  0.0708  0.1343  0.3674
19505W        W34974   0.421   5.110  14.703 -0.0889 -0.0043 -0.0195
19506W        W34975   1.495  15.661   0.462 -0.2576  0.0336 -0.0633
19507W        W34976   1.580   9.421   3.390  0.0075  0.0250  0.1618
19508W        W34977  15.848   7.663  12.026 -0.0861 -0.1090  0.1658
19509W        W34978  10.429  18.211  13.143 -0.1608  0.1012 -0.2870
19510W        W34979   9.701  13.858   2.909 -0.2527  0.0046 -0.1240
19511W        W34980  11.590   2.796  13.494 -0.1017 -0.0688  0.1789
19512W        W34981   6.027  12.038   2.637 -0.0008 -0.1414 -0.1105
19513W        W34982  16.474  13.332   3.076 -0.1131 -0.4368 -0.2729
19514W        W34983  15.358   6.516  12.172  0.2979 -0.0379  0.0923
19515W        W34984   2.693   2.408  15.776  0.3286 -0.2652  0.1239
19516W        W34985  14.759   2.970  14.050  0.0869  0.0245 -0.1448
19517W        W34986   5.478   1.753  15.162  0.4063 -0.0071  0.0031
19518W        W34987  10.063   4.150   3.556  0.1467 -0.0863 -0.1407
19519W        W34988  14.100  12.239  10.742 -0.2248 -0.2687  0.0436
19520W        W34989  16.355  17.204  15.455 -0.2878 -0.2296  0.1560
19521W        W34990  18.494  16.261   2.427 -0.0033  0.2332 -0.1916
19522W        W34991   0.496   6.979   4.388 -0.1590 -0.0739  0.0763
19523W        W34992  17.746  12.567   0.758 -0.2220  0.2843 -0.0660
19524W        W34993   9.513  18.144  11.043 -0.0818  0.0077 -0.5048
19525W        W34994   7.862  12.368   1.437  0.0431  0.1533  0.0497
19526W        W34995   9.751   9.514  10.138 -0.1059  0.0585  0.0707
19527W        W34996   4.598  15.307   4.159 -0.2442 -0.0899 -0.2506
19528W        W34997   5.853   8.828   2.618  0.5011  0.0227 -0.1629
19529W        W34998   8.463   3.738  14.584  0.0430 -0.0653  0.1386
19530W        W34999  10.006  13.452  12.300  0.0408 -0.1262 -0.3100
19531W        W35000   2.031   1.681   0.372  0.0629  0.4232  0.2251
19532W        W35001   4.899   6.072   0.807 -0.1374  0.1745  0.0279
19533W        W35002   4.346   8.045   1.638 -0.0531 -0.1683  0.2874
19534W        W35003   4.243  11.693   4.221  0.0440 -0.1344 -0.0058
19535W        W35004  10.610  13.132   4.210 -0.0028 -0.0395 -0.0077
19536W        W35005   8.353  16.301   3.433  0.1129  0.0046  0.2783
19537W        W35006   1.904  13.779  11.330 -0.0358  0.1885 -0.0874
19538W        W35007  10.110  17.330   4.687 -0.2365  0.0970 -0.0651
19539W        W35008   1.425   7.968  10.327  0.1200  0.1869  0.0045
19540W        W35009  15.193  11.040  12.138 -0.1158 -0.3215  0.1665
19541W        W35010   4.879  10.813  12.374  0.0404 -0.1818 -0.0850
19542W        W35011   2.814   3.898  13.761  0.1467  0.0335 -0.1073
19543W        W35012   7.500   0.207   1.108 -0.1589  0.0578 -0.0234
19544W        W35013  16.118  10.923   3.782 -0.1891  0.1335 -0.2020
19545W        W35014   7.436   3.822  11.917 -0.1697 -0.0562 -0.1353
19546W        W35015  18.060   4.565   3.768  0.1707  0.1490  0.0210
19547W        W35016   7.766  15.769   4.698  0.2608  0.3448 -0.0790
19548W        W35017   0.983   2.958  13.211  0.3486  0.1823  0.1253
19549W        W35018   7.306  10.785   2.052  0.0777  0.0113 -0.1697
19550W        W35019   0.472  14.775  13.950  0.0779  0.0471  0.1193
19551W        W35020   8.538  11.838  10.966  0.0497  0.0077  0.1133
19552W        W35021   0.544  13.682  13.838 -0.0001  0.2216  0.4676
19553W        W35022   3.131   8.704   1.764  0.0945 -0.0775  0.0605
19554W        W35023  13.821  10.595   5.542  0.3340 -0.3381 -0.0863
19555W        W35024  11.032  16.803  11.459 -0.0080  0.0573 -0.3723
19556W        W35025  10.278   9.902  15.446 -0.0938  0.0535 -0.0954
19557W        W35026   2.500  13.065  11.080 -0.0818  0.2671  0.0247
19558W        W35027  11.513  11.300   5.117  0.1313  0.1348  0.1742
19559W        W35028   8.192   8.847   5.584 -0.1420 -0.3576  0.1054
19560W        W35029   1.420  17.212   1.071  0.0593  0.1576 -0.2266
19561W        W35030  10.969   8.795  12.347 -0.0079  0.4133 -0.0216
19562W        W35031  10.917  11.553   2.065 -0.1849 -0.0851  0.2417
19563W        W35032   2.002   1.414  12.428  0.1271 -0.0990  0.2384
19564W        W35033   2.913  10.942   0.532  0.0889  0.3553  0.5653
19565W        W35034   7.651   1.995  13.236  0.4991 -0.0695  0.0799
19566W        W35035   5.808   9.183  14.096  0.1146 -0.0590 -0.0635
19567W        W35036   1.482   0.559   4.831 -0.3925  0.0368 -0.3519
19568W        W35037   8.480   0.267  13.758  0.1269 -0.2230 -0.2042
19569W        W35038   7.765  16.933  14.079  0.1356  0.1432  0.1897
19570W        W35039  17.721   4.777   1.566  0.2299 -0.0317 -0.0750
19571W        W35040   4.771   5.430  15.171 -0.2456 -0.0618  0.4356
19572W        W35041   6.075   8.479   2.967 -0.4591  0.0996 -0.1181
19573W        W35042  10.950  15.598   4.536  0.0726  0.1298  0.2350
19574W        W35043  13.333  11.522  14.516  0.1310  0.0193 -0.0328
19575W        W35044   5.806  17.450   5.680  0.1869 -0.0511 -0.3056
19576W        W35045  15.208  12.010  13.692 -0.2111 -0.0017 -0.1443
19577W        W35046  11.806   4.652   1.243  0.2272  0.0538  0.0988
19578W        W35047   9.841   8.487  12.711  0.0308  0.0920  0.0235
19579W        W35048   1.005  11.143   1.041 -0.1630 -0.1239 -0.2033
19580W        W35049   9.223   2.070  15.673 -0.1138 -0.2804 -0.0996
19581W        W35050   6.550   5.897  15.517 -0.0029 -0.2941  0.5123
19582W        W35051   9.896  16.830   1.673 -0.0164 -0.2376  0.1556
19583W        W35052  13.306  15.944   2.424 -0.3528 -0.0601 -0.0865
19584W        W35053   7.652   1.255  11.288  0.0628 -0.2853 -0.0166
19585W        W35054   9.047   6.912   1.695 -0.0336  0.2671 -0.1646
19586W        W35055   2.146   0.618  11.314 -0.1381  0.0776  0.0720
19587W        W35056   0.941   6.723   4.651  0.0935  0.0230  0.0028
19588W        W35057   5.804  13.484  15.305  0.1771 -0.2268  0.0390
19589W        W35058  12.458   2.057  11.971 -0.0829  0.1854  0.0631
19590W        W35059   2.393   0.497   0.682  0.0106 -0.1484 -0.3474
19591W        W35060  10.409  15.719   3.819  0.1360 -0.0148  0.0328
19592W        W35061  11.031  13.486   4.064 -0.2661  0.2208  0.0206
19593W        W35062   8.260   5.099   5.160 -0.2615  0.3932 -0.1044
19594W        W35063  14.564  16.027   3.967  0.3033 -0.4721  0.0686
19595W        W35064  10.589   3.003   2.776  0.0508 -0.3294  0.2123
19596W        W35065  17.987  12.775   0.195  0.0057  0.3351  0.1766
19597W        W35066  13.433   3.885  13.657  0.0605  0.0403 -0.0881
19598W        W35067  11.673   0.378  12.327  0.1484  0.0237 -0.1193
19599W        W35068  15.857  12.496  11.657 -0.4601  0.1928 -0.0900
19600W        W35069  17.226   9.916  12.513 -0.2009 -0.0922 -0.1374
19601W        W35070  15.724  12.001   0.919 -0.2553 -0.1461  0.1786
19602W        W35071   7.963  17.164  11.839 -0.0583 -0.0162 -0.3049
19603W        W35072  10.462   2.135   4.334  0.0345  0.0355  0.3231
19604W        W35073  18.441   2.939   2.402 -0.1528 -0.0002  0.1612
19605W        W35074   5.856   4.406  14.171  0.2037  0.2385 -0.0464
19606W        W35075  15.248   3.605  14.234  0.1367 -0.0529 -0.0252
19607W        W35076   9.821  14.299  13.273  0.0801  0.2097  0.0631
19608W        W35077   2.344   3.404   1.803 -0.0268 -0.1808 -0.6717
19609W        W35078  17.162   9.204   0.644 -0.0506  0.1625 -0.2041
19610W        W35079   1.322   2.260  14.159  0.1373  0.1830 -0.1570
19611W        W35080  13.808   1.861   3.269  0.1378 -0.2984 -0.0097
19612W        W35081   6.081   7.572  15.638 -0.1400  0.3570  0.1008
19613W        W35082  13.490  12.413  12.958 -0.2184  0.0586  0.1312
19614W        W35083   3.982   6.032   4.319  0.1819 -0.0734  0.2789
19615W        W35084   2.656   1.855  10.750  0.1708  0.0354 -0.2518
19616W        W35085  14.054   6.038  11.791 -0.0335 -0.2015 -0.0516
19617W        W35086   9.292  14.093   0.238 -0.1506  0.0183 -0.0658
19618W        W35087   3.964   6.147   1.096 -0.2238  0.0965  0.1260
19619W        W35088  18.241   2.314  15.253 -0.2361 -0.1679 -0.2284
19620W        W35089   7.880  14.144  11.103 -0.1755  0.0508  0.0860
19621W        W35090   6.668  13.439   2.081 -0.3716 -0.0851  0.1767
19622W        W35091  11.630  11.443   3.890  0.1174 -0.2346  0.2153
19623W        W35092  14.808   8.488  14.575  0.2505 -0.0056 -0.2391
19624W        W35093   8.512   0.071   2.554  0.3162  0.4761  0.3332
19625W        W35094  11.197  12.929  14.978 -0.0544 -0.0054 -0.1936
19626W        W35095   8.958  11.403   3.930  0.0745 -0.2826 -0.3711
19627W        W35096   8.865  15.818   3.336  0.1640 -0.1289 -0.0361
19628W        W35097   5.049   4.538   1.447 -0.0548  0.1352  0.0913
19629W        W35098  14.462  11.474   4.176  0.0230  0.0205 -0.0286
19630W        W35099  14.212  17.933  13.200  0.1167  0.1202  0.0929
19631W        W35100  11.179  13.943   1.384 -0.0075  0.1311  0.3537
19632W        W35101   8.197  15.862  13.951  0.1098 -0.3554 -0.0890
19633W        W35102   5.538   2.873   2.335 -0.0545 -0.1305 -0.1483
19634W        W35103  13.675  16.781  14.184 -0.3735 -0.0473 -0.0765
19635W        W35104   5.293  17.890   0.932  0.3620  0.0363 -0.0767
19636W        W35105   4.965   9.604  12.133  0.2193 -0.1266 -0.1444
19637W        W35106   1.852   4.624   0.549  0.0941 -0.0783  0.0340
19638W        W35107  10.640  10.213   5.456  0.1508  0.3228  0.0301
19639W        W35108  18.497   9.941  13.193  0.5833 -0.1800 -0.3378
19640W        W35109  13.182  18.347  14.444  0.1043 -0.1107 -0.3752
19641W        W35110  11.207  17.085  12.486 -0.2067  0.4140 -0.0882
19642W        W35111   0.896   5.879  14.515  0.1840  0.1185  0.1816
19643W        W35112  14.456  11.249   3.623  0.2002  0.4182 -0.1304
19644W        W35113  18.557   1.570  11.112  0.3094 -0.1842 -0.1601
19645W        W35114   6.990  10.318   1.203  0.1262  0.1444  0.3238
19646W        W35115  17.665  12.991   2.992  0.0916 -0.2882  0.1250
19647W        W35116   5.149  10.856  10.470  0.0621  0.1019 -0.0721
19648W        W35117   3.797   5.724  14.590 -0.1423 -0.1634  0.1588
19649W        W35118   5.905  11.503   2.715  0.0846 -0.1773 -0.0478
19650W        W35119   1.395  12.786  12.833 -0.2138  0.2141  0.1726
19651W        W35120  14.617   8.997  14.586  0.1466  0.0592  0.1141
19652W        W35121   3.492   8.831  14.647 -0.1652 -0.3202  0.4112
19653W        W35122   4.128  17.161  11.533  0.1483 -0.0793 -0.0586
19654W        W35123   7.229  16.684  12.503  0.0405  0.2436  0.4383
19655W        W35124   5.301   7.633   3.679  0.1760  0.1819 -0.0602
19656W        W35125   6.793  12.909  13.991  0.0445 -0.0122  0.0213
19657W        W35126   6.934  16.883  12.896  0.1271 -0.0748 -0.0363
19658W        W35127   1.620  18.469   1.047 -0.0266  0.0655 -0.0401
19659W        W35128   7.904   8.116   4.863 -0.0879  0.0014  0.1973
19660W        W35129   6.142   5.631  12.146 -0.1569 -0.0730  0.0833
19661W        W35130  18.278   5.753  14.696  0.3093  0.2923  0.0786
19662W        W35131   3.628   1.502   2.978  0.0244 -0.0085  0.5106
19663W        W35132  12.386   2.463  15.150  0.2528 -0.0344  0.3851
19664W        W35133   0.947  17.852  14.222  0.1267  0.2189  0.2522
19665W        W35134  14.357   4.243   4.082 -0.3061  0.0297  0.0550
19666W        W35135   3.698  12.342   2.725 -0.3045  0.2241  0.2848
19667W        W35136  15.983  10.463   5.332 -0.0038  0.0541 -0.1022
19668W        W35137  13.820  18.332  14.142 -0.2650  0.0700 -0.1023
19669W        W35138   2.048  15.341  12.992 -0.0044 -0.1323  0.0148
19670W        W35139  18.368  12.618  13.644 -0.2778 -0.1452  0.0201
19671W        W35140   6.067  11.500   5.481  0.0650  0.2179 -0.0302
19672W        W35141  11.462   3.378  15.233  0.0290  0.1551  0.1951
19673W        W35142   9.088   5.803   3.053  0.0623  0.1511  0.2157
19674W        W35143  16.621  10.866  12.154  0.1241  0.0311 -0.0824
19675W        W35144  15.579  13.037  13.224 -0.0464 -0.0497  0.1579
19676W        W35145   9.006   9.339  13.054  0.0586 -0.1225  0.2006
19677W        W35146  12.880   9.554  11.104 -0.1881 -0.0896  0.0789
19678W        W35147  17.252  18.532  15.257  0.5682 -0.1917  0.0281
19679W        W35148   9.762  17.334  11.595 -0.0558  0.0492 -0.2447
19680W        W35149  15.426  15.226   2.161  0.1583 -0.1366 -0.0508
19681W        W35150  16.167  16.030   4.875 -0.2024 -0.0268  0.0538
19682W        W35151   5.408   8.226   5.219 -0.0792 -0.0959  0.0098
19683W        W35152   5.778   5.106   1.402  0.0660 -0.0312  0.0484
19684W        W35153  13.859   8.242   0.751 -0.0358 -0.0415  0.0154
19685W        W35154   4.287  18.550   4.268 -0.3121 -0.0330 -0.1050
19686W        W35155  10.768   5.983  14.983 -0.1217  0.0663 -0.0015
19687W        W35156   6.985  13.449   3.050 -0.4233 -0.0381  0.2343
19688W        W35157   4.210  17.726   0.399 -0.1794 -0.1377  0.1398
19689W        W35158  14.774  13.333  13.181 -0.2518  0.2327  0.4008
19690W        W35159  10.685  11.831   0.241 -0.0218  0.0139 -0.2577
19691W        W35160  11.533  13.587   4.759  0.1644 -0.0897 -0.2077
19692W        W35161  18.082  13.187  12.119 -0.1060  0.5783 -0.1864
19693W        W35162   1.596  11.046  14.535  0.3312 -0.0180 -0.4445
19694W        W35163   5.834   4.343  15.061  0.0414  0.1518 -0.2863
19695W        W35164   7.751   8.906   5.356 -0.0191 -0.0791  0.1225
19696W        W35165  12.190   5.047   2.443  0.0580 -0.5064 -0.3015
19697W        W35166  14.010   2.374  14.229 -0.0290 -0.1333  0.1630
19698W        W35167  16.545   3.613  10.906  0.4446 -0.0488 -0.1616
19699W        W35168   1.752   1.679  12.758  0.1094 -0.0354  0.0017
19700W        W35169  14.140  10.266   5.311  0.0027 -0.3662 -0.0594
19701W        W35170  11.775   5.014  14.491  0.2515 -0.2405  0.0057
19702W        W35171  17.944  12.390   1.720 -0.1280  0.2875 -0.1831
19703W        W35172   9.490  13.645  11.492  0.0418  0.0109 -0.1808
19704W        W35173   3.403   7.815   1.127  0.0670 -0.0023  0.2613
19705W        W35174  11.893   5.439  11.539  0.1396  0.1867 -0.1253
19706W        W35175   7.759   3.443   1.286 -0.1575 -0.1180  0.0584
19707W        W35176   0.691   0.094   2.812  0.2941  0.0492  0.1008
19708W        W35177   1.277   0.254   4.231 -0.1929 -0.0093  0.1301
19709W        W35178  11.100  10.918  15.497  0.1575  0.1870 -0.1769
19710W        W35179   6.631   0.786   2.579  0.0682  0.2427  0.1042
19711W        W35180   3.189  14.284   0.443 -0.0823  0.1492 -0.0434
19712W        W35181  14.028  10.647   4.764 -0.1983  0.2424  0.0772
19713W        W35182  10.391   0.955  14.259 -0.0695  0.3071  0.0766
19714W        W35183   2.431   4.746  15.754 -0.0071 -0.3384 -0.2381
19715W        W35184   0.831  14.265   3.002  0.0978  0.2174  0.0968
19716W        W35185   2.729   2.631  14.570 -0.2442 -0.0210  0.0791
19717W        W35186  11.768   4.779  10.474  0.1597  0.0064 -0.0085
19718W        W35187  15.141  16.857  10.418 -0.0173 -0.1827  0.0510
19719W        W35188   2.078   7.035   0.939  0.0104  0.0643  0.0319
19720W        W35189   9.773   1.158  12.493 -0.0890  0.0271  0.0060
19721W        W35190   0.618   0.221  13.311 -0.0767  0.2277 -0.1645
19722W        W35191   7.318  13.015  13.339  0.5991 -0.1094  0.3152
19723W        W35192   2.909   6.203   2.085  0.1227 -0.2653 -0.1169
19724W        W35193   1.473  13.642   2.068  0.2254 -0.0050 -0.2212
19725W        W35194  17.369  10.659   3.939  0.3258 -0.1105 -0.0829
19726W        W35195  12.126  14.956   5.687 -0.0341  0.2009 -0.0467
19727W        W35196  11.055  13.312  12.033  0.1864 -0.0803  0.0400
19728W        W35197   3.288   7.912  12.295 -0.0099  0.1218 -0.1709
19729W        W35198   1.060  17.528   2.021  0.2573  0.2876 -0.0524
19730W        W35199   6.006  10.497  11.296  0.3777 -0.1625  0.1832
19731W        W35200   8.781  16.216   3.105  0.0053  0.0662  0.4360
19732W        W35201  18.452   9.919   3.383 -0.1973  0.3140  0.0400
19733W        W35202  13.840   6.991  10.033 -0.0169 -0.1035  0.1094
19734W        W35203   1.336  14.618   3.741  0.1532  0.1101  0.2932
19735W        W35204  15.247  17.490  13.050  0.0093  0.1257  0.1896
19736W        W35205  17.381  11.591  14.584  0.4066 -0.0734  0.0228
19737W        W35206   9.381  15.982   1.089 -0.2321  0.2519  0.2277
19738W        W35207   4.524  17.549   0.073 -0.1245 -0.2268 -0.0946
19739W        W35208   6.093   6.626   0.861 -0.1530  0.0594 -0.0354
19740W        W35209   9.981   9.609  13.468  0.1825  0.0550 -0.0040
19741W        W35210   6.302   9.901  10.199  0.2285  0.2328 -0.3027
19742W        W35211  17.308   8.521   2.024 -0.1674 -0.2921  0.3185
19743W        W35212   2.501  18.103   4.932 -0.1227 -0.1620  0.2540
19744W        W35213   3.643  10.311  15.154 -0.1648  0.2962 -0.2763
19745W        W35214   5.542  17.560   2.630 -0.3052 -0.0141 -0.3017
19746W        W35215   6.196  13.601   0.381  0.1165  0.0656 -0.0872
19747W        W35216   8.786  17.260  13.607 -0.4536  0.2051  0.0593
19748W        W35217  10.643  10.870  15.696 -0.0807  0.0816 -0.3170
19749W        W35218   3.550   7.302   4.754 -0.0048 -0.0447  0.4109
19750W        W35219   6.965   1.386  14.140 -0.0666  0.2412 -0.0254
19751W        W35220  14.175   6.685   1.627 -0.2171  0.0836  0.1295
19752W        W35221  10.824  10.406   2.132  0.1954 -0.1784  0.1473
19753W        W35222  18.239   5.486   0.492 -0.0565  0.2929  0.1793
19754W        W35223  12.563   5.505   4.057  0.0803 -0.0241 -0.1326
19755W        W35224   0.081   3.201   0.806 -0.1602 -0.0622  0.0875
19756W        W35225  17.145   6.068   2.898 -0.3092 -0.3587 -0.1920
19757W        W35226   4.259   0.198  13.474  0.1969  0.1503 -0.0838
19758W        W35227  14.895  14.917  12.338  0.0467  0.1852  0.5655
19759W        W35228   6.521  18.388  12.290  0.3313 -0.0055  0.0303
19760W        W35229   9.534  12.658  14.297  0.0490 -0.2451 -0.5978
19761W        W35230  13.635  14.760  13.377  0.1690 -0.0808 -0.1093
19762W        W35231   2.621   1.166  12.748  0.0298 -0.2539 -0.0247
19763W        W35232   6.033  12.722   2.319  0.0136  0.3956  0.1008
19764W        W35233   7.207   8.223  11.051  0.0590  0.3335 -0.1802
19765W        W35234   8.130   3.231   1.570 -0.1441 -0.1712  0.1943
19766W        W35235  12.303   9.179   0.882  0.1976  0.2959  0.0760
19767W        W35236   6.274  11.974  10.899  0.0503 -0.1734  0.0712
19768W        W35237  16.747  10.898  14.720  0.0353 -0.0101 -0.1982
19769W        W35238  12.685  12.413  12.450 -0.0515  0.1359 -0.2667
19770W        W35239   1.624   4.955   2.322  0.0255 -0.0211  0.0115
19771W        W35240   2.894   1.075   0.341  0.2410 -0.1232 -0.1639
19772W        W35241  11.206   6.670  11.660  0.0880 -0.1101 -0.2274
19773W        W35242  11.974  16.512  12.015 -0.4363 -0.1364 -0.0096
19774W        W35243  12.852  10.967  15.613 -0.0275 -0.0170  0.1628
19775W        W35244   0.288  18.583   1.568  0.1432 -0.0295  0.0600
19776W        W35245   5.045   0.413   3.771  0.3218 -0.0797 -0.0817
19777W        W35246  14.085  17.262  13.934 -0.2816  0.1668  0.0382
19778W        W35247   4.235   0.621   2.355  0.0336 -0.1228  0.0961
19779W        W35248   8.295  10.092  13.118 -0.1692  0.2529  0.0986
19780W        W35249   1.785  14.429   0.289  0.1347 -0.1679 -0.0141
19781W        W35250  16.485   2.469  13.208 -0.0153  0.1389  0.2950
19782W        W35251  11.368   9.384   3.614  0.1953 -0.0044  0.2274
19783W        W35252  16.103  17.066   0.930  0.1104  0.0643 -0.0065
19784W        W35253   5.446   6.890   2.034 -0.1409  0.2039  0.2878
19785W        W35254   8.568   2.403  15.724  0.0797 -0.0779  0.2440
19786W        W35255   5.433  15.316  13.341  0.0397  0.1184 -0.1564
19787W        W35256   6.734   9.787   0.475  0.1585  0.1309 -0.0783
19788W        W35257  14.630   7.307  11.194  0.1304 -0.0259 -0.0859
19789W        W35258   1.072   9.580   2.745 -0.2937  0.2034 -0.0178
19790W        W35259  10.803   7.680  15.602  0.0098  0.2563  0.1648
19791W        W35260   8.906  18.514   3.448  0.0864  0.0499 -0.0250
19792W        W35261   0.897   4.288   2.819  0.1421  0.2656  0.1148
19793W        W35262  17.278   9.742   0.664  0.1792 -0.0821 -0.2564
19794W        W35263   5.198   7.946   4.450  0.1754 -0.0327 -0.2678
19795W        W35264   3.789  14.451  13.961 -0.1992 -0.2486 -0.0534
19796W        W35265   5.946   1.053  15.688 -0.4368  0.0995 -0.1473
19797W        W35266   5.637  17.896  13.363 -0.1058 -0.0104 -0.0810
19798W        W35267   9.962  17.824  11.712 -0.1918  0.0331  0.0731
19799W        W35268   2.795   3.493  13.460 -0.1906 -0.1021 -0.0412
19800W        W35269  10.952   6.231  15.619 -0.0043  0.0293 -0.0602
19801W        W35270   3.061  12.556   1.959  0.1927  0.0140 -0.1054
19802W        W35271   3.157  16.842  14.547  0.4226 -0.3801 -0.0043
19803W        W35272  11.606   3.414   5.711  0.0130  0.0391  0.1101
19804W        W35273  11.384   0.972   2.406 -0.1511  0.0908  0.0293
19805W        W35274   2.407   1.624  12.666  0.1145  0.1514  0.0975
19806W        W35275  11.673  16.359   5.854 -0.0848  0.3445 -0.2133
19807W        W35276   0.189  17.507  15.213  0.3694 -0.0631  0.1135
19808W        W35277   5.875   4.807  13.660  0.0407  0.1107 -0.3258
19809W        W35278   6.542  14.427  15.748 -0.1099 -0.0595  0.1639
19810W        W35279  10.778  13.466  13.902  0.1515 -0.0809  0.1743
19811W        W35280  16.799   0.812  12.848  0.2282  0.0438  0.1377
19812W        W35281   0.997   4.726   4.087  0.0151 -0.1674 -0.1698
19813W        W35282   3.989   0.069  14.001 -0.1500  0.2157  0.0116
19814W        W35283   3.294  12.708  11.725  0.2413 -0.1986  0.4085
19815W        W35284  17.055   9.801   2.087 -0.0337  0.0399  0.0065
19816W        W35285  15.821  11.456   4.543  0.0457 -0.1880 -0.0765
19817W        W35286  15.283   6.240  11.603 -0.0034  0.0114 -0.0658
19818W        W35287  15.888  15.797   0.446  0.0972 -0.0763  0.2875
19819W        W35288   7.906  15.692   3.107  0.1756  0.2357 -0.2220
19820W        W35289  13.128  15.107   5.424  0.0263 -0.1629 -0.2156
19821W        W35290   1.514   0.785  10.846  0.0609 -0.2050  0.0275
19822W        W35291  10.452   1.820  11.211 -0.1085 -0.0942 -0.0644
19823W        W35292   7.185  17.473   5.165 -0.1696 -0.0981  0.1501
19824W        W35293  16.032  10.979   0.880  0.0725  0.0069  0.1740
19825W        W35294   3.388   2.974  15.405 -0.0581 -0.1814 -0.4169
19826W        W35295  16.997  15.491  11.043 -0.0723  0.1089 -0.3602
19827W        W35296   9.447  12.273  13.932  0.3268  0.3354  0.2394
19828W        W35297   9.209  16.325   5.182 -0.0588 -0.0888 -0.2337
19829W        W35298   3.149   0.242   4.741 -0.0202 -0.0205  0.1326
19830W        W35299   3.663   2.094  15.779  0.0248  0.2096 -0.1903
19831W        W35300   2.510  18.396   0.995  0.0327  0.1420 -0.1920
19832W        W35301   6.101   3.350  15.741  0.1669 -0.0204  0.1284
19833W        W35302  15.291  11.140  15.072 -0.1623  0.2507  0.0287
19834W        W35303  10.458   1.257   2.404  0.2058 -0.0837  0.0273
19835W        W35304  12.903   8.388   2.689  0.1020 -0.1324  0.0554
19836W        W35305  17.019  14.071   2.883 -0.2691  0.2932  0.0957
19837W        W35306   8.369   7.757   4.105  0.2383  0.2073 -0.0935
19838W        W35307   0.143   2.988  15.541 -0.1030  0.0095  0.0793
19839W        W35308   7.025  14.378  12.723  0.0393 -0.1582  0.0271
19840W        W35309  10.885   2.654   5.039 -0.3102  0.0440 -0.0622
19841W        W35310   0.766   7.840  14.190  0.0647  0.0344 -0.1162
19842W        W35311  15.585  13.363  10.497 -0.0338 -0.0229 -0.2158
19843W        W35312  12.037   1.105   0.275 -0.1585  0.0846  0.1222
19844W        W35313   9.374   3.746  15.756  0.1619  0.0932 -0.0858
19845W        W35314  16.009   6.894   0.528  0.0364 -0.0661 -0.2994
19846W        W35315  12.020   0.855   0.681  0.3076 -0.0453  0.0310
19847W        W35316  17.003  16.744   5.899  0.1589  0.0215 -0.2731
19848W        W35317  16.409  17.730   3.680  0.1318 -0.0201  0.2777
19849W        W35318  12.568   6.959   4.990  0.0301 -0.1519 -0.3826
19850W        W35319  16.891  14.930   5.611 -0.0086 -0.0193  0.0049
19851W        W35320   6.855  17.969  15.717  0.0812 -0.0109  0.0043
19852W        W35321  18.097  10.240   0.720 -0.4215 -0.1718 -0.0068
19853W        W35322  17.252   9.509   1.584 -0.2820 -0.1050  0.0396
19854W        W35323  18.590   1.904   4.461 -0.1296  0.0761  0.1677
19855W        W35324   1.167   7.695  12.434 -0.0942  0.1403  0.4132
19856W        W35325   3.921   8.903  13.035 -0.0092  0.0551 -0.0505
19857W        W35326  15.178  10.752   2.062  0.1211  0.2234  0.0388
19858W        W35327   7.669   2.597  13.953  0.1040  0.2445 -0.0399
19859W        W35328  17.990   9.236  13.885 -0.1344  0.0701  0.1584
19860W        W35329  10.454  13.917   1.877  0.2451  0.4943  0.0637
19861W        W35330  14.305  10.939   3.976 -0.3069  0.3137 -0.0572
19862W        W35331   6.638  17.638   0.259  0.2162  0.0499  0.0200
19863W        W35332  16.783  15.645   1.392 -0.1177 -0.0014 -0.1140
19864W        W35333   8.792   6.282  11.722 -0.1878 -0.1325 -0.1222
19865W        W35334   2.792  11.131  12.134  0.5174  0.0615  0.2791
19866W        W35335  18.621   7.167   3.685  0.1886 -0.1853 -0.2268
19867W        W35336  10.662  14.957   2.157  0.0916  0.2915  0.2315
19868W        W35337  10.579  10.863  15.170  0.0783  0.3305  0.4076
19869W        W35338   0.225   2.773   2.150 -0.2295  0.0807  0.2600
19870W        W35339   4.610   4.370   3.105  0.1902 -0.1009  0.2042
19871W        W35340   2.866  10.692  13.394  0.1225  0.0947  0.2757
19872W        W35341   1.052   2.261  10.876  0.2383 -0.0874 -0.1145
19873W        W35342   5.380   6.677   3.951  0.0939 -0.2718  0.0274
19874W        W35343  17.654  11.435   4.385 -0.1582  0.1528 -0.0206
19875W        W35344   1.851  14.578   2.871  0.2785  0.1681 -0.0769
19876W        W35345  11.936   9.762  14.656  0.0362  0.0715 -0.0800
19877W        W35346  13.808  14.235   1.986 -0.0774 -0.1610  0.0559
19878W        W35347  18.603  14.295   9.795  0.1159 -0.2810 -0.0081
19879W        W35348   6.678   8.383   5.764 -0.1772 -0.0824  0.4416
19880W        W35349  18.577   3.230  11.873  0.0653 -0.0058 -0.2365
19881W        W35350   3.169   7.256   5.446  0.0067 -0.0871 -0.1993
19882W        W35351   2.956   5.462  12.926  0.0138  0.0805 -0.0142
19883W        W35352  14.089  16.013   5.383  0.1337 -0.2730 -0.3708
19884W        W35353  12.529   5.052   4.354 -0.3554  0.0244  0.1262
19885W        W35354  12.273  15.236  12.415 -0.1394  0.1439 -0.0586
19886W        W35355  18.564  13.036   4.366  0.1088  0.1935  0.2212
19887W        W35356   0.204  10.655   9.103 -0.0128  0.1094  0.2185
19888W        W35357   4.735  17.193   0.496 -0.0630  0.0690  0.2285
19889W        W35358  17.377  13.005  12.958  0.2951  0.0484 -0.0875
19890W        W35359  18.469  13.887   5.563  0.0046  0.2784  0.2457
19891W        W35360  12.693   9.283  12.258 -0.1172  0.0432  0.1368
19892W        W35361  18.069   7.502   1.887  0.1343 -0.0551  0.1762
19893W        W35362   0.472   3.839  13.027  0.0402 -0.6828 -0.1633
19894W        W35363   0.831   0.988   9.570  0.0850 -0.0862  0.1222
19895W        W35364  14.950   8.016  15.759  0.1237 -0.2066 -0.0061
19896W        W35365  12.900   7.548  12.216  0.3803  0.1285  0.0406
19897W        W35366  16.460   2.934  11.370 -0.2114 -0.1475  0.1431
19898W        W35367   1.089  10.118  11.894 -0.3832  0.3022  0.0764
19899W        W35368   1.303   3.983  11.842  0.1522 -0.0113  0.2937
19900W        W35369   8.937  11.136   0.500  0.1682 -0.1649 -0.1897
19901W        W35370  12.366   5.357   0.161  0.0774 -0.1226  0.4164
19902W        W35371  16.328   9.409  12.843 -0.3637 -0.4411  0.0666
19903W        W35372   6.135   2.531  15.307 -0.1273  0.0158 -0.1809
19904W        W35373   8.092   0.238  12.799  0.2764 -0.0900  0.1509
19905W        W35374  11.024  18.408   4.669  0.2828 -0.3286 -0.0966
19906W        W35375   0.090  13.538  11.801  0.1047 -0.1981  0.1747
19907W        W35376  17.451   9.194  14.171 -0.0427  0.2304  0.1690
19908W        W35377   5.308  18.429   2.991 -0.0047 -0.0324  0.1627
19909W        W35378   1.951   0.599   2.384 -0.2458  0.0711 -0.1595
19910W        W35379  17.438   9.952   0.265 -0.1698 -0.0093 -0.4187
19911W        W35380  12.866  12.223   5.375 -0.0308  0.2615 -0.1410
19912W        W35381  13.954  15.079  13.670 -0.2937 -0.0120  0.2058
19913W        W35382   6.146   7.563  14.295 -0.0192 -0.1028  0.1345
19914W        W35383  15.785  12.118  10.351  0.1168 -0.0824  0.0172
19915W        W35384  14.733  12.262   5.016 -0.1785 -0.2773  0.1256
19916W        W35385   7.078   9.171   2.693  0.0661 -0.1035 -0.0652
19917W        W35386  16.391  12.492  15.257  0.0235  0.1057 -0.1113
19918W        W35387   3.219   0.391  15.296  0.1701  0.1019 -0.1475
19919W        W35388  11.834   4.795  12.195 -0.1702 -0.1665 -0.2024
19920W        W35389   8.110   0.868  12.623 -0.1775  0.4321  0.3150
19921W        W35390   2.532   8.858  10.492 -0.2229 -0.0142 -0.0361
19922W        W35391   0.141  16.023  13.538 -0.3120 -0.3040 -0.2140
19923W        W35392  16.815   4.428   1.886 -0.2934 -0.3074  0.1504
19924W        W35393   5.668  11.853   0.259 -0.2641 -0.1152  0.0062
19925W        W35394   6.239   7.668   4.146 -0.0832 -0.1157 -0.0304
19926W        W35395  13.514   1.729  14.549  0.2165  0.1551  0.0621
19927W        W35396  15.459  13.557  10.039 -0.2140  0.3630  0.3054
19928W        W35397   7.005  14.701  15.435  0.3030  0.1064 -0.0533
19929W        W35398  16.650   7.840   1.836  0.0002 -0.1256  0.1221
19930W        W35399   4.165  13.027  12.958  0.0870  0.0168  0.2792
19931W        W35400  13.227   5.351  10.681  0.0784  0.0256 -0.3354
19932W        W35401   2.493   2.348  11.806 -0.2620  0.0211 -0.1000
19933W        W35402  12.626  15.136   4.714  0.1446 -0.0276  0.0582
19934W        W35403  12.210   2.254   4.688  0.2162 -0.2413 -0.4183
19935W        W35404  11.581  10.985   1.824  0.4951  0.0447 -0.1611
19936W        W35405  14.420   6.514   0.083 -0.0727  0.1587  0.0553
19937W        W35406   5.656   2.758  14.371 -0.1991  0.0821 -0.1197
19938W        W35407   3.524  16.913   1.109  0.0161 -0.2226  0.2220
19939W        W35408   1.328   4.710   0.987  0.0007 -0.2895 -0.2483
19940W        W35409  16.850   1.922  13.903  0.0170 -0.1460 -0.1086
19941W        W35410  14.546  10.438   2.452 -0.0736 -0.0601 -0.0913
19942W        W35411   4.437  16.890   0.730 -0.0015  0.1099 -0.0977
19943W        W35412  16.172  12.986  11.244 -0.1402  0.0177 -0.1585
19944W        W35413  17.847  16.851   2.228  0.2305 -0.0026  0.0972
19945W        W35414   0.199   7.472  15.345  0.0587 -0.1361 -0.1558
19946W        W35415  11.073   0.403   1.373 -0.0871  0.0830 -0.0240
19947W        W35416   4.547  13.693  15.034  0.0499 -0.0538  0.1552
19948W        W35417   4.384   7.271  15.502 -0.0037 -0.1560 -0.0818
19949W        W35418   8.594   3.743  13.815 -0.0261 -0.1122 -0.2229
19950W        W35419  14.550   7.038   3.984  0.0989 -0.1926 -0.1245
19951W        W35420   6.733   2.823  12.290  0.0209  0.1480 -0.3261
19952W        W35421  10.982  15.145   1.801  0.0760  0.0510  0.1495
19953W        W35422  14.286  12.617  14.613  0.1569  0.1459 -0.0628
19954W        W35423  11.103   7.582  11.383 -0.1554 -0.0972  0.0326
19955W        W35424   0.540   2.636  15.446  0.1406 -0.0773 -0.0346
19956W        W35425   4.255  16.519  12.643 -0.0803  0.0334  0.2457
19957W        W35426   4.856   0.008   4.421 -0.1657 -0.0800 -0.0609
19958W        W35427  16.606  14.336   2.734 -0.3544 -0.1162  0.0675
19959W        W35428   7.940  15.691   3.617 -0.0382 -0.3089  0.0031
19960W        W35429   8.022   3.508   4.632 -0.1890 -0.0332 -0.1843
19961W        W35430   1.488   7.455  14.711 -0.0980 -0.0167 -0.0863
19962W        W35431  15.176  18.383  10.361  0.0883 -0.0351  0.3922
19963W        W35432   5.238  10.902  13.544  0.1303  0.3072  0.1120
19964W        W35433  17.099  13.409  14.714 -0.0470  0.0177 -0.1525
19965W        W35434   7.847   3.947  12.344  0.3048 -0.0424 -0.1942
19966W        W35435   7.759   1.886   6.373  0.1527  0.0726  0.0054
19967W        W35436  11.402  16.579  11.840 -0.4700  0.0931 -0.3186
19968W        W35437  10.155   3.232   2.904 -0.2253 -0.3229 -0.2210
19969W        W35438   4.249  10.067   5.184 -0.1602 -0.1707 -0.3596
19970W        W35439   0.274  12.732   4.072  0.1277  0.1613  0.0751
19971W        W35440   9.742   8.482   0.014  0.1668  0.3024 -0.1087
19972W        W35441  16.272  14.049   1.820 -0.1218  0.1896 -0.0222
19973W        W35442  13.949  15.755   1.604  0.0961  0.1846 -0.0296
19974W        W35443   3.266  12.903  13.185 -0.3062 -0.1620  0.1881
19975W        W35444   9.901   4.936  14.816  0.0544 -0.4983 -0.0584
19976W        W35445  12.464   4.513  11.649 -0.2194 -0.0443  0.0516
19977W        W35446   9.710   4.514   3.748 -0.0071 -0.0795 -0.1212
19978W        W35447   9.615  18.437  15.111 -0.0503 -0.0025  0.0056
19979W        W35448  18.108  12.139  13.578  0.0407 -0.3903  0.1024
19980W        W35449   5.096   4.126   1.202 -0.1413 -0.0507  0.1083
19981W        W35450   4.299  17.580  13.418 -0.3298  0.4151 -0.1921
19982W        W35451   9.052   3.463   0.939  0.2520 -0.1951  0.1209
19983W        W35452  14.310   1.407   4.880 -0.1411  0.2002 -0.1078
19984W        W35453   6.480  15.432   2.671 -0.3309  0.2155  0.1058
19985W        W35454   5.900   1.031   4.443 -0.0274  0.1363 -0.1200
19986W        W35455   9.401   8.927   4.463  0.1426 -0.0899 -0.3730
19987W        W35456   1.613  10.095  15.761 -0.0459 -0.0746  0.2780
19988W        W35457   4.507   0.180   2.264 -0.0788  0.1181  0.3366
19989W        W35458   0.240  10.960   0.653 -0.1834  0.3964 -0.1706
19990W        W35459  10.447   4.899  13.532 -0.2333 -0.3122  0.0071
19991W        W35460  15.024   0.640   3.634  0.1104 -0.1799 -0.2966
19992W        W35461   8.194  18.281  14.460  0.1377 -0.0426 -0.1215
19993W        W35462  11.056  15.146  11.486 -0.1533  0.0761 -0.1897
19994W        W35463   6.504   1.921   3.346  0.0373 -0.3013  0.1486
19995W        W35464   9.894   3.147  11.071  0.2748  0.2896  0.0528
19996W        W35465  17.736  16.771   4.953  0.2432 -0.1087 -0.2313
19997W        W35466  16.044  11.229   4.180  0.2844  0.0375  0.0853
19998W        W35467  13.557  12.472  11.851  0.0783  0.0315 -0.2051
19999W        W35468   8.966   0.272   2.068  0.2744  0.0547  0.0460
20000W        W35469   6.611   8.277  10.868  0.1133  0.3366 -0.1151
20001W        W35470  10.991  12.487  14.776 -0.0635  0.0395 -0.0926
20002W        W35471   1.534  14.004   4.019 -0.1008  0.0286  0.3012
20003W        W35472  10.492   9.837   0.661 -0.0979 -0.0394  0.0754
20004W        W35473  10.818  13.768  12.261  0.0818  0.2357  0.0297
20005W        W35474   7.577  12.205  11.008  0.2949 -0.0913  0.0736
20006W        W35475  11.506  12.169   0.749  0.3003 -0.2644 -0.2179
20007W        W35476  15.438  13.217   5.884 -0.2417  0.1670 -0.0206
20008W        W35477  14.566   1.595   0.235 -0.1191 -0.0844 -0.0429
20009W        W35478  12.987   9.975  14.021 -0.2064 -0.1990  0.2703
20010W        W35479  16.556  16.998   1.466  0.0306 -0.0363 -0.0725
20011W        W35480   7.696  11.297   4.329  0.4150 -0.1906 -0.0542
20012W        W35481   2.348   7.071   4.014 -0.0385 -0.0500  0.2965
20013W        W35482   8.525  14.870  11.566 -0.0885  0.0711  0.1819
20014W        W35483  16.052  13.718   2.935 -0.3186 -0.2220 -0.3319
20015W        W35484   6.647   7.205   4.639  0.1470 -0.2125  0.0694
20016W        W35485   1.328   9.865   1.522 -0.1052  0.1490 -0.1126
20017W        W35486  18.597   8.313  14.949 -0.0339  0.1410 -0.1273
20018W        W35487   7.232   2.781   4.275  0.0711  0.0700  0.1658
20019W        W35488   7.938  11.022   4.662 -0.2286  0.1161  0.2280
20020W        W35489  15.683   8.136   3.212 -0.1072  0.2869 -0.0888
20021W        W35490  10.065   0.122  11.364 -0.2641 -0.0414  0.1192
20022W        W35491  11.501   3.862  15.273 -0.0773  0.0322 -0.0787
20023W        W35492   8.803   3.218   1.953  0.1814  0.1084  0.1772
20024W        W35493   8.860  17.814   3.780 -0.1548 -0.2320  0.0802
20025W        W35494   7.990   6.732  13.295 -0.2337  0.0681 -0.1178
20026W        W35495  10.212   6.634  11.772  0.0096 -0.1929 -0.2112
20027W        W35496  11.505   6.099  12.232  0.4439 -0.0171 -0.2008
20028W        W35497   6.682  10.604  14.589 -0.0505 -0.2301 -0.1705
20029W        W35498   8.385   0.546   0.223 -0.0379 -0.0827 -0.1289
20030W        W35499   4.409  15.575   0.414 -0.1575  0.2259 -0.1025
20031W        W35500   5.743   3.527   5.410 -0.2545  0.0003  0.0825
20032W        W35501  17.361  13.330  12.354 -0.1839  0.2568  0.0055
20033W        W35502  18.363  14.171   0.186 -0.2318  0.0229 -0.2039
20034W        W35503  16.496  12.347   3.824 -0.3805  0.1147 -0.0902
20035W        W35504   7.395   0.135  14.615 -0.1797  0.0947  0.0374
20036W        W35505   3.335   1.097   2.727 -0.2226 -0.2106  0.0091
20037W        W35506   0.237   7.791   4.370  0.3363  0.2108 -0.0401
20038W        W35507   0.209  13.370  11.298  0.1610 -0.3717  0.0298
20039W        W35508  12.616  11.850   2.064 -0.0546  0.3046  0.0604
20040W        W35509  12.155   7.554  15.771 -0.1806  0.1398  0.0444
20041W        W35510   8.054  17.977   2.419 -0.0749  0.0737  0.0343
20042W        W35511  14.468  12.226  15.567  0.0610 -0.0337 -0.3006
20043W        W35512  16.152  15.255   6.059  0.2095  0.0168 -0.3963
20044W        W35513  14.770   1.110   2.699  0.1392  0.4391 -0.0314
20045W        W35514  16.591  17.217  11.886 -0.0856 -0.2521 -0.0338
20046W        W35515  13.042   9.136   0.210 -0.0968 -0.1021  0.2808
20047W        W35516   6.828   4.731  12.007  0.1365 -0.1377 -0.1865
20048W        W35517  16.785  16.906   3.521  0.0476  0.0117 -0.2484
20049W        W35518   8.758  16.041   0.307 -0.3307  0.0264  0.1539
20050W        W35519   0.596  13.652  10.978  0.0414 -0.2504 -0.0005
20051W        W35520   3.272   0.012  14.326  0.2447 -0.0534  0.1617
20052W        W35521   2.220  12.098  14.511 -0.0922 -0.0184 -0.0408
20053W        W35522   5.018   5.075  10.935 -0.0076 -0.0363  0.1370
20054W        W35523  14.799   7.970   2.917 -0.0716 -0.2281 -0.1628
20055W        W35524  11.306  18.342   0.531  0.0344 -0.4790 -0.1824
20056W        W35525  11.903   9.244   1.251  0.1351 -0.0481  0.0961
20057W        W35526   3.505   7.732   3.752 -0.1658  0.2152  0.2763
20058W        W35527  14.849  15.319  12.046  0.1688  0.0585  0.0084
20059W        W35528  10.476  17.500   4.253  0.3464 -0.1253 -0.1581
20060W        W35529  16.736  17.574  14.312 -0.1088 -0.1731 -0.0188
20061W        W35530   4.124  12.896   2.049 -0.1476  0.0548  0.0037
20062W        W35531   1.097  17.653  15.627  0.1730  0.1185 -0.0212
20063W        W35532   2.401  17.825   0.710  0.2353  0.1373  0.0658
20064W        W35533   7.390  13.400  11.343  0.3119  0.1672  0.0052
20065W        W35534  11.295  11.792   1.712 -0.2283  0.1618  0.2794
20066W        W35535  13.881  16.486   2.272  0.0414  0.1872 -0.1612
20067W        W35536   8.913  17.413   2.932  0.4320  0.3311 -0.1833
20068W        W35537   4.345  16.012   4.709 -0.0523 -0.1410 -0.1015
20069W        W35538   8.498  12.280   2.364  0.0085  0.0235  0.0530
20070W        W35539   5.049  17.089   4.176  0.0222 -0.0177  0.0927
20071W        W35540  11.608   7.302  13.957  0.5043  0.1083  0.0543
20072W        W35541  16.929  15.375   2.845  0.0623  0.2787  0.0962
20073W        W35542  15.277  17.505   1.145 -0.0491 -0.0829  0.0367
20074W        W35543   3.749  15.309  11.630 -0.1507  0.1482  0.4552
20075W        W35544  16.552   8.018   5.367  0.0589 -0.1913  0.2781
20076W        W35545   8.247   8.833  12.128 -0.2881  0.1219 -0.0608
20077W        W35546  13.507   0.229   5.283  0.0607 -0.0937 -0.1128
20078W        W35547  10.784   0.397   5.911 -0.1086  0.0231 -0.1134
20079W        W35548   1.996  13.385  12.921 -0.0027 -0.1762  0.1308
20080W        W35549   4.993   7.256  13.174 -0.1547  0.0742  0.0577
20081W        W35550  15.684  16.325  15.260 -0.2261 -0.0979 -0.1285
20082W        W35551   7.367   3.712  10.879 -0.1496  0.1488  0.0908
20083W        W35552   4.509   2.699  13.712  0.0878  0.0087  0.2129
20084W        W35553  12.548  17.626  14.517  0.1859 -0.0551 -0.0442
20085W        W35554  11.391  10.524   0.324  0.1722 -0.0228  0.0715
20086W        W35555   5.055   7.472   2.884 -0.0364  0.0962 -0.0331
20087W        W35556   9.441   2.150   2.398  0.0545 -0.2778  0.1596
20088W        W35557   2.464  16.592   0.297  0.0269 -0.1721 -0.2356
20089W        W35558  13.486   7.541  11.888  0.0590  0.0647  0.2422
20090W        W35559   5.064   0.040  14.621  0.0965  0.0672  0.1037
20091W        W35560  14.274   2.228  12.265  0.0691 -0.1192 -0.3232
20092W        W35561   4.750  15.728   4.791 -0.2970  0.0156  0.2662
20093W        W35562   0.135   5.782   2.662 -0.1386 -0.0376 -0.2105
20094W        W35563   4.339   1.921  15.275 -0.2542 -0.0376 -0.2924
20095W        W35564  13.969  17.536  14.324  0.1853 -0.1422 -0.2231
20096W        W35565  15.627   5.566  14.990  0.2123  0.0905  0.4788
20097W        W35566  11.503  13.752   1.020 -0.0280  0.3156 -0.2462
20098W        W35567   0.013   7.069   3.004 -0.1678 -0.1219  0.3595
20099W        W35568  11.441   9.599  11.799  0.0091  0.0144  0.1559
20100W        W35569  11.281   0.843  15.541 -0.4874 -0.0214 -0.1151
20101W        W35570   2.223   8.114   1.126 -0.3692 -0.0335 -0.0328
20102W        W35571   9.453  12.898  13.153 -0.2236 -0.0934  0.0578
20103W        W35572  15.456  10.236  12.737 -0.0370 -0.0981 -0.0244
20104W        W35573  11.166  18.184   6.747  0.0489  0.1260  0.2139
20105W        W35574   2.884  12.548  15.679  0.0165  0.2382 -0.0067
20106W        W35575   0.340   2.857  14.620 -0.3710 -0.4463  0.0614
20107W        W35576   5.936  13.487   0.785  0.0204  0.0218 -0.0988
20108W        W35577   0.817   6.100  13.614  0.1785 -0.0714 -0.3532
20109W        W35578  16.402   0.772   4.643 -0.0866 -0.0448  0.0967
20110W        W35579  15.428  15.693  12.172  0.3358  0.1773  0.0888
20111W        W35580   9.052   7.975  12.950 -0.2075  0.1884  0.1955
20112W        W35581  10.334  15.877   2.525 -0.3487  0.4348  0.1038
20113W        W35582  18.454  10.375  11.875  0.0418 -0.1164  0.2356
20114W        W35583  11.900   2.035   4.003 -0.0772 -0.1861  0.3688
20115W        W35584  15.919  12.695  12.164  0.0963  0.1601 -0.0499
20116W        W35585  10.751   0.265  13.980  0.2925  0.3035 -0.2867
20117W        W35586   8.344   9.106  11.495  0.2009  0.1735  0.1187
20118W        W35587  11.284   4.863   0.646 -0.1421  0.0013  0.0174
20119W        W35588   6.352  10.665  11.611  0.0275 -0.2159  0.0260
20120W        W35589   3.862   2.862   3.217 -0.1586 -0.1724  0.0466
20121W        W35590  18.372  16.791  15.151 -0.2002 -0.0118  0.0924
20122W        W35591   2.315   8.520  13.262 -0.3495 -0.1873  0.1040
20123W        W35592   4.216  18.196   3.550  0.0642  0.0719  0.1828
20124W        W35593  12.869   2.362   2.278  0.1901  0.0064  0.0072
20125W        W35594   5.726   4.484   3.398  0.0224 -0.0316  0.0920
20126W        W35595   8.227  16.123  13.011 -0.0709  0.0017 -0.3006
20127W        W35596   3.659  18.021  14.814 -0.4479 -0.1409  0.0034
20128W        W35597   0.902   5.121   1.189  0.0511  0.2062 -0.0595
20129W        W35598   5.230   6.369  10.419  0.1673 -0.2828 -0.3545
20130W        W35599  10.740  14.091  12.861 -0.0978 -0.0528  0.0153
20131W        W35600   5.183  10.446  13.300 -0.0975 -0.1507  0.1507
20132W        W35601   9.543  11.329  12.300  0.0036 -0.1203 -0.3456
20133W        W35602  16.289   3.928   1.859 -0.0616  0.2168 -0.0309
20134W        W35603  12.995   3.891  14.829 -0.2881 -0.1371 -0.4325
20135W        W35604  16.281  12.824   2.438 -0.1873  0.0322  0.1041
20136W        W35605  13.301  14.564  11.304 -0.1423 -0.1493  0.3507
20137W        W35606  15.824   9.730   4.223  0.0749  0.0535 -0.0245
20138W        W35607  12.555   9.310   1.742  0.0310 -0.2627 -0.1345
20139W        W35608  14.663  16.053  14.305  0.2763 -0.0130  0.0406
20140W        W35609   3.974  11.913   3.220 -0.0071  0.4810  0.3419
20141W        W35610  17.331  12.679   2.514  0.0826  0.1107 -0.1202
20142W        W35611  10.058  16.624   4.351 -0.0965  0.3243 -0.1387
20143W        W35612  17.984   9.939  12.651  0.0551 -0.2663 -0.1061
20144W        W35613  13.558   3.769  11.204 -0.0456  0.2508 -0.0391
20145W        W35614  11.283  16.095  11.627 -0.1552  0.1491  0.0116
20146W        W35615   8.182  11.504  12.939 -0.1628  0.1642 -0.1684
20147W        W35616  12.050   8.041   2.062 -0.1268  0.0291 -0.0914
20148W        W35617   3.184   0.638  14.432 -0.0950 -0.0643 -0.0912
20149W        W35618  10.372  12.565  12.192 -0.0474 -0.1325  0.1486
20150W        W35619  13.914  14.741  11.757 -0.0837  0.0803 -0.0881
20151W        W35620   5.723  13.046  10.810 -0.1661  0.1918 -0.1644
20152W        W35621  11.088   2.750   2.683 -0.1624  0.2804  0.0444
20153W        W35622   4.958  11.570   2.521  0.0400  0.2694 -0.1122
20154W        W35623  15.950  14.181   5.723  0.0199 -0.0290 -0.0022
20155W        W35624   0.575   3.827  11.428 -0.1062 -0.4460  0.1416
20156W        W35625  13.168   1.243  12.357  0.1509 -0.2761 -0.2771
20157W        W35626  12.317  18.344   4.627 -0.0453  0.0257  0.0319
20158W        W35627   0.136   8.636  13.956  0.1066 -0.0616 -0.0277
20159W        W35628   6.324   7.475   2.539  0.0147 -0.3269  0.4521
20160W        W35629   9.335   7.731  10.378  0.1327 -0.1822  0.1392
20161W        W35630  13.300  16.977  10.960 -0.1411  0.0826 -0.1506
20162W        W35631  12.212  12.075  13.932 -0.2681 -0.0506 -0.0273
20163W        W35632  15.301   7.214  10.860 -0.0075 -0.2938  0.1167
20164W        W35633   1.055  16.286  15.527  0.3087 -0.0788 -0.0460
20165W        W35634  14.787   1.930   0.738 -0.1187 -0.0710  0.1701
20166W        W35635  10.164  11.219   1.361 -0.1529  0.1467  0.0952
20167W        W35636   3.645  16.827  10.989 -0.1410  0.0214  0.1325
20168W        W35637  15.782   9.479  13.223 -0.3109 -0.0943 -0.1627
20169W        W35638  14.328  10.634  10.406  0.1255 -0.4506 -0.2421
20170W        W35639  14.568  12.304   4.472 -0.0265  0.1830  0.0448
20171W        W35640  15.588   8.091  14.692  0.1757  0.0153 -0.1926
20172W        W35641  13.590  16.719  11.753 -0.0037  0.0125  0.2924
20173W        W35642  12.309   1.764  13.539  0.1714  0.1586  0.1853
20174W        W35643  12.079  18.107   5.212 -0.2527  0.2222  0.0111
20175W        W35644   3.732  11.486  13.724 -0.0061 -0.2329  0.3410
20176W        W35645  10.601   4.956   3.281  0.0507 -0.1347  0.0559
20177W        W35646   8.058   8.225  13.928  0.2199  0.1079  0.0142
20178W        W35647   2.285   4.461   3.356 -0.3152 -0.2013 -0.3045
20179W        W35648  13.600  11.026   2.985  0.2297 -0.2890  0.0869
20180W        W35649   4.513  14.440  13.202  0.4339  0.0316 -0.0793
20181W        W35650   0.273  11.744   0.336  0.1538 -0.0882 -0.1982
20182W        W35651  16.261  11.305  11.984  0.1591 -0.3871 -0.3923
20183W        W35652  16.474  16.906   5.625  0.2008 -0.0783  0.1423
20184W        W35653   0.040  11.138   3.659 -0.1777  0.0001  0.2284
20185W        W35654  16.221   6.517  13.988  0.1802  0.0034  0.0056
20186W        W35655   9.000   0.927  12.329  0.0215  0.2320 -0.2896
20187W        W35656   3.744  11.131   0.994  0.0343 -0.1452 -0.0498
20188W        W35657   7.648   5.433  11.204  0.0252  0.2614  0.0566
20189W        W35658  18.201  11.235   2.724 -0.1312  0.3504  0.1921
20190W        W35659   5.842   9.246  15.019  0.1301 -0.3369 -0.2486
20191W        W35660   9.870   9.659  11.358 -0.3640 -0.1134  0.3084
20192W        W35661   6.623  15.699   5.370 -0.2767 -0.0197  0.1247
20193W        W35662   3.900   2.619   1.360 -0.4142  0.1185  0.0843
20194W        W35663  11.378   3.925   5.731  0.2561  0.1546 -0.0556
20195W        W35664  18.109  13.205   0.082 -0.1255 -0.2622 -0.2451
20196W        W35665   6.977  12.029   4.529 -0.1019 -0.0480 -0.1037
20197W        W35666   2.026  13.233   4.533  0.2737 -0.0004  0.1427
20198W        W35667   6.153   0.512   5.221  0.3767 -0.0052 -0.0222
20199W        W35668   4.817   8.938  10.350  0.1078 -0.1329 -0.0724
20200W        W35669   5.041  17.059   1.357  0.0642  0.2184  0.0459
20201W        W35670  14.226   7.545   9.687 -0.2924 -0.1688  0.0869
20202W        W35671   9.424   1.061  10.495 -0.3550  0.0707 -0.1776
20203W        W35672  11.166  17.333   0.820  0.0043 -0.3087 -0.0419
20204W        W35673  10.981   4.061  10.837  0.2407 -0.2448 -0.0865
20205W        W35674   8.260   1.080  14.810 -0.5027 -0.1338  0.3921
20206W        W35675  16.511   4.165  12.310 -0.1828 -0.2067 -0.0553
20207W        W35676  15.619   4.882   2.490 -0.1962 -0.0112 -0.0204
20208W        W35677  18.412  15.887  11.527  0.1063 -0.2498  0.0701
20209W        W35678  18.258   8.985   2.902  0.1342  0.1139  0.0821
20210W        W35679  13.564   0.815  13.845  0.2801 -0.0793 -0.0678
20211W        W35680  16.173  16.569   2.714 -0.4083  0.3385  0.2027
20212W        W35681  17.407  12.607  10.662  0.1233  0.0416 -0.2174
20213W        W35682  18.416   2.478   2.164 -0.3486  0.1188 -0.1993
20214W        W35683   7.114  11.480  14.516 -0.2182 -0.0243  0.0726
20215W        W35684   5.005   0.687  15.682  0.3450 -0.2587 -0.1437
20216W        W35685  12.573   8.695  12.853 -0.0436  0.2337  0.2752
20217W        W35686  16.258  15.496   0.584 -0.3030  0.0510 -0.0461
20218W        W35687  11.213   9.896  13.151  0.0595 -0.0645 -0.3325
20219W        W35688   0.175   2.482   2.601 -0.0152  0.2487  0.2233
20220W        W35689   2.012   0.125  13.135 -0.1192  0.1950 -0.0374
20221W        W35690   2.275   2.278  12.861 -0.1195 -0.1485  0.0315
20222W        W35691  12.810   9.255  14.690 -0.1885  0.0716 -0.0880
20223W        W35692  14.045  16.623  14.573  0.1324 -0.2640 -0.1495
20224W        W35693  13.348   0.901  12.033 -0.1294 -0.1857 -0.0687
20225W        W35694  11.848   7.323  11.195 -0.1424 -0.0459 -0.1457
20226W        W35695   1.379   7.170   1.788  0.0077  0.4395  0.0203
20227W        W35696   8.397  17.023  14.061  0.0965 -0.0269 -0.2903
20228W        W35697  11.224   2.927  13.916 -0.1565  0.1134  0.0258
20229W        W35698   8.345  15.353  13.832  0.0043  0.2772  0.0416
20230W        W35699  17.805  17.872   4.510  0.0223 -0.0232  0.1203
20231W        W35700  16.466  10.772   2.874  0.0246  0.1448 -0.2742
20232W        W35701   9.293  11.045   1.100 -0.1540  0.1639  0.0166
20233W        W35702   0.031   1.970  15.031  0.3547  0.0856  0.3319
20234W        W35703   6.132  16.880   0.606 -0.2191 -0.0028  0.1226
20235W        W35704   4.195   0.961   5.122 -0.1084  0.2967 -0.1454
20236W        W35705   0.629   1.090  15.106 -0.0810 -0.1318 -0.1159
20237W        W35706   9.300   3.421  10.511 -0.1763  0.2156 -0.1232
20238W        W35707  17.946  16.074   2.030  0.3337 -0.3073 -0.0568
20239W        W35708   5.037   3.457   3.255 -0.1488  0.0039 -0.1324
20240W        W35709   1.415  10.001  12.696 -0.0619  0.1643  0.2907
20241W        W35710  10.759   5.829   4.986  0.1776 -0.0608 -0.0900
20242W        W35711  16.522  14.805  14.583 -0.0785 -0.0700 -0.1465
20243W        W35712  17.346  11.393   3.888  0.2277  0.2524  0.1476
20244W        W35713  16.589   1.836  11.384 -0.0915  0.2198 -0.0824
20245W        W35714   2.507   6.720  10.469  0.0992  0.2536  0.5538
20246W        W35715  14.218  11.291  13.534  0.0963  0.0605 -0.0289
20247W        W35716   4.337  10.571   0.177 -0.3330 -0.0709 -0.0333
20248W        W35717   5.466   2.488   2.643 -0.2029  0.1018  0.0644
20249W        W35718   3.570   2.652  10.637  0.2682  0.2079 -0.2863
20250W        W35719   9.850   1.259  11.166 -0.3111  0.0092  0.2449
20251W        W35720   9.100  13.963  14.551 -0.0100 -0.0399 -0.1419
20252W        W35721   8.228  16.139   1.013  0.0892  0.0666 -0.1993
20253W        W35722  16.747  15.321  13.480 -0.0702  0.0237  0.2374
20254W        W35723  18.354   6.625   2.967 -0.1085  0.2878  0.2920
20255W        W35724   6.185   9.606   9.817  0.1453  0.1916 -0.3129
20256W        W35725   4.036   9.772  12.480 -0.0643  0.0358 -0.3580
20257W        W35726  12.858   8.684  11.539 -0.4425 -0.3283 -0.0014
20258W        W35727   7.337  11.180  15.142 -0.0268  0.2628  0.0538
20259W        W35728  15.384   0.664  14.701 -0.2314 -0.0422 -0.2006
20260W        W35729  15.902  13.758  13.273  0.1144  0.0976 -0.0164
20261W        W35730   3.873  13.036   0.944  0.0953  0.1226 -0.1412
20262W        W35731  11.342   2.561   5.226  0.3377 -0.0211 -0.0607
20263W        W35732   9.319  16.246   4.655  0.0422  0.1063 -0.2719
20264W        W35733   9.955  16.369  12.663 -0.0596 -0.0432  0.0429
20265W        W35734  11.804   3.644  13.935  0.1036  0.1459  0.2031
20266W        W35735   2.877   4.816  11.464 -0.0550 -0.0046 -0.0688
20267W        W35736  14.095   6.894   0.331 -0.2022 -0.0066 -0.3164
20268W        W35737  17.287   2.189  12.918 -0.0820 -0.1976 -0.0470
20269W        W35738   7.414   1.073   1.691  0.4705  0.0904  0.3024
20270W        W35739  18.133  12.676  10.881 -0.4023  0.2484 -0.1591
20271W        W35740   0.360   1.429   2.347 -0.3433  0.1172 -0.1789
20272W        W35741  17.708  16.821  14.679  0.1165  0.1875  0.0569
20273W        W35742   0.713   4.068   1.863 -0.0511  0.1673  0.1947
20274W        W35743  11.708   1.802   1.010 -0.0107  0.1464 -0.0814
20275W        W35744   3.608  17.191   2.389 -0.3500  0.0889  0.0490
20276W        W35745   2.484  13.293  12.070  0.1943  0.0635  0.0180
20277W        W35746   4.152   0.949  14.504 -0.1626  0.1712 -0.0367
20278W        W35747   1.604   6.829   5.213  0.0067  0.1171 -0.0152
20279W        W35748  18.453   7.795   2.256  0.1663  0.1771  0.0634
20280W        W35749   0.152   7.579  11.935  0.0048  0.1040 -0.3010
20281W        W35750  11.619   6.544  15.150 -0.2941  0.1579  0.0590
20282W        W35751  12.028  15.938   4.968  0.1830  0.2195 -0.1177
20283W        W35752   3.642   6.891  15.067  0.0085  0.0670 -0.1380
20284W        W35753  11.306   3.847  13.925 -0.2450  0.0670 -0.1559
20285W        W35754   5.917   0.193   2.708 -0.2515  0.1279 -0.2319
20286W        W35755  17.043  10.817   0.816  0.3376  0.1114 -0.1351
20287W        W35756   1.216  10.626  11.591 -0.0359 -0.1179  0.3237
20288W        W35757   2.570   4.050  14.584 -0.2399  0.4695  0.1108
20289W        W35758   3.989  10.228  13.898 -0.0340 -0.3691  0.1215
20290W        W35759  14.566  14.660  10.335  0.4292 -0.1035  0.3106
20291W        W35760   3.511  14.658   3.246  0.1002 -0.0021 -0.3546
20292W        W35761  11.823   7.969  11.742  0.3020  0.1652 -0.1394
20293W        W35762   2.671   7.135  10.820  0.1831  0.1349 -0.4122
20294W        W35763  13.067   3.709  13.319  0.0894  0.0561  0.0623
20295W        W35764   9.594   8.408  12.158 -0.0499 -0.1175 -0.1986
20296W        W35765  13.679   3.672   1.903 -0.0040 -0.1297 -0.2094
20297W        W35766  14.067   3.382   0.054  0.3715  0.3095  0.2587
20298W        W35767   6.036   4.814  11.061 -0.1074  0.0698  0.1370
20299W        W35768  17.402   0.970  10.217 -0.3880  0.0471 -0.0276
20300W        W35769   2.487   7.766  13.560 -0.3327  0.1870 -0.4109
20301W        W35770   4.407   8.156   2.835  0.0563  0.2446  0.0024
20302W        W35771  17.098   5.285  15.767  0.0181  0.1228 -0.0866
20303W        W35772  12.524   0.800  11.661  0.3080  0.1967 -0.0780
20304W        W35773   0.986  14.049  11.856 -0.1464 -0.3761  0.2278
20305W        W35774  11.406  13.247   5.095  0.0518 -0.0276  0.4057
20306W        W35775   1.980   6.839  10.823  0.0383 -0.0873  0.2657
20307W        W35776  14.496  12.330  11.579  0.2896  0.2100  0.0439
20308W        W35777  14.651  18.536   3.208  0.1886  0.2349 -0.0219
20309W        W35778   5.846   6.264  15.418  0.1292  0.0401  0.2614
20310W        W35779   3.908  13.270  15.604  0.2809  0.0673  0.3857
20311W        W35780  11.397   6.896   4.017 -0.4058  0.2054 -0.2207
20312W        W35781  14.049  13.683  15.116  0.1873 -0.0055  0.0363
20313W        W35782  11.491   1.335  10.452  0.0358 -0.2590 -0.3680
20314W        W35783   7.118   2.150  13.424 -0.3023 -0.1987 -0.2026
20315W        W35784  16.543   6.640  13.530  0.0851 -0.0056 -0.1732
20316W        W35785  13.582  16.697   4.509  0.1931 -0.0658  0.0577
20317W        W35786  13.096   5.997   1.709 -0.0090  0.4375 -0.2009
20318W        W35787   4.421  16.152   0.479 -0.1385 -0.3514  0.0031
20319W        W35788  11.203   6.111   5.188 -0.0399  0.2875  0.0876
20320W        W35789   5.434   2.988  10.762  0.0217  0.2063  0.1953
20321W        W35790  11.286   6.901  13.771  0.0963 -0.1210 -0.1186
20322W        W35791   8.938  15.690   3.845 -0.0910 -0.1313  0.0826
20323W        W35792   0.768   7.477   2.589 -0.0023 -0.1606  0.1461
20324W        W35793   1.834   1.738   1.487  0.0900  0.1337  0.1674
20325W        W35794   1.420   5.236  12.799 -0.1808 -0.1698 -0.1521
20326W        W35795   8.404  17.754  13.471  0.3164 -0.1835  0.1260
20327W        W35796   5.670  10.019   5.224  0.3949 -0.3686 -0.0627
20328W        W35797  15.055   7.110  14.781 -0.0856 -0.2991 -0.1466
20329W        W35798   1.047  13.842  10.850 -0.1683 -0.1869  0.0882
20330W        W35799  13.913  17.685   1.453 -0.2958  0.0749 -0.2168
20331W        W35800  17.522  13.187  13.826  0.1572 -0.0170  0.1081
20332W        W35801  14.682   6.172   1.774  0.0876 -0.1745 -0.0921
20333W        W35802   5.591  18.429   4.147 -0.2964  0.0000 -0.0133
20334W        W35803  15.911  16.038   3.073  0.2776  0.3981  0.3647
20335W        W35804   2.150  13.036  13.538  0.0474  0.2408  0.2767
20336W        W35805   2.522   6.221  11.052  0.0479 -0.0053 -0.3650
20337W        W35806  15.542  11.667   3.663  0.1326 -0.0383  0.0778
20338W        W35807  14.476  10.263  10.685 -0.1682  0.0778 -0.1300
20339W        W35808   2.174   8.708  14.974  0.1494  0.0111  0.0240
20340W        W35809  17.098  13.121   0.420  0.1008 -0.2011  0.1440
20341W        W35810   3.704   6.669  13.019  0.0876 -0.1691  0.0336
20342W        W35811   5.771   9.526   4.795 -0.0054  0.0759  0.1282
20343W        W35812  17.881   2.021   0.910  0.0654  0.0405 -0.2512
20344W        W35813   6.168   4.880  12.854 -0.2478 -0.1081  0.2246
20345W        W35814  13.243   0.862  15.459 -0.1577 -0.0895  0.0853
20346W        W35815  12.702   0.416  15.568 -0.0063  0.2563 -0.0143
20347W        W35816   5.534   1.213  11.359 -0.1240  0.0575 -0.2657
20348W        W35817  18.313   2.053   0.595  0.1129 -0.0136  0.1208
20349W        W35818  11.377   9.930   0.572 -0.1736 -0.0202  0.1574
20350W        W35819   8.934  17.082  12.321 -0.4662 -0.0578 -0.0730
20351W        W35820  16.573   8.498   4.218  0.0812  0.0064 -0.1090
20352W        W35821   0.135  14.676   1.838 -0.3444 -0.2347  0.0969
20353W        W35822   8.203  14.184  10.537 -0.0050  0.1491 -0.0664
20354W        W35823  17.607  17.570  13.519  0.1415  0.0321 -0.2141
20355W        W35824   5.153  10.231  14.807 -0.0878 -0.0830 -0.1451
20356W        W35825   1.628   5.095   9.386  0.1951  0.1819 -0.1452
20357W        W35826   0.876   2.376  11.354  0.0615  0.0955 -0.1330
20358W        W35827  12.589   6.867  15.251  0.3464 -0.0177 -0.2009
20359W        W35828  15.362   5.369   2.726 -0.0523 -0.2428  0.0056
20360W        W35829  15.128  10.881   1.050 -0.0657  0.2561 -0.0456
20361W        W35830  14.982   4.145   2.253 -0.1901 -0.3466 -0.1552
20362W        W35831  12.051   0.746  13.693  0.0390  0.1430  0.0796
20363W        W35832  17.276  12.793  12.536  0.0924  0.3460  0.3025
20364W        W35833   7.070   6.094  12.618 -0.1101 -0.0767 -0.4182
20365W        W35834   7.007  13.917  12.556  0.2444  0.0414  0.2650
20366W        W35835   3.249   0.604  12.120  0.0127 -0.1630  0.1713
20367W        W35836  11.113   6.754   2.703  0.2139  0.2083  0.3004
20368W        W35837  18.158  12.349  15.665  0.1933  0.0084  0.0303
20369W        W35838  10.782   5.522   6.172  0.2488  0.1698  0.2642
20370W        W35839   1.341   2.649  11.237 -0.0664 -0.3254 -0.2938
20371W        W35840  16.055   5.054   2.492  0.0274 -0.0560 -0.0791
20372W        W35841   4.200   5.671   4.603 -0.1221  0.0024  0.2131
20373W        W35842   9.526   2.141   0.328 -0.2568 -0.0757 -0.2191
20374W        W35843  15.183   4.915   1.094  0.0820  0.0724 -0.0534
20375W        W35844   8.897  16.001   4.691  0.0038 -0.0033  0.1601
20376W        W35845   4.700   9.232  14.107  0.1530 -0.1280 -0.0920
20377W        W35846  13.153   9.092  13.449  0.2154 -0.0728 -0.0213
20378W        W35847   0.507   8.100  12.744 -0.1779  0.1932 -0.2304
20379W        W35848  18.306   5.486   4.702 -0.2675  0.0212 -0.1052
20380W        W35849  10.984   4.799  10.507 -0.1916  0.1376  0.0443
20381W        W35850  15.881  14.566  15.330  0.1708 -0.0353 -0.2374
20382W        W35851  12.772  12.752  11.981 -0.3177 -0.0648  0.0954
20383W        W35852   9.499  10.619   3.493 -0.3262  0.1430  0.2634
20384W        W35853  15.142  18.424   2.975  0.2480  0.0695  0.0970
20385W        W35854   0.425  17.506   4.829  0.2243  0.1249 -0.1925
20386W        W35855  11.109   8.127  14.053  0.0533 -0.2509  0.1871
20387W        W35856   6.573  14.693   4.290  0.2137 -0.0356  0.3668
20388W        W35857   5.707   6.591   0.091  0.0040 -0.2380 -0.0464
20389W        W35858  13.926  16.299   0.300 -0.0924 -0.0819 -0.1101
20390W        W35859   3.681  10.958  13.552 -0.0029  0.0160 -0.2146
20391W        W35860   4.378   8.230   4.238  0.0756  0.1255  0.1355
20392W        W35861   3.726  14.970   1.515  0.3442  0.2876 -0.1087
20393W        W35862   5.329   5.389  14.952 -0.2845  0.1541 -0.0298
20394W        W35863   4.730  14.914  13.124 -0.0014 -0.0602  0.0275
20395W        W35864   0.842  15.163   2.080 -0.1253 -0.0806  0.2576
20396W        W35865  12.576   0.847  13.686 -0.0428 -0.1838  0.0782
20397W        W35866  14.867  13.249  12.034 -0.0566  0.1280 -0.0792
20398W        W35867   1.970  18.274   3.302  0.1294  0.0069  0.1121
20399W        W35868   4.528  15.183  12.770 -0.2257 -0.0147 -0.5013
20400W        W35869  12.026   2.824  13.178  0.0854 -0.0263 -0.3195
20401W        W35870  18.141  15.545  14.291 -0.2963 -0.2078  0.0555
20402W        W35871   8.272  14.035  13.192 -0.1251 -0.1419 -0.0139
20403W        W35872   2.462   5.347   2.949  0.2116  0.1801  0.3276
20404W        W35873   8.181  16.083   6.068 -0.1570 -0.0851  0.3026
20405W        W35874   7.337  13.238   3.562 -0.0368 -0.1121  0.2473
20406W        W35875  10.250  18.159   3.059  0.0022  0.0639  0.2877
20407W        W35876  13.588   3.223   2.599 -0.1168  0.3372 -0.0115
20408W        W35877  17.378  15.793   2.884 -0.3689 -0.0177  0.0345
20409W        W35878   5.813   7.952   3.435  0.0656  0.0833  0.0952
20410W        W35879   5.362  10.661  15.614  0.0231 -0.0657 -0.0330
20411W        W35880  16.235  11.637   0.446  0.3016 -0.1349  0.2496
20412W        W35881   0.305   8.897   0.811 -0.1712 -0.1485  0.0074
20413W        W35882   3.642   6.385   2.628 -0.0882  0.4033 -0.3530
20414W        W35883  15.112   5.558   3.161 -0.1226  0.0334 -0.1246
20415W        W35884  11.920  10.962  14.957  0.2036 -0.0887 -0.0368
20416W        W35885   1.766  14.245  12.246 -0.0771 -0.0817 -0.1082
20417W        W35886   4.734  15.904  12.311 -0.0105 -0.1307  0.1325
20418W        W35887   1.460   2.052   1.496 -0.0159  0.3475 -0.1717
20419W        W35888   6.549  11.293  13.825 -0.1055 -0.1959  0.0978
20420W        W35889  10.151  12.056   0.376  0.1053  0.0399  0.1830
20421W        W35890  15.474   1.872   1.693 -0.0411  0.4820  0.0218
20422W        W35891  16.677   0.180   1.796 -0.1844 -0.0874 -0.1750
20423W        W35892   4.766   6.871  12.200 -0.1186 -0.2172  0.0174
20424W        W35893  12.267   7.949  10.737 -0.1541 -0.1896 -0.0367
20425W        W35894   5.698   1.268  15.242  0.0936 -0.0026  0.1056
20426W        W35895   7.618   9.247   0.851  0.1440 -0.1440 -0.1902
20427W        W35896   2.728   5.985  14.289  0.0336  0.2016 -0.4153
20428W        W35897   8.704   8.013  14.355 -0.0540 -0.2714  0.0856
20429W        W35898   7.462   2.376  15.149  0.0648 -0.1677  0.1681
20430W        W35899  14.977   4.271   4.100 -0.0626  0.3072 -0.0649
20431W        W35900  12.165   0.771  14.996 -0.1356  0.2924  0.0738
20432W        W35901  13.840   9.337  12.514 -0.0810  0.0679 -0.0449
20433W        W35902   1.646  18.154   3.686  0.0216  0.2299 -0.1237
20434W        W35903   4.105  16.433  13.827  0.0876  0.2535 -0.1040
20435W        W35904  11.153   0.893  14.668 -0.4878 -0.0796  0.0440
20436W        W35905  15.060  14.404   5.161  0.2350 -0.1467  0.0516
20437W        W35906  12.788   2.578   1.241  0.2306  0.1807  0.0326
20438W        W35907  12.702   3.041   3.632  0.0887  0.0794 -0.2500
20439W        W35908   5.542  12.175  14.565  0.4435  0.0885 -0.0383
20440W        W35909  13.681   5.164  10.441 -0.1470 -0.1497  0.0624
20441W        W35910  14.455   4.065  13.299  0.3695  0.0951 -0.2834
20442W        W35911  14.583   4.088   1.881 -0.1846 -0.1010  0.0187
20443W        W35912  16.079  14.507  10.986 -0.3237 -0.0532  0.0374
20444W        W35913  14.463  17.075   2.251 -0.2591  0.0328 -0.1921
20445W        W35914  18.024   3.955  15.191  0.2417  0.0141  0.3414
20446W        W35915  13.394  13.170   1.879  0.0571  0.1631  0.0687
20447W        W35916  10.683  14.360   4.738  0.3845 -0.2179 -0.1822
20448W        W35917  10.658   6.654  11.453  0.1746 -0.5605 -0.0309
20449W        W35918  10.950  16.415   0.322  0.1348 -0.1539  0.2055
20450W        W35919  12.705   5.026   3.811 -0.0418 -0.2972  0.0546
20451W        W35920  18.430  12.687   2.423 -0.1632  0.2092 -0.0366
20452W        W35921   9.448  12.934  15.715 -0.1289  0.1401 -0.0253
20453W        W35922  12.730   9.017  15.541  0.1743 -0.1703  0.1362
20454W        W35923   7.516  13.977  10.317 -0.0941  0.4859 -0.2173
20455W        W35924  10.403   6.975   4.219 -0.1121 -0.0774 -0.0714
20456W        W35925  10.457   4.945   1.664  0.0486 -0.0025  0.1014
20457W        W35926   6.843   4.571   0.196  0.0022 -0.3143  0.0633
20458W        W35927  11.692   2.788  12.817  0.0378  0.0198  0.2523
20459W        W35928   2.429  18.494   0.487 -0.1784 -0.1550 -0.1435
20460W        W35929  14.061  12.482  11.714 -0.1809 -0.1923 -0.1427
20461W        W35930  10.060   3.183   2.376 -0.1053 -0.1449  0.1145
20462W        W35931  16.636  10.815   4.063  0.2124  0.1330  0.1212
20463W        W35932  13.809   2.541   3.848  0.2283  0.0626 -0.1155
20464W        W35933  10.485  10.209  11.972  0.1784 -0.1753 -0.0752
20465W        W35934  10.298  17.754   0.810 -0.0365 -0.0707  0.2105
20466W        W35935  17.687   4.738   2.564  0.1487  0.0668 -0.0961
20467W        W35936  13.375  16.308   4.172  0.2523 -0.2727  0.1197
20468W        W35937  13.786  14.819  14.752 -0.1175 -0.2569  0.1038
20469W        W35938   9.746   9.374   2.623 -0.0282 -0.2214 -0.0082
20470W        W35939   4.548  17.754   3.679 -0.1379 -0.1011 -0.2827
20471W        W35940   4.398   0.125   0.647 -0.0510  0.4700  0.0915
20472W        W35941   9.735  11.005   4.724 -0.0338 -0.0057 -0.0761
20473W        W35942   2.456  10.049  11.331 -0.0831  0.0204  0.0244
20474W        W35943  11.813  11.345  12.898 -0.1098 -0.0644  0.3091
20475W        W35944   8.682  17.335  10.611 -0.1887 -0.0180 -0.0172
20476W        W35945   0.073  16.027  13.008  0.1303 -0.1535  0.2326
20477W        W35946  14.016   6.032  13.749 -0.0826  0.2917  0.1417
20478W        W35947  15.904  13.273   2.225 -0.0626  0.0041  0.0374
20479W        W35948   6.328   3.147  11.483  0.1745 -0.0916  0.2144
20480W        W35949   2.318   2.817  13.172  0.0435 -0.0627 -0.2639
20481W        W35950  14.341  14.621  11.296  0.2398 -0.1737 -0.0643
20482W        W35951  11.234  17.579   2.328 -0.0145 -0.4105 -0.2334
20483W        W35952  13.914  11.164   2.353  0.0053  0.1028  0.1490
20484W        W35953  18.041   8.678   1.318  0.2099  0.0985 -0.0510
20485W        W35954   9.009  16.644  11.375 -0.0368 -0.1781  0.0874
20486W        W35955  14.440   3.384  11.817 -0.1220 -0.1020 -0.1029
20487W        W35956   9.485   7.523  14.946  0.3164  0.3413  0.0658
20488W        W35957   1.868  10.061  10.692  0.0542 -0.3323  0.3059
20489W        W35958   9.707  16.544   0.077  0.2947 -0.0202  0.0250
20490W        W35959  16.112   7.861  11.539  0.1068  0.0896 -0.1628
20491W        W35960   7.679   8.074   3.310 -0.1566 -0.2363  0.4016
20492W        W35961  11.172   5.292   0.850  0.0208 -0.0274 -0.3656
20493W        W35962   1.148  10.881  13.697 -0.0413  0.0224 -0.1837
20494W        W35963  14.758  11.967  11.229  0.3088 -0.0022 -0.1712
20495W        W35964   3.309  17.541   4.102 -0.0987  0.1819 -0.1707
20496W        W35965   8.264   6.099   5.047 -0.5712  0.2147  0.0260
20497W        W35966   5.826  17.021  12.594  0.0353 -0.3092  0.4182
20498W        W35967  15.330  17.973  15.105 -0.1798  0.0106 -0.5260
20499W        W35968  16.929   4.073   2.372  0.2767 -0.0532  0.0420
20500W        W35969  11.869  12.177  10.954 -0.0863  0.0917  0.2080
20501W        W35970   6.752   4.579   1.962 -0.1988 -0.0345 -0.0085
20502W        W35971   7.123   1.240   5.292  0.1432  0.2751  0.1584
20503W        W35972  11.907  12.019   4.725  0.4318  0.2703 -0.0130
20504W        W35973  15.097  15.429   0.435  0.1577 -0.3812 -0.0598
20505W        W35974   9.477   8.548   3.139 -0.1518 -0.0377 -0.0134
20506W        W35975  15.857   9.925  12.735  0.1154  0.2062 -0.1921
20507W        W35976  18.195  10.808   4.895  0.1666  0.1756  0.0800
20508W        W35977   6.705  14.834   1.904 -0.0307 -0.0559 -0.1178
20509W        W35978   3.552   5.372   1.276  0.3710 -0.0731  0.2777
20510W        W35979  12.623   6.066  14.846 -0.0567  0.0308  0.1015
20511W        W35980   6.991  14.058  12.020  0.2096  0.0506 -0.2070
20512W        W35981   7.231  14.514   3.741 -0.0554 -0.2626  0.1787
20513W        W35982  10.028   0.756  12.403 -0.1499  0.2091 -0.0672
20514W        W35983   9.021  12.644   0.080  0.0520 -0.0859 -0.0540
20515W        W35984   0.346  15.158   3.107 -0.0510 -0.3124 -0.3324
20516W        W35985  17.050   4.169  12.309  0.2813  0.1421 -0.1390
20517W        W35986  18.377  18.359  14.440  0.0806 -0.1522 -0.1191
20518W        W35987   2.548   6.992  12.700 -0.1605 -0.0738  0.1998
20519W        W35988   6.382   2.234  12.124  0.4259 -0.0224  0.0184
20520W        W35989  18.414   0.808   0.817 -0.0076 -0.1996 -0.2686
20521W        W35990   9.271  11.018   3.709  0.0232  0.0958 -0.0387
20522W        W35991   5.045  16.942   0.775 -0.0416 -0.1235 -0.2557
20523W        W35992   1.641  11.214  15.012  0.1300  0.2222 -0.1692
20524W        W35993   8.039  16.442   1.673 -0.1412 -0.1110  0.1957
20525W        W35994   9.759   5.250   4.874 -0.0823 -0.0512  0.3267
20526W        W35995   2.225  18.031   3.651  0.1327  0.0038  0.3154
20527W        W35996   8.095   4.821   5.606  0.0401 -0.2840  0.0175
20528W        W35997  18.264  10.231  13.824 -0.1568  0.1044  0.1321
20529W        W35998  18.042  14.081  15.580 -0.0861  0.1772 -0.4633
20530W        W35999   4.285  10.418   1.552 -0.1211  0.1046  0.3691
20531W        W36000   8.657   4.594  11.514 -0.2346 -0.0188 -0.0864
20532W        W36001  12.944   2.014  11.627 -0.0147 -0.1728 -0.1953
20533W        W36002  11.520   4.614   4.594  0.0991 -0.0851  0.0849
20534W        W36003  10.226   5.294   1.313 -0.2418 -0.0592 -0.0123
20535W        W36004  17.966  12.885  13.865 -0.0602  0.0220  0.0445
20536W        W36005   7.398  12.474   1.217  0.0337  0.0728 -0.0393
20537W        W36006  18.100  14.191   4.997  0.0372 -0.0488 -0.2459
20538W        W36007  18.169   0.150  11.481  0.1740  0.0385 -0.0874
20539W        W36008  13.314   7.557  12.486  0.3907 -0.0713  0.0944
20540W        W36009   0.474  13.689  14.901 -0.2596 -0.0305  0.1989
20541W        W36010   2.651   9.187  12.530 -0.2271 -0.1038  0.0374
20542W        W36011  13.966  12.266  12.774 -0.1222  0.2318  0.0353
20543W        W36012  11.512  14.417  11.105  0.0023 -0.1722  0.1648
20544W        W36013   8.142   5.992   2.448 -0.0861 -0.5420  0.0343
20545W        W36014   4.514   1.920   1.999 -0.3561  0.0484 -0.1931
20546W        W36015  12.292  18.228   3.137  0.0363 -0.1664  0.1363
20547W        W36016  11.515   0.997  11.269  0.3040 -0.0150 -0.0768
20548W        W36017  11.549   2.726   2.997 -0.0587 -0.1009  0.1748
20549W        W36018  14.398   7.639  14.345  0.1005  0.4360  0.1045
20550W        W36019   7.189   3.237   5.061 -0.1606  0.0335 -0.0414
20551W        W36020   9.131  13.224   0.222  0.1979  0.1609  0.1255
20552W        W36021  17.793   4.875  14.581  0.0355 -0.3480  0.1279
20553W        W36022   4.641  12.811  11.585 -0.0288 -0.1163  0.0642
20554W        W36023  18.355  13.106  13.508 -0.2438  0.1651  0.0615
20555W        W36024   1.923  12.000  11.956 -0.3223  0.0572 -0.1272
20556W        W36025   4.378   9.651  15.131 -0.3686  0.0840  0.2703
20557W        W36026   0.285  12.771   4.626  0.0109 -0.0819  0.1139
20558W        W36027  11.793   2.381  12.301 -0.0271 -0.1102 -0.3090
20559W        W36028  14.891  17.878   1.130 -0.0367  0.0331  0.2138
20560W        W36029  11.359  12.418   1.638  0.1908  0.0412  0.4853
20561W        W36030  16.497   9.026   4.336 -0.2070 -0.0700 -0.2489
20562W        W36031   5.190   0.790   2.382  0.1765  0.1710  0.0693
20563W        W36032   0.932   3.101   3.384 -0.0734 -0.1108 -0.1087
20564W        W36033  12.023   1.812   1.531 -0.1508  0.0336 -0.4457
20565W        W36034   1.333  17.755   5.366 -0.2019 -0.0011  0.3972
20566W        W36035   7.273  12.351   3.699 -0.2765 -0.2646 -0.1658
20567W        W36036   7.129  13.447  12.507  0.0775  0.0509  0.2542
20568W        W36037   4.351  17.319  15.382  0.0341  0.0640 -0.1781
20569W        W36038  13.805   5.714  12.049  0.1149  0.1155  0.0578
20570W        W36039   7.112  17.484  14.728  0.1087 -0.1536 -0.1212
20571W        W36040   9.216  13.015  12.306  0.1297 -0.0026 -0.1727
20572W        W36041  10.267   5.266  14.018  0.2149 -0.0209 -0.0487
20573W        W36042  17.474   4.910   4.422 -0.0343 -0.0857 -0.3341
20574W        W36043   6.738  15.837   1.549 -0.2412 -0.0043 -0.0573
20575W        W36044  13.072  16.352   0.986 -0.1757  0.0162 -0.2726
20576W        W36045  11.149  10.656  12.465 -0.2786 -0.1844  0.2764
20577W        W36046  14.196   7.514  11.140  0.1323 -0.0731  0.1029
20578W        W36047   5.914   5.398  14.839  0.4553 -0.0235  0.0343
20579W        W36048   7.098  11.142   2.372 -0.1802  0.2679  0.1195
20580W        W36049   1.742   6.177   2.697  0.0079  0.2838  0.0648
20581W        W36050  14.528   5.672   0.089 -0.3757 -0.2486  0.1263
20582W        W36051   2.766  10.318  14.948 -0.3592  0.2869  0.0636
20583W        W36052  10.299   7.355   0.705  0.2673 -0.2940  0.1375
20584W        W36053   7.537   2.998   0.409 -0.0055 -0.1295 -0.2772
20585W        W36054   1.027  10.464  10.597  0.0764 -0.2054 -0.0454
20586W        W36055   5.302   8.359  13.734 -0.4765 -0.2152 -0.3341
20587W        W36056   8.262  10.887   1.779  0.0408  0.0338  0.0472
20588W        W36057  16.309   3.569   4.618  0.0315  0.1745 -0.0464
20589W        W36058   6.136  11.205  15.024  0.2427 -0.1182 -0.0329
20590W        W36059  14.011  10.843  13.687  0.1514 -0.0045  0.1330
20591W        W36060  18.490   4.253   2.802 -0.0514 -0.3824  0.0529
20592W        W36061   8.895   1.255   4.829 -0.0411 -0.1280 -0.1750
20593W        W36062   3.062   0.175   4.009  0.0277 -0.0255  0.2250
20594W        W36063   5.530  14.596   1.547  0.0176  0.0382  0.0046
20595W        W36064   8.094   4.693  12.598  0.1411  0.3161 -0.3890
20596W        W36065  17.830  11.763  10.991  0.0246  0.2986 -0.0751
20597W        W36066  14.875  11.302   1.301 -0.0447  0.2060  0.1148
20598W        W36067   1.037   3.749   3.670 -0.0975 -0.2940 -0.2537
20599W        W36068   9.777   2.957  15.739 -0.1171  0.0734 -0.2912
20600W        W36069   4.027  14.981   1.062 -0.1033 -0.2255  0.0364
20601W        W36070   6.952  14.425   0.929 -0.0470 -0.1884  0.1467
20602W        W36071   2.124   4.392  13.326  0.0667 -0.2328  0.0941
20603W        W36072  17.261  10.003  11.134  0.1524  0.0332  0.0644
20604W        W36073  10.568  11.470   5.378 -0.0161 -0.0261  0.0057
20605W        W36074   9.174  18.262   2.788 -0.2096  0.0819  0.1116
20606W        W36075  12.879  10.625  14.812 -0.2113  0.1643 -0.0052
20607W        W36076   8.552  17.721   3.221  0.1988 -0.0925 -0.0418
20608W        W36077  18.156   6.264   9.424 -0.0919 -0.0478  0.1807
20609W        W36078  16.158   7.794   1.678  0.0507 -0.0365  0.0348
20610W        W36079   9.906   3.844  11.316 -0.2630  0.1290 -0.0361
20611W        W36080  14.684  15.945  12.676 -0.1411  0.0814 -0.1269
20612W        W36081  15.268   0.978  11.470 -0.1502 -0.0751 -0.0482
20613W        W36082   2.516  18.573  13.056  0.2890  0.1478  0.1638
20614W        W36083  11.357   7.701   2.958 -0.1023 -0.1385  0.1354
20615W        W36084  13.858   5.459  14.947 -0.0972 -0.0957  0.1184
20616W        W36085   7.036  14.089  15.770  0.3733 -0.2613 -0.0812
20617W        W36086  17.279   2.336   1.083  0.0905  0.0498 -0.1621
20618W        W36087   7.085  14.040  14.788  0.0698  0.0076 -0.2193
20619W        W36088   3.389  15.054  14.708 -0.1266  0.1259 -0.1550
20620W        W36089   5.999  13.945  14.547 -0.0644 -0.1897 -0.1948
20621W        W36090   2.868   4.316  14.894 -0.3028 -0.0269 -0.4489
20622W        W36091  10.882  15.698   2.680 -0.1133  0.1279  0.3811
20623W        W36092   7.556  15.387   0.777  0.0836  0.2752  0.1277
20624W        W36093   0.482  18.518   5.455  0.0432  0.1670 -0.2063
20625W        W36094  10.484   9.585   3.297  0.1946 -0.2740  0.2652
20626W        W36095   6.689  12.401  14.133  0.1052  0.1718 -0.2728
20627W        W36096  12.327  11.903  13.282  0.2727 -0.0811  0.2852
20628W        W36097   1.774  18.090   4.884 -0.0578 -0.1728 -0.0812
20629W        W36098  14.707   5.473  14.918  0.0978  0.1487  0.0150
20630W        W36099   4.639  10.476  13.211 -0.0134  0.0351  0.4681
20631W        W36100  10.257   4.071   1.297 -0.0363  0.1490 -0.2992
20632W        W36101   0.588  18.335   3.472 -0.2343 -0.0150 -0.0024
20633W        W36102   3.885   7.300   0.420 -0.0286  0.2203  0.1190
20634W        W36103   9.889   1.490   5.691 -0.1202  0.2169 -0.1028
20635W        W36104  10.641  17.782   2.984  0.2327  0.0380 -0.0395
20636W        W36105  16.383  15.546  10.414 -0.0422 -0.0321  0.0974
20637W        W36106  14.491   1.634   3.045  0.2280  0.0853  0.2487
20638W        W36107  18.152   2.250   5.182 -0.2022  0.3672 -0.0156
20639W        W36108   1.990   9.413   1.880 -0.1741 -0.3989  0.1327
20640W        W36109   0.117  16.196  11.272 -0.3187  0.0591  0.0320
20641W        W36110   7.747  10.732  10.345 -0.0739  0.1024  0.0088
20642W        W36111   0.042   1.673   1.449  0.0435  0.1507  0.2955
20643W        W36112  18.141   4.205  15.728 -0.1679 -0.0246  0.3162
20644W        W36113  16.915  12.026   4.644 -0.0905 -0.0448 -0.0376
20645W        W36114  13.000   5.709   0.914  0.2684  0.0763  0.0499
20646W        W36115   4.650   5.190  15.596  0.0387 -0.2326 -0.1560
20647W        W36116  16.011   3.152  13.639  0.0253 -0.1045 -0.2086
20648W        W36117   2.329  13.720  11.062 -0.0025  0.0370 -0.4645
20649W        W36118  13.741  10.330   0.453  0.0383  0.0260 -0.0767
20650W        W36119   1.551   4.602   1.415  0.1372 -0.1439  0.1812
20651W        W36120   6.389   0.147   2.005  0.1111 -0.1100 -0.2877
20652W        W36121  13.330  13.105   1.071 -0.4070  0.1569 -0.0468
20653W        W36122   8.291   8.018   4.549  0.2036  0.0684  0.1640
20654W        W36123   8.515  13.066   1.576 -0.2533 -0.0542 -0.0479
20655W        W36124  10.202  14.564   0.943  0.2216 -0.0789 -0.1134
20656W        W36125  10.608  14.277  10.603  0.0199  0.0270  0.0880
20657W        W36126   6.034   7.014   4.612  0.0987 -0.0682 -0.0165
20658W        W36127  15.929   4.140  11.569 -0.0071  0.0104 -0.5129
20659W        W36128  16.249  14.155  11.288 -0.2187  0.1534 -0.1258
20660W        W36129  17.263   7.563   9.374  0.0782  0.1599  0.0755
20661W        W36130  13.571   9.768   3.632 -0.0357 -0.0540  0.0461
20662W        W36131   6.229   2.031  15.115  0.1826  0.0678 -0.0956
20663W        W36132  16.541   1.869  14.374 -0.2807 -0.3435  0.0570
20664W        W36133   5.400   9.919  11.121 -0.0987  0.0859 -0.1105
20665W        W36134   0.692   2.622  10.916  0.0678 -0.1260  0.2345
20666W        W36135  12.161   8.285  11.989  0.1644  0.3627 -0.0373
20667W        W36136   6.272  12.699  12.033 -0.1506 -0.0214 -0.1057
20668W        W36137   1.582   1.045   5.007 -0.0967 -0.2100 -0.0436
20669W        W36138  14.265   4.437  15.768 -0.1776  0.0072 -0.0926
20670W        W36139   4.292  16.625   4.489 -0.1027  0.0865  0.0492
20671W        W36140  12.116  10.060   0.988  0.1652  0.2637  0.5000
20672W        W36141  10.909   3.476   2.030 -0.1474 -0.2368 -0.0682
20673W        W36142   9.402   1.516   3.818  0.0316  0.0090  0.1298
20674W        W36143   8.082  14.194   4.896  0.1208  0.0585 -0.0049
20675W        W36144  18.486  16.353   3.696 -0.0262 -0.0174 -0.0885
20676W        W36145  12.705  16.037   0.826 -0.0123 -0.0308 -0.0551
20677W        W36146  11.435  11.736  11.757  0.1970  0.4167  0.3155
20678W        W36147   8.133   5.773  13.749  0.2870 -0.2690  0.0998
20679W        W36148   6.767   9.407   0.873  0.0426  0.4831  0.1787
20680W        W36149   1.493  10.085   4.403 -0.1005  0.1285 -0.1863
20681W        W36150   3.575   6.885  10.952 -0.0152 -0.2371 -0.3076
20682W        W36151   4.819   7.017   2.955 -0.2128  0.0616  0.1291
20683W        W36152   1.508  14.375  10.958  0.1977  0.1208 -0.3860
20684W        W36153  17.470   9.504  14.652 -0.1482  0.0461  0.2247
20685W        W36154   6.275  16.240   1.614  0.1919 -0.1554 -0.2446
20686W        W36155  11.847  10.605   3.287 -0.1425 -0.3395  0.0299
20687W        W36156   2.552  18.247  15.770  0.0279 -0.1055  0.1401
20688W        W36157  11.697   3.248  12.584 -0.0090  0.2975 -0.4481
20689W        W36158   8.063  10.799  14.806 -0.2397  0.0856  0.1141
20690W        W36159   2.912   6.641  10.870 -0.2574  0.0348 -0.0684
20691W        W36160  14.709  11.051  15.225 -0.1432 -0.2239 -0.1921
20692W        W36161   2.242   1.030  13.486 -0.3972 -0.0932  0.4338
20693W        W36162   0.806   3.769  11.897 -0.0051  0.0973  0.2320
20694W        W36163  16.201  11.924  15.305  0.0912 -0.1041 -0.0484
20695W        W36164   2.659  16.447   5.434  0.0551 -0.3509  0.0304
20696W        W36165   6.845  17.129   1.372  0.0364  0.1162 -0.0756
20697W        W36166   0.266   2.225  13.725  0.0502  0.1742  0.3050
20698W        W36167   2.628   4.225  13.311  0.0378 -0.0360 -0.1987
20699W        W36168  15.727   4.430  12.671 -0.0606  0.1990  0.0478
20700W        W36169  18.308   4.477   9.970 -0.1637  0.3266  0.1529
20701W        W36170   6.556   7.593  10.840  0.0220 -0.0428 -0.1966
20702W        W36171   2.910   7.504  12.033 -0.0467  0.0373  0.1866
20703W        W36172  16.698  14.808  13.482 -0.0199  0.0191 -0.1975
20704W        W36173   6.935  10.535   2.951  0.2638  0.1749 -0.5066
20705W        W36174   2.680   9.817   3.735 -0.3237  0.0621 -0.3635
20706W        W36175   1.425   7.298   5.016  0.0766 -0.2540 -0.2400
20707W        W36176   6.978  10.686  15.083 -0.1120  0.1281  0.1604
20708W        W36177   9.728  16.826  14.199  0.0569  0.1524  0.0109
20709W        W36178   7.830  17.423   4.520 -0.0062  0.1999 -0.1079
20710W        W36179   0.169   4.953  15.679 -0.2698 -0.2078  0.0788
20711W        W36180   6.597   4.074   0.342 -0.2428 -0.3435  0.3467
20712W        W36181   8.413   3.409   1.199  0.0980  0.2622 -0.0369
20713W        W36182   4.733  15.169   1.904  0.3592  0.1864  0.2757
20714W        W36183   2.295   7.423   1.699  0.3519 -0.1827 -0.0060
20715W        W36184   4.965  10.435  14.341 -0.1874  0.1593  0.4484
20716W        W36185  12.040   1.097   4.383 -0.1651 -0.0557  0.0586
20717W        W36186   2.453  10.858  13.619 -0.1601 -0.1277 -0.0395
20718W        W36187   5.468   7.095   4.439 -0.0368 -0.0556  0.0470
20719W        W36188   7.485   5.330  13.421 -0.0807  0.1285  0.1218
20720W        W36189   8.398   9.526   1.134 -0.2499 -0.1565  0.0890
20721W        W36190  12.046  11.923   5.507  0.2381 -0.0760  0.0356
20722W        W36191  12.388   5.482  10.815  0.2365  0.1604 -0.1811
20723W        W36192  14.798   5.541  11.463  0.3367 -0.0168  0.3552
20724W        W36193  12.960  10.876   5.269 -0.0359  0.1920  0.0636
20725W        W36194   8.570   4.053  12.280 -0.1045 -0.1788  0.0615
20726W        W36195   9.528  10.025  12.077  0.1522  0.0746  0.0076
20727W        W36196   9.288  16.718  12.219 -0.1633 -0.0386  0.1723
20728W        W36197   7.374   8.980   0.510 -0.1089  0.0608 -0.5091
20729W        W36198   5.599  16.606  14.808 -0.1026 -0.0800  0.0572
20730W        W36199  14.078   9.830  14.897 -0.0206  0.2227 -0.0996
20731W        W36200   5.438   9.660   1.942  0.4680 -0.1917 -0.0387
20732W        W36201   5.652   0.979  12.246  0.0013  0.1195  0.0802
20733W        W36202   7.079  11.875   2.179  0.0080 -0.1558  0.0072
20734W        W36203  13.804   4.411  11.222  0.0834  0.0696 -0.0818
20735W        W36204  12.303   8.140  13.386  0.0799  0.1695 -0.0852
20736W        W36205  14.204  13.461   2.136  0.1547  0.1195 -0.3016
20737W        W36206  11.446  14.140  12.351  0.2857  0.0002 -0.1614
20738W        W36207   8.895  12.834  13.544  0.1400 -0.0348 -0.4691
20739W        W36208  10.691  13.758  13.454 -0.2719 -0.1337 -0.2879
20740W        W36209   5.235  15.714   5.314 -0.1060  0.0812 -0.0685
20741W        W36210   8.416  11.687   2.285 -0.1048 -0.2576 -0.0422
20742W        W36211   0.927   9.351  13.739 -0.0077 -0.0441 -0.0515
20743W        W36212   6.640   7.574  15.462  0.1083 -0.2182  0.3219
20744W        W36213  14.812   5.416   3.921  0.2572 -0.0753  0.4776
20745W        W36214  12.810  17.198  14.865  0.0335  0.0044  0.0681
20746W        W36215  17.953  17.062   4.600  0.0770 -0.0537 -0.2347
20747W        W36216   3.420   9.426   3.529 -0.0199  0.2941  0.2033
20748W        W36217   3.927  18.133   2.511 -0.1238 -0.0375  0.1434
20749W        W36218   6.129   0.147   1.499 -0.0658 -0.1893 -0.2065
20750W        W36219   2.038  16.456  15.765 -0.0957  0.1839  0.0960
20751W        W36220  17.383   4.938  14.881  0.0790 -0.1488  0.0617
20752W        W36221  14.669  10.975   2.367 -0.1574  0.2469 -0.0265
20753W        W36222  12.563   1.495   6.608 -0.0030 -0.0252  0.1693
20754W        W36223   5.546   8.748  11.149 -0.0862 -0.1549 -0.3062
20755W        W36224  14.812  16.370   5.217 -0.0049 -0.0116  0.1457
20756W        W36225  17.266   2.720   2.912 -0.0973 -0.2374 -0.1410
20757W        W36226  12.981  11.420  12.223 -0.1349 -0.0119  0.2354
20758W        W36227   5.334   0.426  15.229  0.0043  0.0110  0.0449
20759W        W36228   3.865   3.980   4.595  0.1378  0.2086  0.1873
20760W        W36229  17.904  14.747   0.918 -0.1561 -0.0734 -0.0844
20761W        W36230   5.067   3.024  14.947 -0.0683 -0.2346 -0.0401
20762W        W36231  10.643  14.577   3.546  0.2275 -0.2018  0.1135
20763W        W36232   7.679  16.533   5.057  0.3407 -0.0159  0.0384
20764W        W36233  13.298  15.982   3.733 -0.0977 -0.3271  0.0246
20765W        W36234  13.670   5.988  14.150 -0.4909 -0.0559 -0.2020
20766W        W36235   6.011  15.792   4.336 -0.0516 -0.1391  0.1519
20767W        W36236   0.343  14.959   5.291 -0.4738  0.1405  0.3728
20768W        W36237   7.348   9.188  10.903 -0.2641  0.3250  0.0365
20769W        W36238  12.394  14.750   1.275  0.3827  0.0187 -0.0782
20770W        W36239   7.672  14.604   2.264 -0.2004 -0.3624 -0.0467
20771W        W36240   1.263   8.987  15.231  0.0676  0.0835 -0.0735
20772W        W36241  11.741  10.618   2.293 -0.1412  0.0071 -0.0440
20773W        W36242   9.346  15.881   0.300  0.0345 -0.0182 -0.0780
20774W        W36243  15.877   2.254  13.508  0.1050  0.2062  0.0455
20775W        W36244  18.487  16.047   3.321  0.2102 -0.2838 -0.1495
20776W        W36245  12.284  14.151   0.642  0.2259  0.3606  0.2074
20777W        W36246  12.387   0.487   0.145  0.1662  0.2433  0.1234
20778W        W36247   4.859   7.486  12.716 -0.0215 -0.1341 -0.0245
20779W        W36248  18.349  10.338   4.817 -0.1011 -0.1803  0.1221
20780W        W36249   1.294   4.741  13.544 -0.0546 -0.1027 -0.0713
20781W        W36250  11.313   5.042   1.364 -0.0344 -0.3596  0.3050
20782W        W36251  15.148  15.216  14.299 -0.3528  0.2254 -0.0898
20783W        W36252  17.458   2.825   4.221 -0.2423  0.0185 -0.0547
20784W        W36253   8.754  12.745  15.137  0.0531  0.1181  0.3306
20785W        W36254  13.448   2.904   5.252  0.1841  0.0417 -0.0639
20786W        W36255  12.410  17.502  13.276  0.0065  0.0211  0.0009
20787W        W36256   2.484   5.572  14.497  0.0756  0.1673  0.0048
20788W        W36257   7.526  16.231   1.807 -0.2090 -0.0099  0.1676
20789W        W36258  10.554   4.305  10.902 -0.2489 -0.1295  0.1692
20790W        W36259   3.407   7.759  13.609 -0.0339  0.0854  0.3296
20791W        W36260   6.528  13.000  11.757  0.1188  0.0278 -0.1751
20792W        W36261   6.565  14.943  12.097 -0.1205  0.0654 -0.1680
20793W        W36262  12.966   4.269   5.604  0.1168 -0.0042  0.1872
20794W        W36263   6.088   5.051  11.990  0.0293  0.0422 -0.1568
20795W        W36264  11.329   9.392   4.613  0.0805 -0.2027  0.1775
20796W        W36265   6.183  17.924   3.090 -0.2877  0.1088  0.0939
20797W        W36266  13.036  14.055  11.434 -0.0074 -0.0994  0.1819
20798W        W36267   6.160   1.886   4.222 -0.0558  0.1309 -0.0269
20799W        W36268  14.038  17.734   4.707  0.3114  0.1949  0.1519
20800W        W36269  10.009   4.535   2.511 -0.2085 -0.2028 -0.2277
20801W        W36270  15.776  13.659  15.634  0.2031 -0.2087 -0.0260
20802W        W36271   8.249   3.187  11.032  0.1548 -0.1544  0.0354
20803W        W36272   6.171   8.005   3.080 -0.0817  0.0618  0.0963
20804W        W36273  10.872   3.325   3.033  0.1007  0.0025  0.1323
20805W        W36274   1.871   5.421   4.965 -0.0416  0.0450  0.0546
20806W        W36275  17.295   7.505   3.815 -0.1590  0.1704  0.0049
20807W        W36276  15.994  15.319  15.364  0.0016 -0.0671  0.0266
20808W        W36277   8.600   8.249  13.929  0.1623  0.1075  0.1994
20809W        W36278  18.401  11.579  14.844  0.0807  0.1281 -0.2376
20810W        W36279   1.122   0.221   2.541  0.0789  0.4117  0.1835
20811W        W36280  15.694  16.391   2.629 -0.0216 -0.0466 -0.1560
20812W        W36281   9.345  18.377  15.753  0.2575 -0.1412  0.0578
20813W        W36282  18.050   0.455   1.609  0.3166 -0.0691 -0.3004
20814W        W36283  13.626   8.001  11.892  0.2889 -0.4275  0.0653
20815W        W36284   4.865  10.654  15.600  0.3579  0.1191 -0.0681
20816W        W36285   2.674  18.579   4.873 -0.1290 -0.0336 -0.0257
20817W        W36286   1.734  11.341   5.011 -0.4238 -0.0660  0.2666
20818W        W36287   1.847   3.571   3.500  0.0585  0.0547  0.3145
20819W        W36288   4.436  14.841  13.536  0.1684 -0.2046  0.1767
20820W        W36289   6.642  16.279   3.645 -0.4862  0.0507  0.1620
20821W        W36290   5.689   3.662   0.364  0.0071 -0.3950  0.2127
20822W        W36291  12.775   4.094  13.053 -0.0509 -0.0514 -0.0043
20823W        W36292   3.150   1.845  13.935 -0.0056  0.0170  0.2361
20824W        W36293   2.481   7.657   1.193  0.0430 -0.0300  0.0817
20825W        W36294   7.737  10.369  14.799 -0.3363 -0.2544 -0.0892
20826W        W36295   9.788  17.904  13.783 -0.3423 -0.0625  0.0800
20827W        W36296  10.190   8.276  14.899  0.0641 -0.2219  0.2448
20828W        W36297  15.346  17.309  14.422  0.1534 -0.0649  0.1177
20829W        W36298   2.824   8.091   4.401 -0.0639  0.0497 -0.1662
20830W        W36299   4.093  12.588  10.304  0.1722 -0.2085 -0.3122
20831W        W36300  15.135   4.001   0.263  0.1975  0.0839  0.0599
20832W        W36301  18.591   2.254  11.922  0.0793 -0.1229  0.3082
20833W        W36302   5.158   6.626  15.757 -0.0505  0.1196  0.1751
20834W        W36303  10.232   8.034  14.329  0.4737  0.0328  0.1903
20835W        W36304   2.512   6.153  12.697 -0.1574 -0.1981  0.0524
20836W        W36305   4.642  10.855  10.368  0.0981 -0.0618  0.0968
20837W        W36306  12.275  15.118   3.924 -0.2965 -0.1537  0.0268
20838W        W36307  15.001   7.082  15.494 -0.0248 -0.2398  0.0963
20839W        W36308   2.039  13.880  13.824 -0.0061 -0.3670 -0.2587
20840W        W36309   0.672  10.189   0.010 -0.0590 -0.0925  0.1361
20841W        W36310  12.551  14.582   0.372 -0.0056  0.0457  0.0598
20842W        W36311  10.084   0.085   0.055 -0.0123  0.2714  0.0477
20843W        W36312  15.750   6.944   1.522  0.0715  0.1701  0.2341
20844W        W36313  17.029   5.255   4.487  0.0850 -0.0651  0.1552
20845W        W36314  18.150   2.160   0.086 -0.1178 -0.1578  0.2272
20846W        W36315  18.554   7.346   4.465  0.1028  0.0289 -0.1439
20847W        W36316  10.228  13.305   5.535  0.1010  0.1618  0.0339
20848W        W36317  17.404   8.214   0.697  0.0367 -0.1392  0.4262
20849W        W36318  10.920  13.389   5.008 -0.2603  0.1247  0.3646
20850W        W36319  10.753  14.558  12.775  0.0991  0.0554  0.3425
20851W        W36320  14.356  12.361   0.652 -0.0826  0.2605  0.0694
20852W        W36321  12.039  18.191  14.096 -0.2040 -0.3719 -0.0763
20853W        W36322   5.977  10.454   2.117 -0.1300 -0.1205 -0.0457
20854W        W36323  11.850  15.814  12.891 -0.0797 -0.1697 -0.2397
20855W        W36324  14.306   3.189   5.019 -0.2104 -0.0908 -0.0407
20856W        W36325  16.777  10.556  11.771  0.0143 -0.2494  0.0671
20857W        W36326   3.211   5.827   1.298 -0.1361  0.1243 -0.2240
20858W        W36327   0.260  17.573   5.420  0.2448  0.0575  0.2059
20859W        W36328   4.705   4.358   9.779  0.1094  0.1342 -0.0437
20860W        W36329   9.474  14.615  11.549 -0.1432  0.0433 -0.1043
20861W        W36330   8.271   2.744  12.278 -0.1148 -0.1794  0.0669
20862W        W36331  13.924  10.992  11.444 -0.0623 -0.1853  0.0200
20863W        W36332  11.520  16.892   3.483  0.1343  0.5497  0.0321
20864W        W36333  16.823   9.289   1.877 -0.1733 -0.1642  0.0066
20865W        W36334   6.396   7.066   4.233 -0.1155 -0.1191 -0.2102
20866W        W36335  13.869  12.153   0.614 -0.2532  0.1083  0.1813
20867W        W36336   4.781   7.240   2.506 -0.0715 -0.1349  0.1895
20868W        W36337   6.270  13.078  14.060  0.0803  0.0478  0.0286
20869W        W36338  13.884  15.850   0.030 -0.2209 -0.0255 -0.0786
20870W        W36339  13.077  10.431  11.470 -0.1836 -0.4086  0.1921
20871W        W36340  15.877   9.665   3.018 -0.2925  0.1876  0.0493
20872W        W36341  14.641   6.844  11.383  0.1265  0.4075  0.1034
20873W        W36342  12.788  12.115   4.856  0.0045 -0.0860 -0.2437
20874W        W36343   1.282   4.797   3.233 -0.1113 -0.0165  0.0000
20875W        W36344   0.060  13.662  10.923  0.1013  0.3680 -0.0159
20876W        W36345   6.219  16.177  13.225 -0.1073  0.2455 -0.2399
20877W        W36346   7.469  15.878  14.912 -0.0273 -0.0065  0.0403
20878W        W36347  17.488  10.157  15.575 -0.1420  0.2100  0.3609
20879W        W36348  10.132   9.675  10.913 -0.3483  0.3014 -0.1311
20880W        W36349  16.923  16.818  13.304 -0.0355  0.2223 -0.1046
20881W        W36350   6.000  17.433  12.356  0.2033  0.2340 -0.0251
20882W        W36351  17.651  16.885   4.253 -0.0955  0.2653 -0.1019
20883W        W36352  11.277  12.690   3.371 -0.2219 -0.1396  0.1632
20884W        W36353   1.999   8.194  11.776  0.1700 -0.0174  0.2795
20885W        W36354   8.122  14.092   2.403  0.1992 -0.0713 -0.3894
20886W        W36355  13.403   0.263  11.016  0.0163 -0.2279 -0.0911
20887W        W36356  17.183  18.060   1.610 -0.1011 -0.0590 -0.3042
20888W        W36357  17.215   3.698   4.655 -0.0533 -0.0382 -0.2247
20889W        W36358   5.833  16.711  12.215 -0.1036  0.3465  0.0241
20890W        W36359   6.522   3.035   4.443  0.1243 -0.2235 -0.1571
20891W        W36360   5.107   7.485  15.467  0.1661  0.4219 -0.1694
20892W        W36361   4.593   5.370   0.902 -0.3692 -0.1523  0.3176
20893W        W36362  15.194  12.297   5.258 -0.0714  0.0204  0.3525
20894W        W36363  13.353   9.302  14.780 -0.0321 -0.0564  0.0121
20895W        W36364   4.284   9.356  10.558 -0.0966 -0.0982 -0.0132
20896W        W36365   7.252  11.105   4.196 -0.0194  0.1425 -0.3334
20897W        W36366  17.360  16.851   2.033 -0.1442 -0.1145  0.0695
20898W        W36367  13.365  14.676   5.457  0.0434  0.0260  0.1670
20899W        W36368   7.612  15.252  12.019 -0.1794 -0.1473  0.0353
20900W        W36369   0.710   1.130  12.341 -0.2047 -0.2084  0.0023
20901W        W36370  15.063  12.944  15.391  0.0871 -0.0256 -0.4597
20902W        W36371   8.864   9.773   3.079  0.1882 -0.1117 -0.0386
20903W        W36372  13.930   6.329   2.676  0.0921 -0.1000 -0.0087
20904W        W36373  10.945   0.328   2.166  0.4013  0.1120  0.4131
20905W        W36374   3.952  17.687  12.644 -0.2106  0.0104 -0.0706
20906W        W36375   8.577  11.456   5.184 -0.1715 -0.1883  0.1163
20907W        W36376  14.290  17.943   2.800  0.0811 -0.3257  0.0141
20908W        W36377  10.296   7.247   5.884  0.0812 -0.0532  0.0685
20909W        W36378   4.765   1.869  13.624 -0.1068  0.3895  0.2861
20910W        W36379   1.231   1.024  11.522  0.1233  0.0182 -0.0228
20911W        W36380  18.205  14.725   3.246  0.0070 -0.2176 -0.3422
20912W        W36381   6.767   9.753  14.022  0.0426  0.1177  0.1572
20913W        W36382   3.113   0.233  10.571  0.2855 -0.4716  0.0135
20914W        W36383   5.791  17.614   1.417 -0.0040 -0.0172  0.1872
20915W        W36384  12.712   2.710   1.705 -0.2088 -0.0604 -0.1995
20916W        W36385   2.554   4.202  12.460  0.0945  0.0068  0.1688
20917W        W36386  18.442   8.381   1.500 -0.1063 -0.0535  0.2336
20918W        W36387   1.118   4.893  11.801 -0.1722 -0.0034 -0.1098
20919W        W36388  16.744  16.801   0.186 -0.0092 -0.2862  0.1795
20920W        W36389  17.206  13.321   4.649 -0.1277 -0.0847  0.0251
20921W        W36390   0.865  17.106   5.502 -0.1473 -0.0741 -0.0039
20922W        W36391   9.233   0.263  15.714  0.1750 -0.2826 -0.1868
20923W        W36392   2.889   1.766   2.389 -0.0433  0.0107 -0.0195
20924W        W36393  17.652   3.233   2.288  0.0445  0.1719 -0.1289
20925W        W36394  16.493  15.350  15.180  0.1546  0.2104  0.0471
20926W        W36395   0.221   8.925   2.709 -0.1862  0.1177 -0.2623
20927W        W36396  10.476  15.994  13.265 -0.1535 -0.0311  0.0489
20928W        W36397  13.381   9.576   4.994 -0.0668  0.1211 -0.0395
20929W        W36398  15.589  17.533  12.079  0.2652  0.2959 -0.0093
20930W        W36399   4.119  16.777  10.103  0.4654  0.1376  0.1821
20931W        W36400  16.429  16.772  11.675  0.1749  0.1262  0.1676
20932W        W36401  16.031   3.614  10.748  0.0602 -0.2065 -0.0837
20933W        W36402  16.038   6.260  14.347  0.0672  0.2361 -0.3972
20934W        W36403   1.528   8.394  12.250  0.1422 -0.0249 -0.3867
20935W        W36404  12.963  10.173  12.590 -0.0923  0.3800  0.0342
20936W        W36405   3.699  12.942  11.725 -0.0305 -0.1723  0.4103
20937W        W36406   8.441   4.916   0.222 -0.1526 -0.0211  0.2356
20938W        W36407   8.017  11.818  10.828 -0.1906  0.4982 -0.2509
20939W        W36408   5.786   0.835   1.755 -0.0344 -0.0514 -0.1502
20940W        W36409  16.187  16.703   5.230  0.1296 -0.1525 -0.3253
20941W        W36410  11.536   3.496   0.301  0.1272 -0.2244 -0.1544
20942W        W36411   0.218  12.372   2.144 -0.1285 -0.1066 -0.0523
20943W        W36412  15.369  11.152   4.715  0.1385  0.3254 -0.1614
20944W        W36413  14.001  12.282   5.001  0.0925  0.0551  0.1060
20945W        W36414  10.180  13.967   2.923 -0.1339 -0.2324 -0.1181
20946W        W36415   4.312  13.783  12.401  0.0437 -0.1628 -0.0507
20947W        W36416   4.313   8.182  12.377 -0.0585 -0.1279  0.0468
20948W        W36417  12.286  17.897   2.779 -0.2919  0.0532  0.1674
20949W        W36418   2.557  15.598  11.201 -0.3385 -0.0706  0.1074
20950W        W36419   6.740   6.844   2.312 -0.2300 -0.1843 -0.3535
20951W        W36420  16.443   1.875   3.062 -0.3510  0.0332 -0.1933
20952W        W36421  14.976   8.180   4.605 -0.2297 -0.1707 -0.0043
20953W        W36422   2.178  13.266   3.708  0.1171  0.1167  0.1730
20954W        W36423  15.486  13.036   0.489 -0.1316  0.1825  0.0290
20955W        W36424   6.500  17.299   4.255 -0.0457  0.3347 -0.1512
20956W        W36425  10.374  14.331  12.536 -0.3483 -0.0451  0.0071
20957W        W36426   4.199  12.483  14.718 -0.0190 -0.1019 -0.0595
20958W        W36427   5.585   5.143  14.606  0.2378  0.0177 -0.0820
20959W        W36428  13.329   8.002   1.544  0.1298 -0.1980  0.1537
20960W        W36429  16.058  13.507  14.454 -0.1069 -0.2319  0.2553
20961W        W36430  10.731   1.290   1.959  0.2959 -0.4161 -0.0863
20962W        W36431   7.324   2.978   5.867 -0.0529 -0.0592  0.0686
20963W        W36432  10.110   7.273  10.909  0.1761  0.1637  0.0140
20964W        W36433   0.596   0.864   1.632 -0.1441  0.2135 -0.3916
20965W        W36434  10.202  14.442  15.325  0.3852 -0.0965  0.1634
20966W        W36435  17.576   6.994  12.358 -0.0124  0.3301 -0.2978
20967W        W36436  17.576   0.246   0.680  0.2176 -0.0233 -0.0542
20968W        W36437   9.934  14.721   5.105 -0.2204  0.1016 -0.0986
20969W        W36438   8.901  10.186  13.863  0.2268 -0.2748  0.2845
20970W        W36439  14.103  18.297  12.776  0.0307 -0.0959 -0.2074
20971W        W36440   0.555  15.193   2.648  0.2052  0.0182 -0.3626
20972W        W36441   6.124  12.827   5.578 -0.1167 -0.1670  0.1916
20973W        W36442   4.463   3.905  11.712 -0.0933 -0.2260  0.0330
20974W        W36443   8.370   0.615   3.205 -0.0563  0.1597  0.0520
20975W        W36444   7.855  10.559   0.120  0.0182 -0.0837  0.4907
20976W        W36445   4.431  13.531  13.748 -0.0331  0.1988  0.3705
20977W        W36446   6.097  18.444  15.550  0.2715  0.1557  0.1970
20978W        W36447  13.501   6.209  11.546  0.2420 -0.0347 -0.0910
20979W        W36448   3.406   1.566  12.866 -0.0726 -0.0834  0.2983
20980W        W36449   6.468  18.296  14.719 -0.1138 -0.0498 -0.2469
20981W        W36450   5.153   5.331   4.710 -0.2098  0.0741  0.2920
20982W        W36451   7.588  12.247  12.317 -0.4335 -0.0300 -0.2228
20983W        W36452  13.813   8.431   2.366 -0.1869  0.0429  0.0901
20984W        W36453  11.827   7.945   5.348  0.0328 -0.2678 -0.5215
20985W        W36454   5.769   2.963  12.379 -0.1329  0.1391 -0.0315
20986W        W36455   6.854   9.730  15.289 -0.1813  0.0119 -0.0671
20987W        W36456  13.517  18.300   1.948  0.1475 -0.3229  0.1153
20988W        W36457   0.864  16.514  14.682  0.0769 -0.0820 -0.1403
20989W        W36458  15.202   8.033  15.084  0.0023 -0.1891  0.2325
20990W        W36459   1.885  10.021  12.660  0.3080  0.3404 -0.0168
20991W        W36460   9.146   3.868  12.936  0.0255  0.1911 -0.3228
20992W        W36461  10.254  15.491  13.895 -0.0989  0.3000 -0.0540
20993W        W36462   6.247   8.964  14.207  0.0015 -0.3502  0.1676
20994W        W36463  10.780   3.152   5.419  0.0036 -0.1595  0.0934
20995W        W36464  11.757   4.808   5.022  0.2981  0.1480  0.0556
20996W        W36465  18.096  10.021   4.419 -0.0129 -0.2414 -0.0004
20997W        W36466  14.831   9.274   0.898  0.2926 -0.1290  0.4247
20998W        W36467   4.671  16.691  15.421  0.0745 -0.3392 -0.0344
20999W        W36468   3.155   1.198   1.174  0.4411  0.1104  0.3721
21000W        W36469   0.570   4.832  11.224 -0.3122 -0.4521  0.1942
21001W        W36470   2.269   1.935   1.483 -0.0434  0.1811 -0.0222
21002W        W36471   8.029   0.461   5.367  0.2632  0.2358  0.1143
21003W        W36472   6.482   0.661   3.401 -0.2654 -0.1778  0.1634
21004W        W36473  16.801   7.279  14.126  0.1834 -0.0168 -0.2448
21005W        W36474   0.138   7.770   1.192  0.0447 -0.0288 -0.1121
21006W        W36475  13.927  12.114   3.996  0.1595  0.0364  0.2836
21007W        W36476   8.562  17.186   3.260 -0.1329  0.1830  0.0999
21008W        W36477   1.122   6.350   1.699  0.0141  0.1120 -0.0702
21009W        W36478  16.315   1.538   5.124  0.0470  0.0449  0.1494
21010W        W36479  10.293   6.453   0.983  0.2690 -0.3191  0.1023
21011W        W36480  12.866  16.777   3.803 -0.1372 -0.2418  0.4083
21012W        W36481  15.546   7.006   2.105  0.0277  0.4349 -0.0183
21013W        W36482   1.708   1.015   3.291  0.1170 -0.2101  0.0212
21014W        W36483   4.602  10.968  11.103 -0.0824 -0.1523 -0.0336
21015W        W36484   1.957   8.793   0.096 -0.1655 -0.3482 -0.2246
21016W        W36485  15.364   4.213  13.267 -0.2231  0.4196  0.0666
21017W        W36486   6.607   2.528   3.649 -0.0887  0.0987  0.1411
21018W        W36487   1.680   9.194   0.358 -0.4096  0.1499 -0.2388
21019W        W36488   8.599   4.579  14.322  0.2031  0.2340  0.0046
21020W        W36489   4.122   2.352   2.391 -0.1517 -0.1847 -0.2087
21021W        W36490   1.475  15.427   4.323  0.1458  0.0949 -0.0962
21022W        W36491   3.217   1.466  14.922  0.1071 -0.0427 -0.0092
21023W        W36492  10.659   3.338  14.588  0.0097 -0.2677  0.1534
21024W        W36493   2.808  11.897  13.257  0.0135  0.2170  0.2217
21025W        W36494   5.606   0.372  13.334  0.1523  0.0490 -0.3623
21026W        W36495  14.807  18.540  13.842  0.0662 -0.2348 -0.1099
21027W        W36496   2.900  13.383  15.154  0.1576  0.0752 -0.0754
21028W        W36497   2.510   0.532   4.205 -0.0131  0.0599  0.1173
21029W        W36498  12.446   5.376  12.922 -0.1647  0.2074  0.0306
21030W        W36499  14.541   6.062  14.196 -0.1492 -0.0427 -0.3935
21031W        W36500   0.557   2.986   3.939  0.1999 -0.0470  0.0894
21032W        W36501   8.748   6.199   4.833  0.1870 -0.2610 -0.3790
21033W        W36502  16.647   6.766  10.628 -0.1584 -0.0667 -0.0244
21034W        W36503  10.485   8.142   5.839 -0.1234  0.2436 -0.0129
21035W        W36504   2.643  16.827  12.525  0.0620 -0.0928 -0.1499
21036W        W36505   9.265  15.154   5.542 -0.0873 -0.2079  0.3013
21037W        W36506  12.265   0.161  12.374  0.1461  0.1978 -0.2750
21038W        W36507   0.247   2.324   4.439 -0.1010  0.2512  0.2107
21039W        W36508   6.362   4.456  15.749 -0.2805  0.0226 -0.1476
21040W        W36509  17.507  15.071   2.152 -0.2891  0.1343 -0.1756
21041W        W36510   6.002  14.242   4.512 -0.2571  0.3727  0.3129
21042W        W36511   8.370   8.490  13.551  0.1012  0.1334 -0.0401
21043W        W36512   3.451   5.213  13.269 -0.0393 -0.0649 -0.1124
21044W        W36513   2.480  18.229  14.363  0.0612  0.0270  0.0637
21045W        W36514  17.088  13.219  11.932  0.0689 -0.0635 -0.3929
21046W        W36515  15.555   4.381  14.072  0.0140  0.0985 -0.2137
21047W        W36516  13.298  10.669  12.513  0.4407 -0.3013 -0.0655
21048W        W36517  12.508   1.658  14.549  0.2307  0.3737  0.0493
21049W        W36518   9.775   0.677  13.285 -0.0485  0.0440  0.1103
21050W        W36519  10.080  14.792  10.152  0.0302  0.1015  0.3847
21051W        W36520   3.766  17.352   2.902  0.0189  0.0752  0.0265
21052W        W36521   1.327   3.066   2.671  0.3433 -0.0490 -0.0500
21053W        W36522  17.191  12.017   2.141 -0.0316 -0.2726  0.0876
21054W        W36523  17.218   9.438  11.297  0.2575  0.0162  0.1315
21055W        W36524  12.675   3.971   1.830  0.0589  0.0638 -0.1081
21056W        W36525   0.577  10.918   3.793  0.0027 -0.1765  0.1959
21057W        W36526   4.098   8.927   5.292 -0.0696  0.0626  0.2976
21058W        W36527  16.241  15.209   4.953 -0.1714 -0.2494 -0.0492
21059W        W36528   0.066  12.091  11.630  0.1137  0.0843  0.1916
21060W        W36529  12.007  17.514  12.272 -0.3469 -0.1765 -0.0891
21061W        W36530  11.420   5.592  11.021 -0.0527  0.1146 -0.0582
21062W        W36531   1.978   6.009  11.930 -0.0300 -0.1325 -0.0486
21063W        W36532   5.074   9.437   2.842 -0.0558 -0.2587  0.2062
21064W        W36533  11.966   1.083  12.907 -0.1348 -0.1027  0.0257
21065W        W36534   9.119  14.544  15.560  0.0669 -0.1085 -0.2510
21066W        W36535  18.598   5.911   3.924  0.0491 -0.0281 -0.0911
21067W        W36536  16.006   2.419   2.060 -0.0428 -0.1388  0.3733
21068W        W36537   6.299   6.675   5.211  0.0692  0.1687 -0.1500
21069W        W36538  17.017  11.537   2.262 -0.0169  0.0086 -0.1231
21070W        W36539   8.862   7.510   0.293 -0.0708  0.0038  0.0467
21071W        W36540  15.522  13.751   3.696 -0.0799  0.1423  0.4343
21072W        W36541  13.416  13.369  15.190  0.1776 -0.4885 -0.0785
21073W        W36542   6.699   7.203  13.836 -0.3449  0.2193  0.0913
21074W        W36543  15.529  14.982   3.118 -0.2154 -0.0085 -0.1196
21075W        W36544  18.171  13.244   4.116  0.0286 -0.2357  0.1535
21076W        W36545   1.485   3.053   9.899  0.1600  0.0191  0.0881
21077W        W36546   8.102   7.384  13.458 -0.0326  0.1665  0.2420
21078W        W36547  16.656  16.285   2.029  0.1386  0.0874 -0.2056
21079W        W36548   9.406   0.565   3.748 -0.2813 -0.2136 -0.1906
21080W        W36549  10.777  10.532  14.780 -0.2398 -0.3039  0.0373
21081W        W36550  15.618   8.298   0.873  0.1286  0.2186  0.2326
21082W        W36551   5.213   8.591   0.628  0.0040  0.0153 -0.0576
21083W        W36552   5.802   9.464   5.958  0.1251  0.0744 -0.0562
21084W        W36553   8.123   9.215   5.171  0.0129  0.2924  0.0635
21085W        W36554   6.944  17.810   4.965  0.2748 -0.0426  0.0131
21086W        W36555  14.006  11.318   4.173 -0.0877  0.0296  0.1768
21087W        W36556  10.898  11.262  11.024  0.0419  0.1282 -0.0311
21088W        W36557   3.500   5.448  12.060  0.3535  0.1813  0.2869
21089W        W36558  15.831   2.173   4.886 -0.1122  0.2756  0.2346
21090W        W36559  15.427   0.268   1.690  0.0931 -0.0510  0.2417
21091W        W36560  16.273   3.253   5.833  0.0281 -0.0002 -0.0315
21092W        W36561  15.049  13.213   0.526  0.2711 -0.1287 -0.1668
21093W        W36562   1.436   4.216  13.332  0.3312 -0.1990  0.1690
21094W        W36563  11.204   1.095   1.886  0.2832 -0.2525  0.1725
21095W        W36564   5.603  10.464   0.782  0.1903 -0.0194  0.3194
21096W        W36565   6.807  10.144  14.330  0.0146 -0.0410  0.0434
21097W        W36566  11.231   7.372  15.663 -0.1934 -0.3454 -0.0225
21098W        W36567  14.527  11.573  13.101 -0.0525  0.2052  0.1660
21099W        W36568   2.577   7.697   5.283  0.0280 -0.1793 -0.0783
21100W        W36569  14.781  10.701  12.100  0.0164  0.0705 -0.1073
21101W        W36570   3.494  15.670  14.174  0.1751  0.0339 -0.0550
21102W        W36571   6.793   6.138   5.291 -0.3842 -0.1826  0.1358
21103W        W36572  11.698   6.834   0.198 -0.0216 -0.0950  0.0355
21104W        W36573  10.671  17.949  12.307  0.1872  0.0803 -0.0095
21105W        W36574   5.173  12.335  10.817  0.1950 -0.1958  0.0631
21106W        W36575  15.732  13.847   5.376 -0.1526  0.0842  0.2429
21107W        W36576  15.275  13.218   1.951 -0.2056  0.1088 -0.4643
21108W        W36577  15.889  12.619   4.173 -0.0535  0.1027  0.1964
21109W        W36578  11.155   8.901  11.043  0.1374  0.0569  0.2931
21110W        W36579  14.699  10.488  12.578 -0.1785 -0.1034  0.1470
21111W        W36580  11.649  14.942  13.928  0.0706 -0.2103  0.0115
21112W        W36581   5.594   9.281  12.846  0.0848  0.2693 -0.2481
21113W        W36582  11.221   2.731   3.719 -0.2109  0.0681 -0.2059
21114W        W36583   1.508  12.959  14.066 -0.0066 -0.2099 -0.1545
21115W        W36584  16.983   6.520   3.967  0.0043  0.1839 -0.0796
21116W        W36585  13.607   1.408   3.427  0.1827  0.1459 -0.4428
21117W        W36586   8.107  18.005  12.507  0.0117 -0.1088 -0.0413
21118W        W36587   0.049   9.612  10.620  0.2100 -0.0219 -0.0690
21119W        W36588   9.722   9.647   1.490  0.2821  0.1912  0.1240
21120W        W36589  15.440   7.565   0.132  0.1506  0.2427  0.0035
21121W        W36590   6.474  12.178   2.942 -0.0818 -0.0632  0.0376
21122W        W36591  14.318  14.771  10.790  0.1025  0.1803  0.2325
21123W        W36592  15.953  10.091  15.488 -0.0606  0.3489  0.0363
21124W        W36593   3.985  14.192   0.518  0.2322 -0.0240 -0.0011
21125W        W36594   5.004   6.545   0.903  0.2232 -0.1478  0.1375
21126W        W36595   6.086   5.761   4.705 -0.0517  0.2170 -0.4164
21127W        W36596   4.955   0.114   0.757 -0.1619 -0.0811  0.0134
21128W        W36597  14.956   5.891   3.682 -0.3569  0.0042 -0.1197
21129W        W36598   7.123  14.045   0.574  0.1251 -0.3814 -0.2835
21130W        W36599  18.215   1.022  14.025  0.1533  0.1435 -0.2315
21131W        W36600   5.189   3.123  14.160  0.0402 -0.3653  0.0245
21132W        W36601  13.615  14.306   5.009  0.0059  0.2158 -0.0383
21133W        W36602   5.857   4.564   3.976 -0.1400  0.0587  0.2180
21134W        W36603  11.296  14.486  12.652 -0.2210 -0.0556  0.0484
21135W        W36604   1.809  12.078   4.203 -0.0777  0.0451  0.2356
21136W        W36605  11.963   2.588   2.702  0.3082  0.1238  0.3088
21137W        W36606   0.332  15.998   2.150 -0.2490 -0.2691 -0.1678
21138W        W36607   8.329  17.200  13.498  0.2920  0.0955  0.0814
21139W        W36608  17.561   9.644   2.118  0.0017 -0.0787 -0.1079
21140W        W36609  11.717   3.337   5.058  0.3084 -0.0977 -0.2386
21141W        W36610   3.002   6.761  10.371  0.1245  0.2136  0.0967
21142W        W36611   3.791  11.641   1.804  0.0125 -0.2584  0.1366
21143W        W36612  10.939   1.190  14.345  0.0601 -0.2225 -0.2768
21144W        W36613   6.713  13.731   3.351  0.3626  0.1323 -0.0772
21145W        W36614   0.606   6.400   1.952 -0.1477 -0.3002  0.1298
21146W        W36615  14.169   3.997   5.163 -0.1438 -0.0996 -0.1493
21147W        W36616  17.185   1.625   0.221 -0.5075  0.2162  0.2560
21148W        W36617   7.458   9.282  13.775  0.1583 -0.1446  0.0675
21149W        W36618   7.238  14.166   2.897  0.1894 -0.1679 -0.0215
21150W        W36619   2.114   8.548  13.767 -0.3129  0.0848 -0.1628
21151W        W36620   2.147  12.686  10.641 -0.2380 -0.0237 -0.1705
21152W        W36621  12.723   7.175   3.168 -0.0153 -0.3035  0.1068
21153W        W36622  14.286   6.613   2.509 -0.1486  0.0235  0.1357
21154W        W36623   2.961  17.501  12.083 -0.3016 -0.0901 -0.0489
21155W        W36624  11.817  12.288   5.187  0.0728 -0.1214 -0.0990
21156W        W36625  16.395   8.227   0.422  0.0838 -0.2266 -0.1946
21157W        W36626   3.247   7.245   4.310  0.1544 -0.1629 -0.0206
21158W        W36627  17.478  16.901  12.810  0.1072  0.3059 -0.2659
21159W        W36628  18.611   7.793   3.682 -0.1008  0.0700 -0.0745
21160W        W36629   6.622  10.266  11.739 -0.0263  0.3376 -0.3314
21161W        W36630  17.647   4.472  12.951 -0.1525  0.0545 -0.0465
21162W        W36631   5.422  11.876   5.333 -0.2586 -0.0962  0.1471
21163W        W36632  10.048   9.733   1.109  0.0212 -0.2986  0.0162
21164W        W36633   8.608   5.434  12.504  0.0785  0.1412  0.1109
21165W        W36634  11.015  14.049  13.885  0.1845 -0.0695 -0.1572
21166W        W36635   7.127  15.514   4.264  0.1490 -0.1397 -0.0281
21167W        W36636   4.369  16.570   1.558 -0.3682 -0.2835 -0.1605
21168W        W36637   0.978  14.850  15.034 -0.3529 -0.0825  0.3846
21169W        W36638   5.888  16.849   3.889 -0.1123 -0.2935  0.2350
21170W        W36639  15.615  17.668   3.222 -0.2153  0.0489  0.2296
21171W        W36640  14.574   7.502   0.690 -0.0041  0.0140 -0.0561
21172W        W36641  14.285  10.157   2.071 -0.0209 -0.1062 -0.0575
21173W        W36642   5.596  18.625  12.490  0.0427  0.2266 -0.1430
21174W        W36643   9.464  14.867   1.594  0.0342  0.1936 -0.1704
21175W        W36644  15.380   0.265   5.767  0.1137 -0.0389  0.0124
21176W        W36645  16.264  13.471   1.688 -0.2244  0.1334 -0.1393
21177W        W36646  12.050   4.448  13.740  0.1385  0.7081  0.0960
21178W        W36647   9.200  15.807   2.495  0.0513 -0.0132  0.3125
21179W        W36648   7.447   0.745   2.948 -0.0393  0.1025  0.1437
21180W        W36649   9.604   4.070   3.401  0.1810  0.2783  0.1784
21181W        W36650   6.968  11.286   3.634 -0.0566 -0.1134 -0.0549
21182W        W36651  10.691   6.399   5.129 -0.1424  0.6570  0.1824
21183W        W36652   5.908   5.464  10.530 -0.3395  0.1264  0.2209
21184W        W36653  12.137   2.319   0.973 -0.2029  0.0532 -0.1264
21185W        W36654  13.579   2.982  13.728  0.3017  0.0456  0.1357
21186W        W36655   1.968   4.911   4.818 -0.3535  0.0017 -0.0183
21187W        W36656   2.004   8.319  12.947 -0.0029 -0.0815  0.2206
21188W        W36657  18.201  10.315  12.965 -0.0241 -0.1600 -0.3110
21189W        W36658   4.105   2.722  14.037 -0.0137 -0.0573  0.1126
21190W        W36659   0.410  15.404  10.866 -0.2359  0.2570  0.2381
21191W        W36660  15.866   4.497   4.465 -0.0742 -0.0046  0.1700
21192W        W36661   4.498  15.253   5.048 -0.2009 -0.3440  0.2317
21193W        W36662  14.653  17.016  10.891  0.1884  0.2538 -0.0623
21194W        W36663   1.379  16.047  13.314  0.1331 -0.1190 -0.2645
21195W        W36664   7.303  12.647   5.144 -0.0573  0.1475 -0.1452
21196W        W36665   1.887   1.486  13.292  0.3241  0.0224  0.0267
21197W        W36666  17.318  13.493  11.517 -0.0570 -0.4583 -0.0568
21198W        W36667  15.876  16.433   4.943 -0.3737 -0.0486  0.1176
21199W        W36668  13.280  14.277   0.769 -0.2148 -0.3445  0.0406
21200W        W36669   9.494  15.208  13.365  0.2074  0.0797  0.0560
21201W        W36670   2.830  10.404   2.536 -0.4327  0.1070 -0.0140
21202W        W36671  18.051   4.206  10.906  0.0367  0.1458 -0.1141
21203W        W36672   2.798   5.061  12.484  0.0171 -0.1209 -0.1361
21204W        W36673   5.955   7.806   2.323  0.0051 -0.0009  0.0257
21205W        W36674  16.901  10.167  13.634  0.1541 -0.1838  0.1727
21206W        W36675   8.964   7.069   5.660 -0.1021 -0.0124  0.0978
21207W        W36676   8.851  12.268   3.921 -0.3167 -0.2193 -0.2496
21208W        W36677  16.037  14.004  14.537 -0.2428  0.0279  0.1108
21209W        W36678  11.364   0.255  11.900 -0.1187  0.1661 -0.2199
21210W        W36679  11.689  13.234  12.671 -0.0137 -0.0506  0.0458
21211W        W36680  13.500  10.854   1.529  0.1195  0.2217 -0.1009
21212W        W36681  18.353  13.328   2.016 -0.1413  0.1075  0.1302
21213W        W36682  16.709   0.493   4.275  0.4512  0.1788  0.5301
21214W        W36683   4.076  11.799   9.450 -0.0846 -0.0504  0.1063
21215W        W36684  14.620   7.822   3.349 -0.3022 -0.0371  0.1520
21216W        W36685  15.527   8.536  14.442 -0.0882 -0.1698  0.1041
21217W        W36686   9.585  15.311   4.445  0.0458  0.2452  0.3057
21218W        W36687   9.808   3.390  11.540 -0.0678  0.2157  0.3554
21219W        W36688  18.457  11.994   0.093  0.0502  0.0215 -0.0298
21220W        W36689   1.508  11.468   3.696  0.3522 -0.0259 -0.1688
21221W        W36690   9.045   9.513   1.113  0.1736 -0.1575  0.2951
21222W        W36691   8.472  12.902   2.451 -0.0947 -0.1216  0.1932
21223W        W36692  12.470  10.180   1.412  0.0191  0.1224  0.0307
21224W        W36693   3.586   3.732  15.140  0.1408 -0.1914 -0.1759
21225W        W36694   9.988   4.074  12.761 -0.0631 -0.0294 -0.0579
21226W        W36695   2.662  12.361  12.892  0.1657 -0.0613 -0.2152
21227W        W36696   2.145   0.229   0.283  0.0003  0.2486 -0.2947
21228W        W36697   5.292  18.370   1.554 -0.0759 -0.0656  0.1165
21229W        W36698  14.611   8.016   2.025  0.1228  0.2191  0.0542
21230W        W36699   5.668   3.693   4.841  0.1123 -0.2189  0.1488
21231W        W36700  14.725   0.822  14.019 -0.0265  0.1582  0.1495
21232W        W36701  12.886  10.082   0.467 -0.0936 -0.0841  0.1803
21233W        W36702   6.279   9.129  12.519 -0.2181  0.0457  0.2690
21234W        W36703  11.398  10.171   5.168 -0.1704  0.2510  0.1415
21235W        W36704  18.376  17.231  14.059  0.2693 -0.2524 -0.0521
21236W        W36705  16.755  12.545  14.911 -0.2288  0.3864 -0.0923
21237W        W36706   0.850   7.850   4.709 -0.2192  0.2151 -0.2702
21238W        W36707  13.351  15.840  13.251  0.1052  0.1893  0.2052
21239W        W36708  15.481   0.357  11.443  0.0750  0.1157  0.0554
21240W        W36709  11.834   4.620   2.485 -0.1998  0.0508  0.1259
21241W        W36710  17.176  15.347   0.730 -0.0094  0.2247 -0.1094
21242W        W36711  13.097   5.317  14.496  0.4026 -0.1460 -0.1195
21243W        W36712   7.673  18.391   2.422 -0.1226 -0.0591 -0.2874
21244W        W36713   3.512  11.428   2.931 -0.0961  0.1788  0.2051
21245W        W36714  13.271   8.085   3.529 -0.3549  0.4099  0.1851
21246W        W36715   2.764   0.097   4.400  0.0116 -0.2070 -0.2489
21247W        W36716  16.708   4.248  14.830 -0.1546  0.1670 -0.0020
21248W        W36717   2.695   3.881   0.631  0.2253  0.3336  0.0874
21249W        W36718   0.586  12.056   1.927 -0.3569  0.2981 -0.0409
21250W        W36719   6.302  17.552   1.294  0.3027 -0.1152 -0.2227
21251W        W36720   1.092   8.611  12.471 -0.1578  0.3141 -0.1730
21252W        W36721   9.513   3.184   0.448 -0.2142  0.0434  0.0821
21253W        W36722  17.389  13.930  12.921 -0.0358 -0.0425 -0.2073
21254W        W36723   2.019   6.932  11.330  0.0654  0.4920 -0.2439
21255W        W36724   3.783   6.629  14.658 -0.0039 -0.0719 -0.0193
21256W        W36725   0.812   2.134  14.351 -0.0488  0.3231 -0.2095
21257W        W36726  10.185   4.846   5.047  0.2913  0.1267  0.0666
21258W        W36727   4.355  17.516   1.710  0.0135  0.0056 -0.0335
21259W        W36728   5.835  16.870  13.752 -0.0723 -0.0461 -0.0607
21260W        W36729   1.473   4.334   3.620  0.1099  0.0857  0.1877
21261W        W36730  15.827   5.943  11.697  0.1874  0.0953 -0.3010
21262W        W36731  10.228  12.304  11.760  0.3355  0.2087  0.1812
21263W        W36732   6.257   4.084  14.173  0.2499 -0.1816  0.0514
21264W        W36733   5.366   4.425  14.346 -0.2624 -0.2201  0.0273
21265W        W36734  11.783   4.189   5.503  0.1728 -0.3793 -0.0973
21266W        W36735   1.044  18.475   0.928  0.0432 -0.0041 -0.0250
21267W        W36736  17.843   9.810  14.757  0.0109 -0.0627 -0.2492
21268W        W36737   6.451  12.066   4.900 -0.0508 -0.2094 -0.0048
21269W        W36738   8.416   2.142   4.759  0.1596 -0.1853 -0.1321
21270W        W36739   9.561  12.563  11.471 -0.0020  0.3174  0.0833
21271W        W36740  13.672   1.638   2.026  0.2323  0.2147 -0.1378
21272W        W36741  11.512  13.344  14.971  0.0522  0.1728  0.1084
21273W        W36742  18.410  15.782   1.030  0.2036 -0.1662 -0.0752
21274W        W36743   9.751   4.448  12.944  0.2259 -0.0944  0.2544
21275W        W36744   5.950   3.335   1.791  0.1125  0.0333 -0.1514
21276W        W36745  16.671   2.660  11.674 -0.0762  0.0458 -0.1453
21277W        W36746   5.318   4.228  11.969 -0.0491  0.0691  0.0435
21278W        W36747  13.562   5.635   2.159 -0.0431  0.1897 -0.3140
21279W        W36748   4.838  12.378  13.950  0.0350 -0.2491  0.2193
21280W        W36749  14.877  10.014   1.176  0.1220 -0.1906  0.1806
21281W        W36750   5.317   3.006   3.238  0.2174  0.0599  0.0683
21282W        W36751  15.412   1.853   3.035 -0.0752  0.0256  0.1953
21283W        W36752   1.378   0.462  14.877 -0.0167 -0.0043 -0.2772
21284W        W36753   2.082   0.082   0.802 -0.0736  0.0105 -0.0571
21285W        W36754  16.522   4.295   3.360 -0.5274  0.1835  0.3915
21286W        W36755  10.357   5.444   5.009 -0.4145 -0.1487 -0.1206
21287W        W36756  11.512  18.429   0.071  0.0411  0.0809  0.3675
21288W        W36757   7.435   0.114  13.491  0.4399 -0.0612 -0.0971
21289W        W36758   1.326  13.269   1.091 -0.4768  0.2259  0.0034
21290W        W36759  15.476  11.552   5.053  0.1088 -0.0329  0.2974
21291W        W36760   4.198  12.034   2.418 -0.1978  0.1049  0.2015
21292W        W36761  15.078   7.139  12.019 -0.2692  0.2182 -0.4378
21293W        W36762   3.910  13.443  13.738 -0.1204  0.0614  0.2792
21294W        W36763   4.930  14.557  15.396  0.1835  0.1118 -0.0451
21295W        W36764   9.953  10.133   1.442  0.1900 -0.2230 -0.1786
21296W        W36765   8.248  15.334   3.991 -0.2629 -0.1792 -0.0131
21297W        W36766  10.123   8.604   4.075 -0.0257  0.3058  0.0526
21298W        W36767  12.011   8.208   6.599 -0.0743 -0.2949  0.2986
21299W        W36768  12.591  11.770   2.560 -0.0000  0.0019  0.1239
21300W        W36769   2.538  14.730  12.394 -0.2016 -0.1823  0.0899
21301W        W36770   2.807   5.992  15.348 -0.5775  0.1668 -0.2417
21302W        W36771  14.210  14.960  15.017 -0.1446 -0.1384  0.0316
21303W        W36772   6.449   1.119   2.062  0.0004 -0.0591 -0.0017
21304W        W36773   6.942   4.522   4.222 -0.3142  0.0098 -0.0071
21305W        W36774  18.485   3.847  10.656 -0.0119  0.0849 -0.1093
21306W        W36775  17.615   3.897   0.721 -0.1260 -0.0044 -0.1994
21307W        W36776   3.656  15.788   3.301  0.1362  0.0655  0.0692
21308W        W36777  10.229  16.340   1.422 -0.1025 -0.1436  0.0931
21309W        W36778  13.268  14.588  15.354 -0.0126 -0.2285 -0.2675
21310W        W36779   4.580   0.687  14.345  0.0254  0.1188 -0.1550
21311W        W36780   6.012   1.806  12.025 -0.2921 -0.0204  0.0616
21312W        W36781   3.500   4.052  13.839 -0.0341  0.2444 -0.1727
21313W        W36782  16.521   0.461  13.152  0.1072 -0.3469 -0.1679
21314W        W36783  14.609   6.031  12.669 -0.3088 -0.1239  0.1076
21315W        W36784  14.654  10.364   2.951  0.1964  0.3365  0.0738
21316W        W36785   0.634   0.397   1.649 -0.1585  0.0243 -0.0522
21317W        W36786  10.664   2.396  15.672  0.4393  0.1583 -0.2474
21318W        W36787  13.601  12.664   1.747 -0.0556  0.0321 -0.0031
21319W        W36788   5.110   3.515  12.075 -0.0161  0.1394 -0.1883
21320W        W36789   7.951  12.087  10.395 -0.0644  0.0416  0.1701
21321W        W36790  17.455   0.494   1.904  0.4076 -0.3334 -0.0914
21322W        W36791  15.229  14.946   1.289  0.0724 -0.1129 -0.2178
21323W        W36792   3.175   1.823   4.768  0.0223 -0.0050 -0.0204
21324W        W36793  18.604   8.265  13.689  0.0373  0.0462  0.2529
21325W        W36794  11.602   1.907  12.274  0.0269 -0.1313 -0.1021
21326W        W36795   3.955   2.484   4.259 -0.1261  0.1854 -0.0720
21327W        W36796   0.840  12.085  15.624 -0.0308 -0.0946 -0.0518
21328W        W36797   9.392   8.638  11.496 -0.2171 -0.1382 -0.2237
21329W        W36798   1.514   5.157   4.723 -0.1272  0.0178  0.0434
21330W        W36799   5.353   3.514  12.510 -0.0920  0.0869  0.0799
21331W        W36800   0.588  17.370   3.485  0.1506 -0.1099  0.1892
21332W        W36801   3.264  15.753   2.849 -0.0928  0.0091  0.1826
21333W        W36802  18.214  14.985  14.761 -0.1739 -0.0985 -0.1046
21334W        W36803  13.515  18.476   2.427  0.3733  0.0466 -0.2770
21335W        W36804   0.661   1.907  13.899  0.1247 -0.4970  0.0105
21336W        W36805   7.927   3.211   3.053 -0.0999 -0.0515  0.1085
21337W        W36806  15.448  16.634  10.694  0.1429  0.2853 -0.3277
21338W        W36807   4.689  13.938   5.943 -0.7487  0.3442  0.0388
21339W        W36808   8.844   3.185  12.262 -0.0682  0.0669  0.0141
21340W        W36809   9.927   1.927   2.274 -0.1238 -0.2511 -0.1700
21341W        W36810  17.186  14.507   0.492 -0.2706 -0.0512  0.1441
21342W        W36811   0.259  11.792  14.402 -0.0338  0.1331 -0.3916
21343W        W36812   5.104  13.117   0.528  0.0630 -0.0862  0.2927
21344W        W36813   4.859  10.917  13.235  0.1223  0.0182  0.2458
21345W        W36814  17.424   0.129  13.097 -0.2075  0.1554  0.1713
21346W        W36815   5.496   2.756  11.241 -0.2209 -0.2886  0.3415
21347W        W36816  10.826   8.127  11.126  0.0623 -0.0118 -0.0500
21348W        W36817   5.777   6.292   0.507 -0.3479 -0.2551 -0.2590
21349W        W36818   5.889  17.427   4.934 -0.1348 -0.0770  0.1051
21350W        W36819   2.774   7.095  12.255 -0.1976 -0.0150 -0.1331
21351W        W36820  10.497   9.593  13.224  0.2245 -0.1957  0.1568
21352W        W36821  14.613  17.368  15.242 -0.0191  0.0545  0.0228
21353W        W36822  10.131  15.320  12.905  0.0142 -0.1193  0.0720
21354W        W36823  10.090   4.499   1.064  0.1676  0.0859  0.1982
21355W        W36824  17.150   7.617  14.792  0.0028  0.0099 -0.2211
21356W        W36825  13.885   5.378   1.878 -0.1066  0.0108 -0.1449
21357W        W36826  14.253  14.979   5.972  0.0359 -0.0846  0.0960
21358W        W36827   4.378   1.120   1.515  0.0420 -0.3459 -0.1687
21359W        W36828   5.097  11.409   1.573  0.0456  0.1226 -0.3164
21360W        W36829  13.272   7.910  13.363 -0.2376  0.0004 -0.0187
21361W        W36830   0.804  11.753  11.243  0.0923  0.0394  0.1983
21362W        W36831   9.185  16.920  13.392  0.0609 -0.0049  0.0001
21363W        W36832   4.373  10.373   3.870 -0.2681 -0.1295  0.1418
21364W        W36833  11.575  12.703  12.803  0.2073 -0.1383 -0.0561
21365W        W36834   1.841   5.994   4.119  0.0042  0.0443  0.0460
21366W        W36835  18.619  15.425  14.191  0.0856 -0.1887 -0.0244
21367W        W36836  11.626  18.148  11.694 -0.0087  0.1348  0.3180
21368W        W36837  10.951  12.128   4.963  0.0447  0.1851 -0.0045
21369W        W36838  14.305   0.910   4.637  0.1117 -0.3701  0.0971
21370W        W36839   0.984  13.052   1.494  0.0964  0.3083 -0.1739
21371W        W36840   1.521   6.275  13.676  0.0498 -0.1977  0.2581
21372W        W36841  10.998   4.400   0.710  0.0713  0.1256  0.0343
21373W        W36842   3.705   8.759   3.847  0.0898 -0.0404 -0.1997
21374W        W36843   5.835   4.095  11.166  0.0634 -0.0004  0.1370
21375W        W36844   9.632  16.030  11.005  0.0871 -0.3628 -0.4396
21376W        W36845  13.947  14.676   0.482 -0.2913  0.0454  0.1671
21377W        W36846  13.637  15.982  14.921  0.1132 -0.1554 -0.0915
21378W        W36847  13.369  16.291   5.494  0.2289  0.1702 -0.0450
21379W        W36848  17.851  14.070  14.323  0.0228 -0.2356 -0.0848
21380W        W36849  17.955  10.496   4.470  0.1672 -0.1798  0.0229
21381W        W36850   8.507  13.158   4.732  0.0349  0.0617 -0.0173
21382W        W36851   8.591   9.229   0.159  0.1375  0.0747  0.0456
21383W        W36852   4.412  10.179  10.887  0.0083 -0.0665  0.0012
21384W        W36853  17.207   3.489  12.992 -0.4332  0.1004  0.5771
21385W        W36854   5.231  10.304   5.123 -0.3106 -0.0489 -0.0359
21386W        W36855   2.100   4.704  10.244  0.1715 -0.2899  0.4592
21387W        W36856  17.422  18.160   2.051  0.0810 -0.0075 -0.2179
21388W        W36857   6.405  14.136  14.037 -0.0161  0.2763 -0.1204
21389W        W36858  18.160  15.862  13.240 -0.0457 -0.4472 -0.1356
21390W        W36859   9.966  10.578   6.015 -0.0784  0.0760 -0.1910
21391W        W36860  16.220  17.890  12.700 -0.1154  0.0873 -0.3477
21392W        W36861   4.603   6.914  13.385 -0.1425  0.1349  0.2061
21393W        W36862   5.784  17.854  14.891 -0.1716  0.2562 -0.1158
21394W        W36863  18.131  12.817   2.011 -0.2403 -0.0422 -0.2106
21395W        W36864  17.432  16.642  11.515  0.1798  0.1049  0.0291
21396W        W36865  10.833  11.036   1.019 -0.0333 -0.2761 -0.0110
21397W        W36866  14.225   9.842   3.024  0.2115  0.4677  0.0974
21398W        W36867   4.547   2.289  11.040 -0.0533  0.0917  0.2571
21399W        W36868   6.375   9.394   1.564  0.0986 -0.0652 -0.0153
21400W        W36869  10.052   1.058  13.902  0.1121 -0.1037  0.3057
21401W        W36870   9.751  17.429  13.453 -0.0393  0.2192 -0.1474
21402W        W36871  12.200   6.541  15.106 -0.1314 -0.2415  0.0244
21403W        W36872  14.136   1.717   0.070  0.2930 -0.2239  0.5593
21404W        W36873   6.745  11.609   0.895 -0.3150  0.1729 -0.0520
21405W        W36874   5.100   8.742   3.321 -0.1649  0.0491  0.0981
21406W        W36875  13.508   2.394  12.772 -0.0376 -0.3950  0.0932
21407W        W36876   1.037  16.902  11.603 -0.1011 -0.2270 -0.0384
21408W        W36877  18.081  12.200  11.043  0.0068 -0.1376  0.1563
21409W        W36878  13.945   1.620  12.810  0.0625 -0.2419 -0.1281
21410W        W36879   9.083   5.469   5.381 -0.0364 -0.1587 -0.0412
21411W        W36880   2.461   7.910   3.078  0.0169  0.0151  0.1028
21412W        W36881  15.696  12.135   3.808 -0.2042 -0.0701 -0.2868
21413W        W36882   4.326  13.098   3.746  0.1661  0.0631  0.2137
21414W        W36883   6.715   8.200   3.658  0.0232 -0.0003  0.1567
21415W        W36884  14.790  15.358  11.504 -0.1360 -0.2848  0.1368
21416W        W36885  17.228  15.842  10.479  0.1207  0.1034  0.1152
21417W        W36886  10.389   1.798  14.568 -0.1898  0.0359  0.0102
21418W        W36887  13.649  14.222  13.893 -0.0007 -0.2952 -0.0475
21419W        W36888   8.993  18.573  15.400  0.0048 -0.2308 -0.0285
21420W        W36889   6.467  10.591  15.112 -0.0703 -0.1617 -0.1166
21421W        W36890  15.835   2.177  14.312 -0.1117 -0.3146 -0.0726
21422W        W36891  17.351  17.211   2.712  0.0241  0.0254  0.0450
21423W        W36892  15.253  16.528  11.671 -0.0123  0.0448  0.1090
21424W        W36893   9.356   3.446  12.473 -0.1694 -0.0900 -0.0604
21425W        W36894   2.515  18.443  14.843 -0.2509 -0.3265  0.0604
21426W        W36895  16.815   2.281  14.257 -0.3411 -0.2387  0.1083
21427W        W36896  14.941  11.251   3.285 -0.2442 -0.0880  0.0060
21428W        W36897   5.425  16.743   2.874 -0.1002 -0.0872 -0.0039
21429W        W36898  17.662  13.180   0.453  0.0721  0.1942 -0.2654
21430W        W36899  13.573  15.378   4.263  0.0619 -0.2863 -0.0630
21431W        W36900   5.975  10.103  12.812  0.2310 -0.0216 -0.0571
21432W        W36901   7.278   8.426  10.510 -0.3192  0.3815 -0.2726
21433W        W36902   0.956   9.867  13.684  0.2483  0.3107  0.0702
21434W        W36903  13.264  17.128  12.007 -0.2362  0.0220 -0.0279
21435W        W36904  13.443  18.270   2.964  0.5099 -0.1336 -0.0767
21436W        W36905   1.734  17.939  13.437  0.0096 -0.1996  0.1275
21437W        W36906  17.915   0.116  13.085  0.0951  0.2768 -0.1921
21438W        W36907  15.149   0.281  13.221 -0.1166 -0.2006 -0.3690
21439W        W36908  12.011   2.407  14.823  0.3452  0.1257  0.0555
21440W        W36909   3.948  10.860   3.624  0.4029 -0.1538  0.2215
21441W        W36910  16.882  14.017  10.914 -0.2528 -0.0965 -0.0539
21442W        W36911   2.384  17.289   1.926  0.0404 -0.2979 -0.2206
21443W        W36912   0.715   8.957  12.440  0.0542 -0.2221  0.0141
21444W        W36913  12.179  18.214   0.167  0.1271  0.0316  0.1031
21445W        W36914   5.403   7.591   4.175  0.1784  0.1141  0.1338
21446W        W36915   4.738   6.329   1.759  0.2475  0.0808 -0.1069
21447W        W36916  11.020   1.936  13.845 -0.3555  0.1280 -0.2405
21448W        W36917   1.409   3.827  11.199  0.0610 -0.4122 -0.0296
21449W        W36918   2.138   2.189   3.006 -0.0441  0.2914  0.2250
21450W        W36919  13.059  16.004  13.566  0.3261 -0.1993  0.2233
21451W        W36920   9.297   1.590  11.821 -0.1024 -0.0441  0.0305
21452W        W36921   9.632  14.321   1.595 -0.0859 -0.3378 -0.1230
21453W        W36922  15.618  18.589   3.673  0.0508 -0.1927  0.0116
21454W        W36923  11.724  16.210   5.293  0.0630 -0.0560 -0.3269
21455W        W36924  17.777   7.829   4.075 -0.0527  0.2162  0.0254
21456W        W36925   4.183   5.469  12.807  0.1363 -0.2155 -0.0858
21457W        W36926  11.600   9.093  11.082  0.1285  0.2671  0.1872
21458W        W36927  12.813   9.989   1.892 -0.0777 -0.1225  0.1083
21459W        W36928  18.234  18.218   2.680 -0.3257 -0.0899  0.0126
21460W        W36929  16.115  17.121   4.953 -0.0491 -0.0636  0.2075
21461W        W36930  16.334   5.245   1.594  0.0929  0.1677 -0.1266
21462W        W36931   0.555   3.372  11.153 -0.0635  0.1785 -0.1594
21463W        W36932  16.317   6.064   0.238  0.0199 -0.2217  0.1643
21464W        W36933  13.771   3.057  15.621  0.0657 -0.1069  0.2426
21465W        W36934   6.986  15.898   1.138  0.3494 -0.0590 -0.3229
21466W        W36935  18.289   4.753  10.851 -0.0220 -0.1142 -0.1104
21467W        W36936  11.276   6.157  11.791  0.0763  0.0870 -0.0394
21468W        W36937  13.297  10.136  14.391 -0.1188  0.4386 -0.0547
21469W        W36938   7.782  16.571  13.779 -0.1121  0.1723 -0.0401
21470W        W36939   3.072   0.862   3.433 -0.3395  0.1782  0.1717
21471W        W36940  17.820  10.098  10.574  0.0203  0.0238  0.0213
21472W        W36941  16.938  13.598   3.678 -0.3025 -0.0830  0.1292
21473W        W36942  15.704  18.066   3.580  0.0318  0.1853  0.0682
21474W        W36943   7.849   9.202  10.885 -0.1103 -0.1251 -0.0946
21475W        W36944  15.904   6.676   4.486  0.0203 -0.1706  0.1284
21476W        W36945   4.406  17.395  11.219  0.1064 -0.3208  0.1978
21477W        W36946   4.876   8.047  14.945  0.0460  0.0691  0.0865
21478W        W36947   3.228   2.273   0.457  0.2540  0.0636  0.0925
21479W        W36948  11.094  13.825  12.697  0.3686 -0.0225 -0.0904
21480W        W36949  11.281  18.042   1.981  0.0083 -0.2890 -0.0858
21481W        W36950  17.417   3.565   1.061  0.1235 -0.4474 -0.0900
21482W        W36951  16.079  16.117   5.371  0.0202 -0.1745  0.0847
21483W        W36952  11.709  15.930   2.694  0.0620  0.2710 -0.2336
21484W        W36953   3.144  11.457  12.568  0.0227  0.2257  0.0064
21485W        W36954   5.843   4.353   2.849  0.1943  0.3340 -0.0741
21486W        W36955  15.395  13.676  13.948  0.2901  0.0856  0.0526
21487W        W36956   6.774   2.444  10.937 -0.1935 -0.1582  0.0335
21488W        W36957  17.676   4.012   5.593  0.1399 -0.2898 -0.1321
21489W        W36958  11.502   1.987  14.059  0.1482 -0.4234 -0.2281
21490W        W36959  14.805   1.546  11.703  0.0044  0.0510  0.2869
21491W        W36960   9.948  12.173  14.007 -0.0680 -0.0375  0.1829
21492W        W36961  14.200   9.077   1.056 -0.0489 -0.0644 -0.0797
21493W        W36962  11.679  17.793   3.620  0.1284  0.3877  0.3252
21494W        W36963  11.316   2.184   5.633  0.1540 -0.2918 -0.0502
21495W        W36964  14.839   1.739  11.082  0.2069 -0.0472 -0.1342
21496W        W36965  12.667   2.314   5.589 -0.0230 -0.1271  0.0346
21497W        W36966   6.941  11.689  13.704 -0.0103  0.1878  0.1807
21498W        W36967  13.858  10.391  13.847 -0.1146 -0.1350  0.1781
21499W        W36968   2.147  14.601   0.544  0.1271 -0.1081 -0.0668
21500W        W36969   9.984   5.209   1.739  0.0059 -0.0023  0.0614
21501W        W36970  17.492  10.353  10.840 -0.0158 -0.0073  0.2662
21502W        W36971   2.979  13.583   4.453 -0.0823  0.2237  0.1144
21503W        W36972   9.209  15.319   1.880 -0.1604 -0.0485  0.0122
21504W        W36973  15.358  11.909   1.714 -0.3347  0.0857  0.2239
21505W        W36974  15.966   5.738  14.324 -0.1307  0.1585 -0.1360
21506W        W36975  11.757  13.607   1.930 -0.0412 -0.1866  0.1340
21507W        W36976   1.485  18.085   4.180  0.0062  0.2336 -0.2044
21508W        W36977  16.416  16.499  12.979  0.1293  0.0653  0.0252
21509W        W36978   1.113  11.665  14.197  0.0994 -0.0833 -0.4615
21510W        W36979   6.999   3.595   2.740  0.0044  0.2119 -0.1157
21511W        W36980   9.165   5.352  10.059 -0.1602  0.0462  0.0407
21512W        W36981  13.109   2.768   3.856  0.2876 -0.1593  0.0093
21513W        W36982  13.353  17.523  15.437  0.0901 -0.1058 -0.1179
21514W        W36983   0.425   6.775  13.273 -0.0701 -0.0731  0.2234
21515W        W36984   9.460   5.144   0.815 -0.1549  0.1143 -0.0524
21516W        W36985   4.108   5.716  11.921  0.1230  0.0599  0.2984
21517W        W36986   3.907  16.840   0.697  0.3654 -0.1823  0.0496
21518W        W36987  12.878  16.952   0.768 -0.2347 -0.2865 -0.0284
21519W        W36988   2.326  15.847  12.602 -0.5510 -0.1168 -0.2374
21520W        W36989  11.759   0.298   5.415 -0.2970 -0.0728  0.0242
21521W        W36990   1.214  14.834  10.522  0.0990  0.3788 -0.3032
21522W        W36991  10.296   1.649   2.091 -0.1375 -0.1812  0.1483
21523W        W36992   1.266   8.531  13.821  0.0683 -0.2449  0.1657
21524W        W36993   1.146   9.703  11.551  0.0181 -0.1342 -0.0363
21525W        W36994  10.624  14.260   3.101 -0.1432 -0.0388  0.1045
21526W        W36995  14.518  11.744   5.663  0.1483 -0.0346 -0.1839
21527W        W36996   9.669   4.422   2.148 -0.4103  0.0727  0.3846
21528W        W36997   5.739   5.316   3.238 -0.1001 -0.0983 -0.2027
21529W        W36998   2.464  13.007  13.126  0.0750 -0.1441 -0.0777
21530W        W36999  13.189   8.807   2.801 -0.0825  0.0882  0.0037
21531W        W37000   9.857   0.090   6.096 -0.0005  0.2914 -0.2629
21532W        W37001   1.304   7.113  15.159  0.2861 -0.0522 -0.0367
21533W        W37002  17.596   4.946   3.934 -0.1656 -0.2305 -0.1977
21534W        W37003  13.431   1.355  12.913  0.0437 -0.1135 -0.0903
21535W        W37004  16.939   2.263   3.702 -0.0990 -0.1372 -0.3851
21536W        W37005   6.824  14.369  13.240 -0.0546  0.2071  0.1427
21537W        W37006  14.635  13.200  15.505 -0.1561 -0.1948  0.1914
21538W        W37007   2.220   0.256   2.641  0.0366  0.2974 -0.0774
21539W        W37008  18.444  11.120  12.540  0.0687  0.1890 -0.0498
21540W        W37009  17.113  10.565   3.486 -0.2939 -0.1305  0.0427
21541W        W37010  17.124   9.575  14.323 -0.3562  0.2168 -0.2549
21542W        W37011   3.471  11.519  14.874  0.0356 -0.0010  0.0148
21543W        W37012   3.091   4.162  12.200  0.1179  0.1610  0.2524
21544W        W37013   9.185   8.591  11.944  0.1930 -0.1498 -0.1041
21545W        W37014   7.520   0.328   2.625 -0.0289 -0.0050  0.1067
21546W        W37015   8.660  12.308   3.464 -0.2079  0.0899  0.0529
21547W        W37016   2.567  16.069  13.081 -0.1121  0.2317 -0.1179
21548W        W37017   0.513   4.888   3.896 -0.2346 -0.3558 -0.1469
21549W        W37018  11.593   8.054   2.754 -0.1468  0.2270 -0.1223
21550W        W37019  10.574   8.772   0.705 -0.2127  0.0669 -0.0446
21551W        W37020  13.576  15.054   3.697 -0.1563  0.3080 -0.3234
21552W        W37021  15.514  17.997  11.079  0.1167 -0.2140  0.2685
21553W        W37022   0.290  16.481  14.389  0.0350  0.4096  0.0021
21554W        W37023  18.467  11.721   1.075  0.1541  0.0371  0.0132
21555W        W37024   8.666  10.290  10.148 -0.1945 -0.0451  0.0580
21556W        W37025  14.393  11.049  13.952  0.1467  0.2254 -0.0031
21557W        W37026  13.146  15.376   4.474  0.1888 -0.1692  0.2338
21558W        W37027   1.926   8.053   3.119 -0.2974  0.1630  0.0996
21559W        W37028   1.917   0.519  12.157 -0.1943  0.0349 -0.0469
21560W        W37029   9.844   6.605   1.694 -0.0383 -0.1261 -0.2062
21561W        W37030   3.166   5.910   3.812 -0.0712 -0.1862  0.2332
21562W        W37031   4.910   9.695  14.909  0.0181 -0.0134  0.0483
21563W        W37032   3.728  15.817  13.600  0.1221 -0.1848  0.0531
21564W        W37033   1.377  10.751  10.340 -0.0868 -0.1497 -0.2444
21565W        W37034   4.149  10.300   2.133  0.0907  0.0262 -0.0309
21566W        W37035  14.801   3.065   1.649 -0.1767  0.2090 -0.1055
21567W        W37036   8.262   1.330   1.944 -0.2631  0.1453  0.0056
21568W        W37037   8.642  16.550  14.781 -0.2354  0.0040  0.0761
21569W        W37038   9.540  10.388  12.423 -0.0091  0.0146 -0.1412
21570W        W37039  18.412   8.325   3.509  0.0816  0.0690  0.2384
21571W        W37040   7.035  15.964   4.034  0.3843  0.0726  0.5209
21572W        W37041   1.511  11.892   2.868  0.0114  0.0229  0.2434
21573W        W37042   4.271  13.421   0.580  0.4071 -0.2724 -0.0906
21574W        W37043   7.494   8.966  11.548  0.0808 -0.2962  0.0045
21575W        W37044   9.899  11.195  10.776  0.0936 -0.0263 -0.0320
21576W        W37045   5.790  12.108  15.026 -0.0912  0.2218 -0.1565
21577W        W37046   6.602   3.968   4.132  0.0079 -0.2067 -0.0043
21578W        W37047   0.828   7.911   0.349  0.2480 -0.0996 -0.0142
21579W        W37048   5.926   7.014  13.261  0.3127 -0.0777  0.1662
21580W        W37049  13.226   0.515   0.144  0.0597 -0.0898 -0.0112
21581W        W37050   8.297   3.534   5.116 -0.1595 -0.2275  0.1660
21582W        W37051   6.310   7.930   1.440  0.0541 -0.1041 -0.6374
21583W        W37052   3.618  11.572   0.697  0.0554  0.0775 -0.0754
21584W        W37053   9.959   9.099   4.518 -0.1054 -0.0648  0.1741
21585W        W37054   1.811  15.533   2.429  0.0110 -0.1115  0.1235
21586W        W37055   8.232  18.491   3.869  0.2582  0.3188 -0.3872
21587W        W37056  13.929  14.524  14.283  0.2863 -0.2670  0.1373
21588W        W37057   6.114   4.630   4.670 -0.0836 -0.0647  0.0691
21589W        W37058  14.590  18.504   3.989 -0.3124 -0.1560 -0.1888
21590W        W37059   6.931   6.974   4.929 -0.4065 -0.2153  0.4612
21591W        W37060  18.067  13.076  12.979 -0.2373 -0.0472 -0.4141
21592W        W37061   9.076  16.865  14.963 -0.0253 -0.3824  0.3109
21593W        W37062   2.671   2.618  12.802 -0.1351 -0.2620 -0.1038
21594W        W37063  16.277  15.210  13.443 -0.0542  0.0452  0.0146
21595W        W37064  13.288  14.271  12.547 -0.3648  0.1185 -0.2990
21596W        W37065   8.208   6.425  14.646 -0.2656  0.0279  0.2246
21597W        W37066  12.544   8.497  10.132  0.0426  0.0963  0.1123
21598W        W37067   2.033   9.596   4.692 -0.0904  0.1329  0.0868
21599W        W37068   6.943   7.528   2.015 -0.0484  0.1055 -0.0125
21600W        W37069   5.549  11.328  11.861  0.0344 -0.1704  0.0416
21601W        W37070   0.887   6.664  10.929  0.0595  0.1199  0.0994
21602W        W37071   8.782  11.810   2.738  0.1953  0.2272 -0.2447
21603W        W37072  16.624  11.890   4.198 -0.3201  0.0348 -0.2067
21604W        W37073  16.302   2.246  14.079 -0.1260  0.2164  0.2564
21605W        W37074   2.539   9.759  14.195 -0.1967  0.1624 -0.1750
21606W        W37075   5.777   5.819  11.729  0.2939 -0.3962  0.0179
21607W        W37076   0.672  15.015  12.128 -0.1171 -0.1695 -0.1935
21608W        W37077  15.760   6.484   1.183  0.0434 -0.2373 -0.0647
21609W        W37078   6.790   0.012  14.542 -0.1856 -0.0176  0.1870
21610W        W37079  15.897  16.741   3.531  0.0729  0.0349 -0.2293
21611W        W37080  17.304   9.271   2.771  0.0024  0.0053  0.2632
21612W        W37081  14.665   2.115  14.218 -0.0943  0.1414 -0.3318
21613W        W37082  11.565   9.284   1.658 -0.0434 -0.0316 -0.1980
21614W        W37083  15.758  15.213   3.642  0.2972 -0.0692  0.0212
21615W        W37084  10.242  15.906   0.031 -0.0835  0.0916 -0.0615
21616W        W37085   1.214  15.944  12.824  0.1093  0.0933  0.3427
21617W        W37086  15.143   1.012  14.451  0.0391  0.1133  0.4005
21618W        W37087   3.945  15.571  13.990  0.0509  0.0706  0.3085
21619W        W37088  16.753   8.823  10.446 -0.1258 -0.0231  0.2135
21620W        W37089  12.839   9.546  14.184 -0.0388  0.1567  0.0422
21621W        W37090  11.198  17.092   3.768 -0.3132 -0.2343  0.4301
21622W        W37091  12.534   1.371   0.105  0.0981 -0.0347  0.2640
21623W        W37092   2.566  10.314  12.481  0.1757  0.5602 -0.0865
21624W        W37093  12.436  14.215  12.017  0.2997 -0.1646  0.2449
21625W        W37094  16.538   3.182   1.885  0.0471  0.4156  0.2519
21626W        W37095   2.267   8.943  12.708  0.0152  0.0920  0.0374
21627W        W37096   1.926   4.249   1.547  0.1414 -0.0830  0.0908
21628W        W37097  17.632   0.927   4.451  0.0224 -0.0894 -0.3244
21629W        W37098   6.304   0.882  13.597  0.1118 -0.2703  0.1253
21630W        W37099   9.460  14.153  12.912  0.0250 -0.4667  0.2040
21631W        W37100  15.755  13.675   5.858  0.4322  0.1381  0.1553
21632W        W37101  11.009  12.271  13.821 -0.1672 -0.0276  0.1184
21633W        W37102  17.566   6.506  13.719  0.2781  0.0033 -0.1426
21634W        W37103  15.372  16.492  11.172 -0.2707  0.1658 -0.3633
21635W        W37104  13.093   6.941   5.077 -0.0183  0.2752 -0.0429
21636W        W37105   6.301  14.866  15.537  0.1823 -0.1901  0.3487
21637W        W37106   4.528  16.921  11.340  0.0226  0.0445 -0.2310
21638W        W37107  14.115   9.732   5.565 -0.0566 -0.0940 -0.1258
21639W        W37108  16.357  15.805  15.373 -0.1297 -0.1582 -0.2590
21640W        W37109  15.618  11.676   3.098  0.0401  0.0405  0.0382
21641W        W37110   4.222   1.682   1.510 -0.1606  0.1164  0.3108
21642W        W37111  15.684  15.623   2.387 -0.0378 -0.0358 -0.0521
21643W        W37112  10.389   2.605  11.533  0.0663  0.0750 -0.0210
21644W        W37113   9.017  16.825   5.922  0.1466  0.0520  0.0751
21645W        W37114   3.908   8.245  11.636 -0.2061  0.2429 -0.1560
21646W        W37115  10.300  16.535   1.920 -0.1356 -0.0505  0.1930
21647W        W37116  14.644   5.542   2.384  0.0002 -0.1254 -0.1209
21648W        W37117   3.318   3.918  11.223  0.2969 -0.0907  0.0351
21649W        W37118  16.522  14.827  10.653  0.4099 -0.0953 -0.4385
21650W        W37119  12.019  13.702   5.597  0.2449 -0.3548  0.0056
21651W        W37120   9.823   5.185  13.130 -0.0771 -0.0171  0.0246
21652W        W37121  16.145   3.459   1.960  0.2063 -0.4625 -0.0114
21653W        W37122   4.859  13.731  13.706 -0.1340  0.2499 -0.2587
21654W        W37123   0.542   9.864   5.261  0.1156 -0.2537  0.0370
21655W        W37124   0.784   0.097  10.685 -0.2930 -0.2336  0.0763
21656W        W37125   6.404   2.649   1.399 -0.1931 -0.0863 -0.0440
21657W        W37126   4.614   3.924  15.353  0.3120  0.3885 -0.0521
21658W        W37127  12.822   5.643  14.992 -0.1623  0.2426 -0.1903
21659W        W37128   3.203   8.871   4.621 -0.1326  0.1573  0.0435
21660W        W37129   3.284   2.281  10.456 -0.0518 -0.1020 -0.1826
21661W        W37130   9.584  13.354   3.543 -0.1000 -0.2658  0.2610
21662W        W37131  16.095  10.757  12.293 -0.1030  0.2861 -0.2563
21663W        W37132  18.500   0.241  13.636 -0.1257 -0.1091  0.1009
21664W        W37133   5.265   2.424   1.469 -0.0094 -0.0386  0.2918
21665W        W37134   5.641   9.431  14.480 -0.0131 -0.3062 -0.1417
21666W        W37135  17.759   1.818  10.952 -0.1038  0.2398  0.1506
21667W        W37136   6.864  13.693   0.935  0.1239 -0.2454 -0.0229
21668W        W37137   6.541   5.614  10.991  0.0666  0.5850  0.3076
21669W        W37138   4.068  16.141   4.348 -0.3460 -0.1040  0.0220
21670W        W37139   6.999  12.779  13.009 -0.3431 -0.2191 -0.1296
21671W        W37140   9.971  17.005   3.821  0.0715  0.3841  0.0210
21672W        W37141   4.666   5.879  15.040 -0.1466 -0.1203 -0.0785
21673W        W37142   3.971   1.931   2.213 -0.0923  0.0145 -0.3361
21674W        W37143   1.158  11.014  12.153  0.0634 -0.0048 -0.1304
21675W        W37144   8.602  16.631  11.712  0.0622 -0.4202  0.2162
21676W        W37145  13.889  15.924   3.500  0.1346  0.0366  0.0746
21677W        W37146   5.730   3.080   1.323  0.0466 -0.0819 -0.0105
21678W        W37147  12.933  13.684   2.382  0.1531  0.0386  0.0643
21679W        W37148  17.515  15.060   0.505  0.1290 -0.1907 -0.1897
21680W        W37149  17.615   4.751  12.532  0.2159  0.4105  0.2048
21681W        W37150  10.526   1.034  11.869 -0.0790 -0.1261  0.0722
21682W        W37151  13.028  17.413  11.649  0.3039  0.0616  0.2685
21683W        W37152   5.577  10.518  13.543  0.1380 -0.0355 -0.3645
21684W        W37153   4.637  12.177   1.943  0.0886  0.0130 -0.3637
21685W        W37154  17.314  17.973  13.526 -0.2520 -0.0819  0.0843
21686W        W37155  18.492  16.230   4.553 -0.1767 -0.0089 -0.0392
21687W        W37156  14.796   9.586   4.232  0.0597 -0.1474 -0.0343
21688W        W37157  13.486  10.231  15.172 -0.0773  0.0760  0.1851
21689W        W37158   7.434  11.053  10.611  0.0461 -0.2719 -0.0193
21690W        W37159   9.945  14.030  12.761  0.0176 -0.0414  0.0375
21691W        W37160   4.947  12.394  11.562  0.1031  0.0036 -0.1328
21692W        W37161   5.486  16.702   1.527  0.4038  0.1593 -0.1113
21693W        W37162   9.456   8.758   2.364  0.1760 -0.1353  0.0012
21694W        W37163  13.527   7.828  12.843  0.2633  0.2670 -0.0912
21695W        W37164  11.668  11.741  15.414 -0.0229 -0.0600  0.1277
21696W        W37165   7.486  13.850  11.173  0.0839 -0.0211  0.3150
21697W        W37166   4.646   6.734  11.038 -0.1331  0.0951  0.2813
21698W        W37167  10.499  18.214   2.609 -0.4605 -0.0813  0.0168
21699W        W37168   5.556   1.682  12.316  0.0560  0.1174  0.1853
21700W        W37169  11.053  15.082   5.280 -0.2485  0.1884  0.3188
21701W        W37170   8.738  15.679  15.298  0.0970  0.1436  0.0281
21702W        W37171   4.341  16.858  15.029  0.2287 -0.1546 -0.0811
21703W        W37172  15.796   8.806   0.974  0.0310 -0.0397  0.1021
21704W        W37173   8.467   5.347  15.553 -0.0551 -0.0375 -0.0227
21705W        W37174   0.120   8.641   1.202  0.0466  0.0699 -0.0559
21706W        W37175  16.760   1.823  12.118  0.0364  0.0877  0.3633
21707W        W37176  17.959   4.067   2.796 -0.0810 -0.3328 -0.0594
21708W        W37177  17.509   9.577  13.301  0.3915 -0.0953  0.3574
21709W        W37178   2.311   8.858  15.483 -0.0650 -0.1389 -0.0869
21710W        W37179   0.401  13.240   5.188  0.2141  0.1343 -0.0926
21711W        W37180   9.610   9.472  10.948 -0.1022  0.0596 -0.1181
21712W        W37181  12.942  16.175   4.553 -0.0869 -0.0426  0.0315
21713W        W37182  15.537   1.731   1.242 -0.0350  0.0787  0.1870
21714W        W37183  16.053  16.858  14.427 -0.3147 -0.1058 -0.1410
21715W        W37184   4.922  11.046   2.825 -0.0491  0.2742 -0.1239
21716W        W37185   9.975  16.099  12.038 -0.1819 -0.0563 -0.1354
21717W        W37186   4.880   5.713  13.316  0.0407  0.1223 -0.1766
21718W        W37187  12.416  12.598   4.181 -0.2668  0.1078 -0.1117
21719W        W37188   3.653   1.845  14.197 -0.2009 -0.0825  0.0614
21720W        W37189  17.161  13.728   2.500  0.2612  0.1335  0.0057
21721W        W37190   8.146  16.705   0.104 -0.2816 -0.2898 -0.1186
21722W        W37191  17.779   5.513   2.342  0.3033 -0.3435 -0.4156
21723W        W37192   8.950   6.626   3.549  0.0488  0.1338  0.0416
21724W        W37193  15.070  15.999  13.075  0.1594  0.1132  0.0222
21725W        W37194  17.019  13.112  13.958  0.1901 -0.0662 -0.1004
21726W        W37195   3.141   1.488   4.343 -0.0126  0.1709  0.1314
21727W        W37196  15.707  16.905  11.012 -0.0332 -0.1355 -0.0245
21728W        W37197  11.769  16.459   2.907  0.0065 -0.3470 -0.0301
21729W        W37198   4.789   6.356  12.433  0.1505  0.1381  0.0409
21730W        W37199   0.050  11.180   2.881  0.0989  0.1309 -0.2123
21731W        W37200  16.341  16.538   3.741 -0.0918  0.2227 -0.1562
21732W        W37201   9.921   3.640   5.205 -0.1204 -0.1012 -0.2048
21733W        W37202   6.639  17.001  15.322 -0.0302  0.0215 -0.0116
21734W        W37203  18.113   0.909  14.797  0.0215  0.3644 -0.2291
21735W        W37204  15.753  14.729   0.795 -0.1624 -0.1450 -0.0694
21736W        W37205   2.105   2.024  11.546 -0.2815 -0.1795 -0.1252
21737W        W37206  13.786   1.398   2.457 -0.0147 -0.0561 -0.0628
21738W        W37207   9.148   3.697   1.985  0.0519  0.2097 -0.1392
21739W        W37208  17.047  18.556   0.026 -0.3816 -0.0012  0.1041
21740W        W37209   9.653  18.276  14.648  0.0803 -0.2743  0.1230
21741W        W37210  18.243  12.841   0.705  0.0199  0.2876 -0.1538
21742W        W37211   5.949   9.221  11.956  0.1308 -0.1214 -0.0657
21743W        W37212   1.177  10.136   4.797 -0.1667 -0.0065 -0.3203
21744W        W37213   7.854  10.814  12.273  0.1063  0.2817  0.1862
21745W        W37214  14.383  12.770   4.839  0.0274  0.0525  0.1530
21746W        W37215   6.569   4.217  12.786 -0.0329  0.0488  0.5432
21747W        W37216   2.063  18.591   1.802 -0.1185  0.2443 -0.0927
21748W        W37217   3.529  12.414  12.603 -0.1569  0.1957 -0.1927
21749W        W37218   3.885  10.440  12.108  0.0917  0.0770  0.0782
21750W        W37219  10.323  10.552   3.359 -0.0809  0.2078 -0.0493
21751W        W37220   5.463  13.903  14.543 -0.0476 -0.1758 -0.2687
21752W        W37221  14.913   1.383  15.717 -0.0388 -0.1425 -0.1190
21753W        W37222   5.932  17.950   1.753  0.0779 -0.0771 -0.0535
21754W        W37223  17.561   9.318  15.537  0.0117  0.3646 -0.0231
21755W        W37224   4.596   1.413   0.787  0.0157  0.2786 -0.0965
21756W        W37225   6.223   2.085   1.808  0.1399 -0.1700  0.0002
21757W        W37226   6.661  10.997   4.418  0.4071  0.0669 -0.0425
21758W        W37227   0.057   8.176   4.014 -0.1534 -0.0335 -0.3709
21759W        W37228  10.144   2.437   1.032  0.1517  0.0581  0.2078
21760W        W37229   6.661   7.258  11.219 -0.2188 -0.0365 -0.1584
21761W        W37230   4.956   4.685  15.683  0.1351  0.0800 -0.0633
21762W        W37231  17.698   7.750  10.040 -0.1840  0.1778  0.0229
21763W        W37232   8.850   3.332  13.727  0.0943  0.1137 -0.0085
21764W        W37233   8.495  14.893  12.332  0.2692  0.0933  0.0556
21765W        W37234   9.776  12.637   1.852  0.2106 -0.0806  0.1487
21766W        W37235   2.668  17.060   1.296 -0.1341  0.1039 -0.1748
21767W        W37236   1.238  13.751   2.883  0.1618 -0.1601  0.2415
21768W        W37237   6.930   1.646  11.021  0.1345 -0.1070  0.0594
21769W        W37238   9.247   6.983   4.355 -0.0185 -0.5584 -0.0010
21770W        W37239  13.767  13.316   4.913 -0.2434 -0.0792 -0.0580
21771W        W37240   1.218   6.487   3.181  0.1596  0.0236  0.2571
21772W        W37241  16.661  12.877   1.932 -0.2055 -0.0934  0.2835
21773W        W37242  14.153  17.302   1.988 -0.3161 -0.0633 -0.1974
21774W        W37243  16.062  18.108  13.192 -0.0647 -0.0734  0.0885
21775W        W37244   8.797  17.843   0.598  0.1726 -0.2623 -0.1252
21776W        W37245   7.238   4.890  15.315  0.2167 -0.3928 -0.1053
21777W        W37246   6.786  14.902  13.209 -0.2216 -0.1623 -0.1018
21778W        W37247   9.333   6.651   3.053  0.0595 -0.0120  0.2862
21779W        W37248  18.050  15.470  14.766 -0.1438  0.1131  0.1608
21780W        W37249  14.534  10.638  13.794  0.2161 -0.1158  0.1806
21781W        W37250   9.631   7.381   0.663  0.2344 -0.0090 -0.1535
21782W        W37251   9.635  11.652  12.719  0.1212 -0.3233 -0.2654
21783W        W37252   3.433   9.146  12.928 -0.1352 -0.1012 -0.0241
21784W        W37253   1.237   0.981   4.694 -0.0971 -0.0600  0.2359
21785W        W37254  13.236   7.444   2.334 -0.0278 -0.1198 -0.0392
21786W        W37255  14.194  11.222   0.212  0.0658 -0.1143 -0.0229
21787W        W37256   6.088  11.803   4.566  0.3502  0.0029  0.5378
21788W        W37257  10.241  14.591   4.690  0.1574  0.1986 -0.1537
21789W        W37258   2.823   3.648  14.260 -0.0419 -0.0928  0.3562
21790W        W37259   2.702   1.694   4.617  0.3511  0.1447 -0.0614
21791W        W37260  12.973   0.706   6.177 -0.1420  0.1489 -0.1729
21792W        W37261   7.322  13.695  10.720  0.2401 -0.2869  0.1890
21793W        W37262   2.829  12.576  13.998  0.0195  0.1106  0.2509
21794W        W37263   0.520  17.767   3.207 -0.1811 -0.5017  0.2134
21795W        W37264  15.082  12.978  13.367 -0.0467  0.1540  0.2588
21796W        W37265   3.873  12.321  15.685  0.0221  0.0296 -0.0379
21797W        W37266   9.982  16.816  10.005 -0.1485  0.3341  0.0900
21798W        W37267  10.877  13.917  14.302 -0.1050  0.0999 -0.2003
21799W        W37268  17.668   1.893  10.480  0.2235  0.0154  0.3613
21800W        W37269   6.936  14.518  12.134 -0.1473 -0.2533  0.1011
21801W        W37270   6.764   3.082  14.165  0.2205 -0.2618  0.0785
21802W        W37271   2.419  16.121  12.191 -0.0229 -0.0219 -0.2218
21803W        W37272   7.349   2.280   2.244 -0.2245 -0.2387 -0.1240
21804W        W37273   7.259  18.461   3.974 -0.0547 -0.1804 -0.3306
21805W        W37274   9.920   7.341  14.648 -0.1424 -0.0452  0.1423
21806W        W37275  13.214   2.135   0.095 -0.0388 -0.2079 -0.0044
21807W        W37276  11.383   8.796  12.846  0.1752  0.2699 -0.0418
21808W        W37277  15.161  10.701  10.842 -0.0016  0.1372 -0.1340
21809W        W37278   7.189   2.121  11.115  0.0395  0.3465  0.0271
21810W        W37279  12.865  13.736   5.519 -0.0846  0.0805 -0.0896
21811W        W37280  13.750  13.166   2.335  0.1463  0.0263 -0.0710
21812W        W37281   2.327   7.702  10.171 -0.0510  0.2022  0.0032
21813W        W37282   9.594   4.714  11.653 -0.2216  0.1109  0.0867
21814W        W37283  12.066   3.629  11.418  0.0521  0.1334  0.1245
21815W        W37284   6.352   7.144   9.891  0.0608 -0.0340  0.2668
21816W        W37285  16.191   3.162   1.538  0.1035  0.1234  0.0451
21817W        W37286   1.436   7.414  10.367 -0.1440 -0.2973 -0.0792
21818W        W37287   6.137   0.421  13.585  0.0169  0.0086  0.0233
21819W        W37288   7.999  14.027   3.824 -0.0557 -0.0100 -0.2617
21820W        W37289  16.369   0.097   4.029 -0.0921 -0.1427  0.1441
21821W        W37290  16.479   0.775   0.983 -0.2059  0.0724 -0.2337
21822W        W37291  12.556   3.726  14.706 -0.3225 -0.0095 -0.0796
21823W        W37292   0.688   7.154  15.270  0.0193  0.0523 -0.0018
21824W        W37293   2.352   9.681   5.050 -0.0844  0.0096 -0.2758
21825W        W37294  11.502  10.685   5.125  0.0415  0.0871 -0.1657
21826W        W37295   8.774   9.444  11.754  0.1172 -0.2829 -0.2573
21827W        W37296   4.382   6.873  10.502 -0.4105 -0.0096 -0.1436
21828W        W37297   7.743  16.272   5.902  0.2944 -0.0791  0.1152
21829W        W37298  18.421  16.041   1.963 -0.4213  0.1651 -0.1047
21830W        W37299   4.645   9.908  12.551  0.0663  0.5546  0.3407
21831W        W37300  18.336   5.052   0.777 -0.0913 -0.3658 -0.1320
21832W        W37301  14.179   1.396   1.626 -0.0271  0.2699 -0.1384
21833W        W37302  18.124  15.661   3.212  0.2762  0.2052  0.0684
21834W        W37303  11.211   3.202  13.463  0.1671  0.1890  0.2171
21835W        W37304  14.892  13.975   4.871 -0.0425 -0.2270 -0.2492
21836W        W37305   0.705  13.304   1.118 -0.1262  0.0187 -0.1383
21837W        W37306   4.925   6.746   2.155  0.0546  0.2234  0.0032
21838W        W37307   3.499  17.025   3.257 -0.1109 -0.2552 -0.1386
21839W        W37308  14.890   2.644  14.366 -0.1710 -0.0412  0.0783
21840W        W37309   2.897   6.496   0.403  0.5633  0.3114 -0.2316
21841W        W37310  13.613  10.667  11.048  0.0766  0.0958  0.1677
21842W        W37311  15.942   4.595  15.739 -0.0114 -0.1926  0.2193
21843W        W37312  17.374   4.039  12.909  0.1147 -0.0046 -0.2398
21844W        W37313  17.305  16.127  12.383 -0.1444  0.1007  0.0272
21845W        W37314   9.003  14.733  14.855 -0.2015  0.0916  0.1254
21846W        W37315   6.698   2.549  13.542 -0.1440  0.0501  0.1625
21847W        W37316  15.419   9.140  11.893 -0.1571 -0.1959 -0.0550
21848W        W37317   8.247   6.198   4.468 -0.0160 -0.5036  0.1269
21849W        W37318  16.039  10.077   0.631  0.0719 -0.0606 -0.0524
21850W        W37319   1.799  15.107   2.801  0.1917 -0.3382 -0.0564
21851W        W37320  15.593   9.456   3.944  0.2352  0.1161  0.3192
21852W        W37321  12.360   4.648  11.010 -0.1480 -0.0318  0.2484
21853W        W37322  16.633  12.379   4.337 -0.1487  0.1852  0.3271
21854W        W37323  10.156   3.119  15.076  0.3991 -0.0002  0.0036
21855W        W37324  13.623   7.215   5.093 -0.0300 -0.0793 -0.1927
21856W        W37325   1.667   1.917   5.075  0.1090 -0.1404  0.2655
21857W        W37326  10.719  14.301  15.270  0.0304  0.1266 -0.2155
21858W        W37327   3.339  11.699   4.421 -0.0082 -0.3732 -0.1058
21859W        W37328  11.835   1.103  10.808  0.3464  0.1466  0.0545
21860W        W37329  15.816   5.945  15.761  0.0686 -0.0134  0.2442
21861W        W37330   9.487   7.261  13.209  0.3189  0.0729 -0.0842
21862W        W37331   0.022   9.159  14.976 -0.3511  0.2476  0.2696
21863W        W37332   0.240  13.205   1.953  0.0961 -0.2300 -0.0958
21864W        W37333  10.205   4.726  13.163  0.2486  0.1430 -0.0265
21865W        W37334   0.698   8.862   0.562 -0.0498  0.0081  0.1422
21866W        W37335   1.856  17.890   2.317  0.2329  0.0651 -0.0939
21867W        W37336  10.561  13.512  12.701  0.1088  0.2438 -0.1088
21868W        W37337  16.392  18.121   2.547  0.0044  0.0898 -0.0251
21869W        W37338   4.978  11.914  13.776  0.2060 -0.3224  0.1951
21870W        W37339  14.049  13.887  14.013  0.4113 -0.0109  0.1133
21871W        W37340   9.254  16.290  15.777  0.0432  0.1150  0.0163
21872W        W37341  16.581   3.830  13.523 -0.3501  0.1130  0.0587
21873W        W37342   6.099  15.023   0.614 -0.0132 -0.0134 -0.1509
21874W        W37343  13.570  12.046   5.209 -0.0013 -0.0065  0.0656
21875W        W37344   1.664  10.956  13.764 -0.2812  0.1620  0.3005
21876W        W37345   8.418   2.868   0.140  0.4011  0.1922  0.1906
21877W        W37346   1.473  14.310  14.455 -0.4344  0.2577  0.3684
21878W        W37347   8.992  12.673   1.541  0.3893  0.0927 -0.0440
21879W        W37348   0.486   2.835   4.395  0.0868  0.0984 -0.0557
21880W        W37349  15.742  16.276   0.641 -0.1428 -0.0991  0.1569
21881W        W37350   8.225  16.686   1.238  0.5269  0.1008  0.0577
21882W        W37351  12.602   0.162   2.559  0.2002  0.2412 -0.0981
21883W        W37352   1.117   2.556   0.329  0.1866  0.0891  0.0913
21884W        W37353  14.243   6.346   3.114 -0.1258 -0.2531  0.3158
21885W        W37354  15.367   4.298   1.895 -0.1242  0.3726  0.0747
21886W        W37355  10.145   0.982   0.741 -0.3187  0.1879 -0.0736
21887W        W37356   4.164   8.159  14.637  0.1669 -0.0653 -0.1495
21888W        W37357  18.549   2.304  10.414 -0.1708  0.3886 -0.0190
21889W        W37358   8.301  16.725  15.166 -0.2238 -0.0056 -0.0557
21890W        W37359  15.461   0.991  11.985  0.3011  0.0838  0.0456
21891W        W37360  15.144  13.822  10.308 -0.1750 -0.2986  0.1830
21892W        W37361   7.319  11.014  12.482  0.0566  0.1674 -0.0557
21893W        W37362   5.014   4.117  13.024 -0.0132 -0.1538 -0.0252
21894W        W37363  11.786  13.486  13.966 -0.1180  0.0625  0.1041
21895W        W37364  12.143   4.475  15.037 -0.0024  0.0882 -0.2055
21896W        W37365  11.533  13.131   3.508 -0.1039  0.0730  0.1620
21897W        W37366  17.197  13.455   4.095  0.0227 -0.1283  0.0842
21898W        W37367  10.125   1.493  12.569 -0.2045  0.4087 -0.1185
21899W        W37368   5.900   4.064  13.767 -0.2980  0.0582 -0.0093
21900W        W37369   6.199  12.283  12.907 -0.0985 -0.3182 -0.2241
21901W        W37370  11.993   6.818  13.241  0.2163 -0.1261 -0.1174
21902W        W37371  15.980   1.357   2.242 -0.1466  0.0157 -0.1070
21903W        W37372   3.750   4.263   1.997  0.2239  0.1372 -0.1072
21904W        W37373   1.711   1.945   0.131 -0.1259 -0.3906  0.1266
21905W        W37374   8.265   6.487  15.516 -0.2370 -0.0796  0.2479
21906W        W37375   5.231  14.071   0.831 -0.2731 -0.2612 -0.1249
21907W        W37376  10.941  18.066   1.590 -0.1488  0.1857 -0.2253
21908W        W37377  16.113  14.994   3.914  0.3883 -0.1160  0.0157
21909W        W37378   7.039   3.423  15.542  0.1195 -0.0240  0.1817
21910W        W37379   8.765   0.443  12.094  0.0791 -0.0828 -0.0725
21911W        W37380   5.912  10.298   3.407 -0.1725  0.0046 -0.5429
21912W        W37381   3.824   6.282   2.064  0.1368  0.0135 -0.0054
21913W        W37382  15.184   4.014  14.978 -0.0928  0.1752 -0.3629
21914W        W37383   2.213  10.166   1.931  0.0618  0.0825  0.1134
21915W        W37384   0.916  15.166   3.111  0.1035  0.0184  0.2360
21916W        W37385   7.321   9.924  15.484  0.0119 -0.0431 -0.0246
21917W        W37386  10.976  16.252  10.712  0.0384  0.2045 -0.1483
21918W        W37387   1.001  17.145  15.761 -0.0003 -0.0588 -0.2325
21919W        W37388  15.718   1.931   3.463 -0.0321 -0.0646 -0.0738
21920W        W37389   7.239  10.473  14.600  0.0067 -0.1909  0.0083
21921W        W37390  10.661  15.831  10.054  0.1432  0.2625 -0.2402
21922W        W37391  12.635  10.050  12.247 -0.1825 -0.2235  0.0124
21923W        W37392  12.484   6.406   2.503 -0.0060  0.2705  0.0826
21924W        W37393  11.484   4.535  11.876  0.1733 -0.0047 -0.0613
21925W        W37394  18.308   3.794   4.907  0.0596 -0.1650 -0.1920
21926W        W37395   2.962  16.626  10.410  0.0144  0.0796 -0.0449
21927W        W37396   4.849  15.196   5.976  0.2697 -0.1064 -0.2584
21928W        W37397   2.917   7.638  12.510  0.1736  0.0740  0.2193
21929W        W37398   1.327   3.735   1.333  0.0303  0.1569 -0.0673
21930W        W37399  10.691  15.912   3.087 -0.1863 -0.0727 -0.0064
21931W        W37400   8.359   1.709  11.508 -0.3172  0.1627  0.0242
21932W        W37401   0.338  10.532   1.734 -0.3068 -0.2676  0.1021
21933W        W37402  15.854   7.628  15.556  0.0432 -0.0405 -0.5726
21934W        W37403   5.358  12.348   1.302  0.3059 -0.1414 -0.4246
21935W        W37404  11.622  11.390  11.245 -0.0910 -0.1007 -0.0657
21936W        W37405   7.839  12.857   4.438  0.1317 -0.0135 -0.1382
21937W        W37406   0.840  15.025  14.328 -0.0274  0.1117 -0.0837
21938W        W37407  13.386   6.204  14.530 -0.1929 -0.1103 -0.1481
21939W        W37408   5.681   8.894  13.326  0.0744  0.2492  0.1899
21940W        W37409   4.352   3.719  14.947 -0.1948 -0.1453  0.0707
21941W        W37410   2.185   3.557  13.052 -0.1107 -0.2275 -0.3865
21942W        W37411   7.461  17.545  15.094 -0.0835 -0.0707  0.1424
21943W        W37412  17.018   3.901   9.528  0.0473  0.3133  0.0374
21944W        W37413   6.456  15.206  15.203 -0.1154  0.0579  0.2861
21945W        W37414   0.405  10.857  14.605  0.1139  0.0111  0.0916
21946W        W37415   4.093   9.831   2.047 -0.1612 -0.1115 -0.2461
21947W        W37416   2.694   9.719  12.547  0.2099 -0.1975  0.1204
21948W        W37417   6.424  10.604   2.341 -0.1151 -0.2599  0.0978
21949W        W37418  14.229   8.159   4.282  0.0909 -0.2784 -0.0208
21950W        W37419   0.522   1.547   4.606  0.0477 -0.0403 -0.0070
21951W        W37420   4.395   5.172  13.255 -0.0966  0.2781 -0.1180
21952W        W37421  14.745   9.883  14.080  0.1354  0.0519 -0.1810
21953W        W37422  15.292  15.441   3.629 -0.1780  0.0151  0.0394
21954W        W37423  10.674  12.412   3.101  0.1406 -0.2336  0.0488
21955W        W37424  15.126   9.485   5.248  0.3836 -0.2367  0.0714
21956W        W37425  10.199   1.006   4.838  0.0716  0.0250 -0.0342
21957W        W37426  16.937  16.808   5.362  0.3765  0.2759 -0.0129
21958W        W37427   2.521  13.118  12.587  0.0384 -0.2222 -0.2919
21959W        W37428  12.822  10.571   3.104  0.0444 -0.1676  0.2913
21960W        W37429   2.083  17.443   4.770  0.0400  0.0497 -0.0315
21961W        W37430   6.369  16.628   0.954  0.0036  0.3272 -0.0194
21962W        W37431   4.484   3.565  12.103  0.2034  0.0076  0.1479
21963W        W37432  15.588  14.439   1.959 -0.1660 -0.1246 -0.1644
21964W        W37433   7.250  18.223  11.794  0.0055 -0.0228 -0.1436
21965W        W37434   9.681   5.645  12.675 -0.0278  0.0957 -0.0235
21966W        W37435  10.641  16.558  15.562 -0.0353 -0.2892 -0.1466
21967W        W37436  15.597  16.328   3.433  0.2745  0.0888  0.2708
21968W        W37437   0.349   9.268   3.136  0.2513  0.1494  0.0211
21969W        W37438  12.490  14.716   4.404  0.0889 -0.0201 -0.0684
21970W        W37439   0.039  11.928   1.722  0.1061 -0.0273 -0.0720
21971W        W37440  13.767   9.393   5.413  0.0149  0.1216 -0.1506
21972W        W37441   4.039   2.154   1.081 -0.3515  0.1420 -0.0480
21973W        W37442  13.465   1.035   2.205 -0.0926 -0.1241  0.0726
21974W        W37443  13.848   3.462  15.353  0.1350 -0.2278 -0.0924
21975W        W37444  18.253   4.005  10.188  0.1292 -0.2251  0.1481
21976W        W37445   0.586  16.532   0.550 -0.0532  0.1599  0.2775
21977W        W37446  14.677   7.914   5.104  0.0556  0.0672 -0.2661
21978W        W37447   3.730   2.549  15.560  0.2036 -0.0037  0.1165
21979W        W37448  14.356   6.413  14.548 -0.1103  0.0858  0.1411
21980W        W37449   9.816   7.444   3.547 -0.2080  0.0050  0.1059
21981W        W37450  13.584  15.140  15.278 -0.1846 -0.2816  0.1872
21982W        W37451   1.629  11.142  10.759 -0.2416 -0.1424  0.0238
21983W        W37452   4.889   4.374  14.500 -0.2685 -0.0902 -0.0048
21984W        W37453   1.411  10.424   2.528 -0.1223  0.1626  0.1171
21985W        W37454   2.013   0.956   1.521  0.0748 -0.1002 -0.0223
21986W        W37455  16.517  10.613  10.859 -0.2514  0.0979  0.1082
21987W        W37456  15.209   8.401  12.497  0.0425 -0.2636  0.1459
21988W        W37457  13.362   4.671   3.846  0.0443 -0.1487  0.1375
21989W        W37458   8.908  18.293   0.843  0.3630 -0.0656  0.1427
21990W        W37459   0.027   7.299   0.032  0.2105  0.3475  0.0495
21991W        W37460  11.059  15.361  13.222  0.0306 -0.1288 -0.3267
21992W        W37461  10.106  16.774  12.394 -0.5785 -0.1176 -0.0109
21993W        W37462  10.213  10.663  14.854 -0.3075 -0.1334 -0.0611
21994W        W37463  15.866   9.053  15.645 -0.0648 -0.1648 -0.1534
21995W        W37464  10.037   7.591   0.375  0.0534  0.0417 -0.0103
21996W        W37465   5.739   1.371   4.956  0.0597  0.0948  0.1032
21997W        W37466   2.784  14.241  13.145 -0.0671  0.4349  0.1753
21998W        W37467  12.621   5.628  11.298 -0.1663 -0.3228  0.1967
21999W        W37468  14.976   0.810   0.187 -0.1725 -0.1998 -0.2582
22000W        W37469   1.302   4.753  12.530  0.0113 -0.2246 -0.0867
22001W        W37470   1.883   5.497   3.109  0.2635  0.1921  0.0610
22002W        W37471   8.691  18.316   5.729 -0.3319 -0.4109  0.0205
22003W        W37472  18.151   7.108   0.097 -0.0052  0.2148 -0.0875
22004W        W37473  12.990   8.211   0.186 -0.3023  0.3037  0.1629
22005W        W37474   0.664   4.727   2.947 -0.1577  0.0787 -0.1443
22006W        W37475  11.416   8.738  14.887 -0.1284  0.0097 -0.2325
22007W        W37476  14.125  14.659   3.943 -0.3117 -0.0388  0.1221
22008W        W37477  13.123   8.051  14.240 -0.2421 -0.0653 -0.0791
22009W        W37478  12.915  16.638   3.283  0.0248 -0.0805  0.0013
22010W        W37479  10.839  10.717  13.966  0.0961  0.0053  0.2496
22011W        W37480   4.389  12.768  10.681  0.4996  0.0127  0.4554
22012W        W37481  13.129   5.730  13.476  0.1144  0.0101 -0.0572
22013W        W37482  13.080  16.824  15.032  0.0039  0.0879  0.0382
22014W        W37483   7.897   0.059  15.263 -0.0883  0.1438 -0.1328
22015W        W37484  16.233  15.902  10.862 -0.0630  0.2601  0.2209
22016W        W37485  18.324   7.447  14.303 -0.1044 -0.2123 -0.2136
22017W        W37486  12.144   1.376  10.483 -0.0703 -0.0679 -0.2191
22018W        W37487  17.710  12.046  11.462  0.2048  0.1929 -0.0175
22019W        W37488  18.167  14.753  15.183 -0.2085 -0.3103  0.0851
22020W        W37489   0.011   7.175   0.483  0.1889  0.1924 -0.0085
22021W        W37490  11.380  13.681  15.301 -0.2402 -0.0654  0.3148
22022W        W37491   1.042  14.848   4.067  0.0930  0.0095  0.2913
22023W        W37492  13.937  10.154  11.758 -0.1906 -0.3018  0.4200
22024W        W37493   0.884  11.119  14.120  0.1053  0.1768  0.2793
22025W        W37494  14.046  14.407  14.763  0.2689 -0.0485  0.4526
22026W        W37495   7.391  16.913   1.227  0.0433 -0.5440  0.1029
22027W        W37496   2.367   0.310  11.019 -0.1116  0.1308  0.1289
22028W        W37497   0.298   4.527   1.069  0.2509  0.0257 -0.0051
22029W        W37498   3.006  14.513   6.068 -0.0588  0.0666  0.3322
22030W        W37499   0.174   3.554  15.130 -0.1301 -0.0738 -0.1058
22031W        W37500  13.116   9.649   4.590 -0.0879  0.1589  0.1420
22032W        W37501   9.778  17.990  15.063  0.2217  0.1245 -0.4223
22033W        W37502   7.115   5.213  12.970  0.0165  0.2107 -0.0158
22034W        W37503  16.706   9.777  13.919 -0.2139  0.1517  0.0667
22035W        W37504  18.007  18.601  10.566  0.2608  0.1365  0.3644
22036W        W37505  11.301   0.485   2.468  0.2007  0.1240 -0.0313
22037W        W37506  11.440   4.156   2.525 -0.1301 -0.1303 -0.3732
22038W        W37507   3.692   2.163   9.697  0.1562  0.0107  0.0462
22039W        W37508   8.250  17.085   5.378  0.1247 -0.1035  0.0283
22040W        W37509  16.194  16.075   0.736  0.1788  0.1265  0.2403
22041W        W37510   6.794   1.839  15.541 -0.0705 -0.3092 -0.1796
22042W        W37511   5.676  18.081   0.662  0.2358  0.2741  0.0343
22043W        W37512  10.678   0.594  13.068 -0.0360  0.0421  0.2328
22044W        W37513   6.171   4.580  11.889  0.1050  0.4291  0.0728
22045W        W37514  15.937  17.521   3.586 -0.0042 -0.2661  0.0878
22046W        W37515  11.342  15.954   4.378  0.1791 -0.1082 -0.0512
22047W        W37516   5.557   9.819  12.810  0.0931  0.3415 -0.1517
22048W        W37517  17.514   9.649  11.798  0.0879  0.2353 -0.4136
22049W        W37518   7.566  12.386  11.807  0.1847 -0.0810  0.0274
22050W        W37519  10.824   9.393   1.604 -0.4588  0.0522  0.0987
22051W        W37520   5.250   1.262   1.427  0.0754 -0.3640  0.1493
22052W        W37521  12.559   8.347  10.685  0.0434 -0.0848  0.0083
22053W        W37522   9.546  11.923  13.237  0.2052 -0.0119 -0.5172
22054W        W37523  17.075   8.978   0.189  0.2822 -0.0672  0.0852
22055W        W37524   0.804   0.214   4.226  0.0958  0.0098  0.0459
22056W        W37525   2.754  12.788   0.821 -0.0313  0.0297 -0.1150
22057W        W37526   5.893  12.767   3.209 -0.1415 -0.0195 -0.2976
22058W        W37527   0.347  12.969  12.588 -0.1957  0.0694 -0.3409
22059W        W37528   6.633  17.312   2.743  0.2790  0.0256 -0.3430
22060W        W37529  11.150   7.796   2.516  0.0924  0.0036 -0.1062
22061W        W37530  11.247  18.497   2.155  0.0162  0.0547 -0.3750
22062W        W37531   7.700   2.706  13.032  0.0275  0.0303  0.2163
22063W        W37532   8.043  14.068   4.355  0.0360 -0.0232 -0.1549
22064W        W37533  14.625  13.619  12.827 -0.0490 -0.4550 -0.0877
22065W        W37534  14.716   1.295  10.904  0.0913 -0.2501  0.0765
22066W        W37535   4.780  11.676   5.023 -0.3335  0.0991 -0.1543
22067W        W37536   0.715   9.667  11.906 -0.0866 -0.0474 -0.1447
22068W        W37537   0.876   2.248  12.481  0.0235  0.1536  0.0013
22069W        W37538   6.457  14.429  13.581 -0.1900 -0.1330 -0.2582
22070W        W37539   2.857  14.111   1.438  0.2152 -0.2016  0.1845
22071W        W37540  14.927  10.117   2.648  0.0105  0.0964 -0.4958
22072W        W37541  14.216   9.482   0.694  0.3526  0.3080 -0.1680
22073W        W37542   0.261   0.221   1.117 -0.2081 -0.0428 -0.1824
22074W        W37543   7.017  16.998   5.197 -0.0040  0.0371 -0.0537
22075W        W37544   0.873   2.585   3.334 -0.1410  0.0160  0.0669
22076W        W37545  16.528  10.184   0.808  0.0071 -0.1795 -0.0120
22077W        W37546  14.847  12.443   6.128 -0.1138 -0.3136  0.0429
22078W        W37547   4.632   5.770  10.806 -0.2377  0.1946 -0.5101
22079W        W37548  17.732   7.822  11.743  0.1451 -0.1094  0.1931
22080W        W37549   3.686  12.059   0.946  0.2171  0.0627 -0.0480
22081W        W37550  16.873   3.296   3.649  0.1881  0.0513  0.2489
22082W        W37551   7.101  10.127   2.551 -0.1627 -0.1778 -0.0621
22083W        W37552   1.814  11.490   0.339 -0.1540  0.1253  0.1123
22084W        W37553   8.439   1.781  12.461 -0.0070  0.0354 -0.0031
22085W        W37554  12.647   2.872   2.217  0.3552 -0.1274 -0.0210
22086W        W37555   6.359   4.880   0.501 -0.0152 -0.1564 -0.3116
22087W        W37556  12.019  13.138   3.582 -0.0304 -0.0317  0.0767
22088W        W37557  18.489   1.676   0.953  0.1047 -0.3347 -0.0743
22089W        W37558   8.059   7.623   6.326  0.4101  0.0983  0.0396
22090W        W37559  15.863   5.870   2.153  0.0408  0.0462  0.0698
22091W        W37560  14.648   0.735   3.998 -0.1674 -0.0066 -0.1584
22092W        W37561  13.857  11.767  13.813 -0.0341  0.0035 -0.0218
22093W        W37562  10.678   9.343  11.719 -0.0926  0.0349 -0.0279
22094W        W37563   0.386  12.958  11.123  0.0115 -0.0741 -0.4344
22095W        W37564  15.760   5.707   0.543 -0.1600  0.1596  0.0057
22096W        W37565  16.518   8.264  10.197  0.1404  0.2353 -0.1437
22097W        W37566  18.398  18.339  10.318 -0.3175 -0.0716  0.3380
22098W        W37567   5.287   3.667   5.530  0.0801  0.0615 -0.0898
22099W        W37568   3.171  13.858  13.101  0.0298  0.4237 -0.2448
22100W        W37569  10.664   9.378  12.529  0.0014 -0.0684 -0.0385
22101W        W37570   6.211   7.613   9.796  0.4036 -0.2989 -0.0602
22102W        W37571   4.422   0.127   4.706 -0.2247  0.2318 -0.1483
22103W        W37572   3.644  10.382  13.467  0.0795 -0.2556  0.2950
22104W        W37573  12.372   6.003   1.184 -0.1184  0.4672  0.1252
22105W        W37574  12.245   8.212  14.436  0.3087 -0.2853  0.2152
22106W        W37575   2.216   1.979  15.778 -0.0587 -0.3292 -0.1742
22107W        W37576   3.000   6.182  12.715 -0.1426 -0.2616 -0.1136
22108W        W37577   6.956   3.822  10.229 -0.0298 -0.1556  0.0445
22109W        W37578  16.934   4.990   0.768  0.0073  0.4021 -0.2841
22110W        W37579  17.441   4.702   1.142 -0.0692  0.1957 -0.0843
22111W        W37580  11.341   4.060  13.324 -0.1403  0.0203  0.4672
22112W        W37581  13.286   8.553  14.134  0.1541 -0.2058  0.0636
22113W        W37582   3.535  13.893  12.081 -0.0904  0.3863 -0.2090
22114W        W37583   7.835  12.579  11.310 -0.3197  0.2076  0.0792
22115W        W37584   5.187  16.184   4.139 -0.0677 -0.1115  0.0934
22116W        W37585  17.998   8.272  11.714 -0.2355  0.1824  0.0572
22117W        W37586   2.846   1.431  10.877 -0.0572 -0.0788  0.2079
22118W        W37587  16.871   5.715  14.783  0.5871 -0.2626  0.1909
22119W        W37588  18.166  13.526   1.493 -0.1517  0.0197  0.0753
22120W        W37589  11.119   6.623  11.126 -0.0812  0.0782  0.3999
22121W        W37590   5.240   6.399   1.974 -0.1087 -0.0644 -0.0859
22122W        W37591   9.232  11.312  12.916  0.2105 -0.1821  0.2104
22123W        W37592   9.726   6.854  10.804 -0.2292 -0.0295 -0.1569
22124W        W37593  11.426   5.260   1.821 -0.0416 -0.1148 -0.0514
22125W        W37594  16.685  16.200   3.973  0.0800 -0.2008 -0.1271
22126W        W37595  11.759  11.253   1.016  0.1129  0.1424 -0.0187
22127W        W37596  13.160  14.095  14.033 -0.0593  0.1970  0.0988
22128W        W37597  13.474  15.454   1.756 -0.3123 -0.1944  0.0058
22129W        W37598   2.916   2.690   4.596 -0.3564  0.1122 -0.1275
22130W        W37599   2.063  16.073  11.843 -0.0250 -0.2187 -0.1414
22131W        W37600  11.476   3.596   6.140  0.2237  0.0987 -0.0605
22132W        W37601  12.608   1.396   6.084 -0.1868 -0.0248 -0.0575
22133W        W37602   5.153  10.619   0.709 -0.1507 -0.2849 -0.2695
22134W        W37603  16.794  11.355   1.875  0.0493 -0.0910  0.0533
22135W        W37604   9.799  12.383  13.478 -0.0885 -0.0740 -0.0443
22136W        W37605   4.586  13.863   2.908 -0.2087  0.0113 -0.0670
22137W        W37606  10.787   2.966   6.441 -0.1417  0.3086  0.0973
22138W        W37607   0.977  16.141   3.673  0.1983 -0.1407 -0.0318
22139W        W37608  17.360   2.181  10.880 -0.0235 -0.0868 -0.0749
22140W        W37609   2.902  17.503  15.779 -0.0448 -0.0253 -0.1999
22141W        W37610   3.315  18.613   1.687  0.2936  0.1743 -0.1343
22142W        W37611   5.302  13.706   4.919  0.2974 -0.0179  0.0219
22143W        W37612  15.364  12.816  11.906 -0.0526 -0.1396  0.1011
22144W        W37613  13.550  13.496   0.496  0.1092  0.2216  0.0719
22145W        W37614   1.084  16.773   5.806 -0.0611 -0.0449  0.0656
22146W        W37615   9.586   9.501   0.451 -0.0127 -0.1229 -0.0641
22147W        W37616   6.947  16.082   9.794 -0.2219 -0.2979  0.3352
22148W        W37617   7.625   4.708   3.187 -0.2404 -0.3307  0.1196
22149W        W37618  15.654  10.892  10.913 -0.1241  0.5094  0.1195
22150W        W37619   7.805   6.921  10.711  0.2461 -0.2406 -0.0966
22151W        W37620   6.660   0.541  14.705  0.1637 -0.2859 -0.0874
22152W        W37621   4.224  13.468  14.674 -0.1582 -0.1836  0.0085
22153W        W37622  13.323   9.839  15.505 -0.3250  0.1190  0.0226
22154W        W37623   7.919   3.858  13.594  0.0541 -0.4152  0.2110
22155W        W37624   3.907  13.979  11.466 -0.3511  0.2650 -0.0768
22156W        W37625  13.421   2.715  15.012  0.0121  0.2515 -0.0244
22157W        W37626  16.728  15.339   0.954 -0.3627 -0.2973  0.0810
22158W        W37627   4.405  17.971  12.080 -0.0488  0.1003 -0.0676
22159W        W37628  18.388   7.265  15.364 -0.1122  0.2522  0.2757
22160W        W37629  10.319  13.864  12.375 -0.1677  0.1189 -0.1578
22161W        W37630   0.126   3.607   3.634  0.3065  0.0342  0.0204
22162W        W37631  18.507  12.586  11.774 -0.1420  0.1583 -0.1117
22163W        W37632   9.470  13.078  10.995 -0.0245 -0.1850 -0.0828
22164W        W37633   3.905   1.850   5.307 -0.2079 -0.1939  0.6106
22165W        W37634  17.528  10.619   0.653  0.2494 -0.0141 -0.3365
22166W        W37635  17.268   4.759   4.855 -0.0221 -0.0549  0.0469
22167W        W37636   1.482   9.665  13.532  0.4253 -0.2722  0.0741
22168W        W37637   2.211   0.329   3.257 -0.1011  0.1883  0.0284
22169W        W37638  10.190  10.058  11.203 -0.1673 -0.0193  0.0551
22170W        W37639  12.628   3.879   5.695  0.4903  0.0544  0.2126
22171W        W37640  15.378   6.122   1.096  0.1258 -0.0288 -0.1375
22172W        W37641  11.329   2.448   3.336  0.1691 -0.3362  0.0610
22173W        W37642   3.152   9.155   0.400 -0.0809  0.2122  0.1426
22174W        W37643   4.916  17.792  11.656 -0.1102  0.1332  0.0503
22175W        W37644   9.333  11.269   5.096  0.1139  0.3314 -0.0789
22176W        W37645   2.914   9.440  12.194  0.1984 -0.2214  0.2187
22177W        W37646   0.290   6.929  10.263  0.0840  0.1725  0.1176
22178W        W37647  11.630  18.438   5.217 -0.2509  0.2265  0.3504
22179W        W37648   4.971   4.619   2.720 -0.0765 -0.1550  0.1301
22180W        W37649   3.588  18.371   0.844  0.0634 -0.1152  0.1059
22181W        W37650  18.522  13.896  15.583 -0.1264 -0.2262  0.1753
22182W        W37651  12.291  11.011  15.361 -0.1865  0.1554 -0.3364
22183W        W37652   0.301   7.321   2.370 -0.2003  0.3010 -0.0203
22184W        W37653   9.828   0.293  12.560 -0.1309  0.0103  0.1891
22185W        W37654   4.142   9.962   4.054  0.1560 -0.0658 -0.0189
22186W        W37655  18.131   6.241   3.888 -0.0514 -0.0609  0.1258
22187W        W37656   3.641   3.152  12.784 -0.2967  0.3414 -0.1847
22188W        W37657  16.641   6.036   1.060 -0.0929  0.1543  0.1018
22189W        W37658   5.632  13.068   0.514 -0.0989  0.1132  0.0316
22190W        W37659   8.288  16.599  13.775  0.2965 -0.2785  0.2850
22191W        W37660  15.388   7.435  11.611  0.3367  0.1101  0.1465
22192W        W37661   3.459   6.103  13.544 -0.0578 -0.2599 -0.0070
22193W        W37662   3.602  15.153  11.129 -0.1588 -0.3388 -0.5374
22194W        W37663   9.961   3.915  13.870  0.1486  0.1622 -0.3688
22195W        W37664   8.307  11.509  14.409  0.0944 -0.3586 -0.0815
22196W        W37665  15.052   1.415   2.398  0.0402  0.0875  0.4259
22197W        W37666  15.818   9.363  13.683  0.1828  0.1549  0.2005
22198W        W37667   5.134   8.054  13.381  0.1713  0.1761  0.3485
22199W        W37668  10.467   3.673  14.243 -0.0214 -0.0318  0.1767
22200W        W37669  17.696  11.994   1.944 -0.3707 -0.1475 -0.0301
22201W        W37670   6.880  12.331   1.414  0.1826 -0.0790 -0.1241
22202W        W37671  15.057   8.656  11.094  0.2476 -0.0986 -0.1368
22203W        W37672   0.743  10.160  15.261 -0.0769  0.1121 -0.0803
22204W        W37673   5.909   4.780  12.392 -0.4211  0.1470 -0.1495
22205W        W37674  14.341   6.423  13.731  0.2403  0.1330 -0.0084
22206W        W37675   5.987  14.684   2.715 -0.1672  0.0768  0.0480
22207W        W37676  16.502   3.901  15.188 -0.0053 -0.1188 -0.3215
22208W        W37677  13.522   4.877  15.269  0.0370 -0.1706  0.2040
22209W        W37678   6.273  13.368  11.895  0.0892 -0.0800  0.0759
22210W        W37679   1.456  10.524  12.052 -0.1154 -0.2200 -0.0242
22211W        W37680  14.713   2.881   5.222 -0.0588  0.1696 -0.1903
22212W        W37681  16.287   8.012  11.113 -0.4482  0.0875 -0.0611
22213W        W37682   2.403   6.158  14.682  0.0624  0.0699  0.1577
22214W        W37683   2.341   2.247   1.958 -0.0227  0.0666  0.0173
22215W        W37684  13.618   0.398   4.818 -0.3589 -0.1833 -0.1452
22216W        W37685  13.115   6.914  11.405  0.0090  0.2236  0.0931
22217W        W37686   6.095  11.053   0.094  0.3807  0.1771  0.3293
22218W        W37687   2.351  10.094  10.467  0.0073 -0.4949 -0.1556
22219W        W37688  14.793  16.165  15.429 -0.4968 -0.2031 -0.1652
22220W        W37689   6.637   0.679  12.092 -0.1003  0.0107 -0.3380
22221W        W37690   5.060  12.316  12.867  0.2868 -0.0981 -0.2685
22222W        W37691  17.075   9.369   2.272 -0.1288 -0.1124  0.1774
22223W        W37692   4.873  12.556   5.412 -0.0719 -0.1344  0.1402
22224W        W37693   0.177  11.841   2.197 -0.1920 -0.3913 -0.0840
22225W        W37694  18.242  17.122  12.755  0.1724  0.0352  0.0679
22226W        W37695   6.507  15.643   3.142  0.0489  0.2270 -0.2892
22227W        W37696  17.093  18.039   6.093  0.0354 -0.2364 -0.0628
22228W        W37697  13.992   6.417   4.688  0.0694 -0.0950  0.1900
22229W        W37698  11.287  15.833   2.420  0.0805 -0.0300 -0.2482
22230W        W37699  15.230  10.595  14.356 -0.1645  0.2709 -0.0311
22231W        W37700   8.932  14.474   0.316 -0.3960 -0.0689  0.0432
22232W        W37701  17.254  12.343   3.565  0.0446 -0.0436  0.2516
22233W        W37702  14.252  17.730   6.036  0.2603 -0.2068 -0.0955
22234W        W37703  17.652  13.932  10.662 -0.1597 -0.0483 -0.3920
22235W        W37704   3.125  18.349   4.306 -0.2649 -0.0643 -0.1005
22236W        W37705  17.752   2.288  11.185  0.1525  0.1070  0.3222
22237W        W37706   1.395  16.394  14.095  0.1482  0.0834  0.0291
22238W        W37707   8.933  11.330  10.919 -0.0125  0.0328 -0.1291
22239W        W37708   4.660  12.668   0.850 -0.1266  0.0197 -0.0175
22240W        W37709   5.190   3.780   0.375  0.0625 -0.1097 -0.2265
22241W        W37710   0.053   4.578   9.165  0.3717 -0.0986 -0.0692
22242W        W37711  12.453  13.172  14.722 -0.1181 -0.0952  0.0975
22243W        W37712  17.444   4.826  10.884 -0.1587  0.1274  0.0254
22244W        W37713   2.524   9.428  10.728  0.0535 -0.1148 -0.2731
22245W        W37714  18.622   6.021  13.363  0.1181 -0.3194 -0.1071
22246W        W37715   0.124  14.454   3.582  0.1007 -0.2631  0.0932
22247W        W37716   8.260  10.169  14.667  0.1062 -0.1561 -0.2341
22248W        W37717   6.727   6.512   3.556  0.0296 -0.0429  0.3142
22249W        W37718  14.854   4.897  15.266  0.3209  0.2526 -0.2646
22250W        W37719   8.976   8.138   6.268 -0.1450 -0.4512 -0.2927
22251W        W37720  12.545  15.162  14.972  0.0350  0.1878 -0.1612
22252W        W37721  11.012   4.315   2.365 -0.1117 -0.2823  0.0010
22253W        W37722  18.468   9.625   2.056  0.0353 -0.1590 -0.0203
22254W        W37723   6.581   8.264   3.185 -0.0963 -0.1872  0.0890
22255W        W37724  14.107   8.892  14.734  0.0507 -0.4168 -0.1390
22256W        W37725   6.031   6.077  11.374  0.1662 -0.0127 -0.2460
22257W        W37726   1.128   3.013   1.957 -0.0812 -0.2246 -0.3671
22258W        W37727   7.142   1.216  14.579  0.2863 -0.1962 -0.3536
22259W        W37728   2.250  18.124  12.962  0.2702 -0.1289 -0.0966
22260W        W37729   8.098   3.164   3.948 -0.3152  0.1010  0.3632
22261W        W37730   1.532   7.181   2.858  0.3340 -0.2284 -0.0970
22262W        W37731   0.601   4.417   3.762  0.4703 -0.2291  0.2978
22263W        W37732   9.965   8.649   2.323  0.0845 -0.0548  0.2591
22264W        W37733  10.933   1.446   1.153  0.0434  0.1154 -0.1345
22265W        W37734  15.333  10.691  12.821 -0.1993  0.2238  0.0685
22266W        W37735  13.353   5.232  13.699  0.3981  0.2329 -0.1104
22267W        W37736  16.542  11.413   3.456  0.2486 -0.0260  0.1012
22268W        W37737   9.788   2.361  14.806 -0.0136  0.0181 -0.1044
22269W        W37738  10.688   6.686   4.556  0.0866  0.1919  0.1709
22270W        W37739  16.540  11.340   0.143 -0.0449  0.0921 -0.0594
22271W        W37740   8.006  13.318  12.698 -0.1839 -0.0134  0.0080
22272W        W37741  13.889  16.754   1.210  0.1320 -0.0862 -0.0630
22273W        W37742   9.459  18.178  14.120  0.1259 -0.1072  0.1381
22274W        W37743  18.593  16.366  13.999  0.0000  0.0615 -0.0387
22275W        W37744   2.208  14.423   0.005 -0.1003  0.1417 -0.1243
22276W        W37745  17.697   7.930  14.891 -0.1582 -0.0892 -0.2344
22277W        W37746   3.743  10.631  14.021 -0.1353 -0.3011 -0.0263
22278W        W37747   6.236   8.069  14.411  0.3283  0.2405  0.1520
22279W        W37748  12.875  15.716   3.691 -0.3051 -0.0232 -0.0802
22280W        W37749   4.499   9.581  12.953 -0.1537 -0.2239  0.0665
22281W        W37750  12.642  11.924  12.749  0.0934  0.1981  0.0606
22282W        W37751  12.313   1.964   3.276  0.0447  0.1619 -0.0613
22283W        W37752  12.111   4.236   0.556  0.2537 -0.1916 -0.0234
22284W        W37753  13.914   5.274  13.640 -0.3561  0.1268  0.0865
22285W        W37754  13.107   3.254   4.562 -0.1181 -0.0669 -0.1393
22286W        W37755  11.702  17.844   4.116 -0.1934 -0.0179 -0.0897
22287W        W37756  17.744  10.074  10.079  0.1017 -0.0976  0.2262
22288W        W37757   1.380  12.511  14.727  0.0852 -0.1591  0.1152
22289W        W37758   8.879  12.327  12.770 -0.1381 -0.0726  0.2189
22290W        W37759   5.441   6.711   1.110 -0.2479 -0.1549 -0.1571
22291W        W37760  12.705  11.310   4.296 -0.0613 -0.1557  0.1315
22292W        W37761   7.858  12.957   3.441  0.0304 -0.2679  0.2223
22293W        W37762   0.422   9.313   0.454 -0.0996  0.0223  0.1683
22294W        W37763  16.140  13.240  15.736 -0.4262  0.0144 -0.2263
22295W        W37764   1.040   7.278  15.597 -0.1792  0.4633  0.2290
22296W        W37765   5.944   0.756   0.732 -0.0715  0.0547  0.0876
22297W        W37766  14.585  11.242   0.516  0.1547  0.0539 -0.1740
22298W        W37767   8.252  13.160   5.518 -0.2635 -0.1223 -0.3124
22299W        W37768  11.045   5.612  12.910 -0.0996 -0.2295  0.2207
22300W        W37769  11.933  14.933   1.004 -0.3065 -0.1894 -0.0332
22301W        W37770   9.141  10.429  12.124  0.0770 -0.0686  0.0400
22302W        W37771  13.511   2.702   3.114 -0.0314 -0.3857  0.2436
22303W        W37772   7.167   5.641  11.044  0.3496  0.0054 -0.0018
22304W        W37773   1.062  10.240  12.352 -0.0042  0.0062 -0.4211
22305W        W37774   7.355  17.261  14.116  0.1737  0.0120 -0.2966
22306W        W37775  15.107   1.133  15.369  0.2841  0.2156  0.0963
22307W        W37776   2.789   5.374  11.169  0.0298 -0.3723 -0.3942
22308W        W37777  17.720  15.412  10.934  0.3620 -0.0677  0.0825
22309W        W37778   3.746   3.640   0.400 -0.1255  0.0907  0.2548
22310W        W37779   3.199  11.196   1.643 -0.0122  0.0253  0.1595
22311W        W37780  13.967   8.553  13.400  0.1527 -0.0853  0.3495
22312W        W37781   6.844   5.866   2.390 -0.0100 -0.0047  0.2219
22313W        W37782   7.882   0.916   5.475 -0.0330 -0.0684  0.1294
22314W        W37783   3.461   2.656   3.450  0.2474 -0.0950  0.4347
22315W        W37784  11.149  10.573  10.946  0.2587 -0.1295 -0.5300
22316W        W37785   1.632   2.010  10.682  0.1173  0.1037  0.0379
22317W        W37786  16.667   5.665   0.419 -0.1250  0.0279 -0.1883
22318W        W37787   1.996  14.897  12.806 -0.0102 -0.0420 -0.1059
22319W        W37788  12.330   1.238  15.087  0.3630 -0.0537 -0.1490
22320W        W37789   9.573   4.322  11.986 -0.2375  0.1344  0.0292
22321W        W37790  16.393   5.973  14.136  0.2619 -0.1558 -0.0731
22322W        W37791  17.672  14.197  13.344  0.4671  0.3167  0.1331
22323W        W37792   8.192   2.091  15.598  0.1781 -0.0668 -0.1053
22324W        W37793  18.316   8.485  12.378 -0.2333 -0.3919 -0.1027
22325W        W37794   9.785   1.975  14.422  0.0134  0.2880 -0.0264
22326W        W37795   5.774   6.446   2.261  0.1310  0.2362 -0.0744
22327W        W37796  14.598  16.764   0.762 -0.0963  0.0112 -0.0936
22328W        W37797   6.589  10.081   5.026 -0.0510 -0.3271  0.3431
22329W        W37798  11.315   3.018   5.580 -0.0926  0.1161 -0.1911
22330W        W37799  10.712   8.709  15.572  0.2038  0.2721  0.1165
22331W        W37800   0.022   5.370   9.410  0.2255 -0.1791  0.0024
22332W        W37801  15.485   4.146   4.923 -0.3779  0.1982 -0.0230
22333W        W37802   2.847   1.173   4.587  0.1136 -0.0937 -0.1752
22334W        W37803   0.069   7.878  10.062 -0.1335  0.0874 -0.5436
22335W        W37804   6.448   0.907   5.018  0.0623 -0.0776  0.1919
22336W        W37805   2.815   6.050  11.581  0.2990  0.1403 -0.2547
22337W        W37806   8.888  11.878  11.830 -0.5890  0.1217 -0.0883
22338W        W37807  13.521  13.324   5.903  0.4667 -0.0002  0.0437
22339W        W37808  17.507   5.718  15.432 -0.0993 -0.1406 -0.0199
22340W        W37809   8.291   8.386  12.543 -0.2097 -0.1464  0.3356
22341W        W37810  10.950  13.898   0.916 -0.2926  0.1191 -0.1624
22342W        W37811  14.433  14.142   3.942 -0.2462 -0.3234 -0.2889
22343W        W37812  12.771   2.447  11.834  0.0122  0.0540 -0.0151
22344W        W37813   4.514  15.631   2.845  0.2062  0.0236 -0.0545
22345W        W37814  14.927  16.495  13.204  0.0308  0.1237 -0.0151
22346W        W37815   9.172   0.077   0.490  0.2052  0.1049 -0.0132
22347W        W37816  12.071   7.905  12.969  0.1733  0.1969 -0.2149
22348W        W37817  15.503   2.513   4.113  0.0555  0.0363  0.1070
22349W        W37818   1.871   9.195  12.395  0.1154 -0.0304  0.1070
22350W        W37819  13.038   7.125   1.312  0.1383  0.2079 -0.1157
22351W        W37820   4.534   0.931   3.218  0.5357 -0.2078 -0.1947
22352W        W37821   6.678   3.524   3.883  0.0201  0.0119 -0.0168
22353W        W37822  18.567   8.542  11.477  0.0563 -0.0056  0.1575
22354W        W37823  12.645   1.248  14.179 -0.2203  0.0760  0.1393
22355W        W37824   7.320   0.517   0.302 -0.2900  0.1159  0.0816
22356W        W37825   5.181   6.800   0.537  0.1103  0.0708  0.1695
22357W        W37826  17.305   1.158  10.749  0.1386  0.2148  0.2492
22358W        W37827  16.287   9.817  11.363 -0.1120  0.0259  0.4879
22359W        W37828  17.088  18.411  13.412  0.0721  0.0201 -0.1977
22360W        W37829  15.567  16.838  14.436  0.0181 -0.6791 -0.1078
22361W        W37830  15.493   5.958  12.098  0.0844 -0.1809 -0.1358
22362W        W37831  17.619  17.732   2.273  0.2945 -0.0292  0.4069
22363W        W37832   8.224   6.496  11.522 -0.0125  0.0990  0.0469
22364W        W37833   5.471   0.299   5.436 -0.0237 -0.1676  0.1612
22365W        W37834  17.880   4.501   2.993 -0.2673 -0.0175  0.1445
22366W        W37835  12.391   6.676  14.356 -0.0810  0.3797 -0.3168
22367W        W37836  14.581   6.830  13.768  0.2236 -0.2146  0.2926
22368W        W37837   3.455  17.431  14.194  0.0921  0.0789  0.0044
22369W        W37838  15.972   9.493  11.784  0.2848 -0.0758  0.0185
22370W        W37839  16.002  14.776   4.970 -0.0507  0.0579  0.1571
22371W        W37840   5.104   5.979  11.183 -0.2016 -0.1161  0.1420
22372W        W37841   0.926   1.390  12.714  0.0435  0.0338  0.4930
22373W        W37842  10.425  14.450   4.209  0.1832 -0.2789  0.2080
22374W        W37843  11.326   4.227   3.875  0.2493  0.1398  0.0968
22375W        W37844  10.371  12.694   1.456 -0.0540 -0.1942 -0.0256
22376W        W37845  12.866  16.260   3.935 -0.2470  0.0636 -0.3013
22377W        W37846  14.488   2.833   5.636  0.5310 -0.0132 -0.0943
22378W        W37847   8.843   4.301  13.828  0.0249 -0.0002 -0.0583
22379W        W37848  12.940   7.285  13.767 -0.3273 -0.0293  0.1961
22380W        W37849   7.744   5.835  12.056  0.1514  0.0544 -0.1585
22381W        W37850  11.335   3.071   4.113  0.0721  0.1737 -0.1618
22382W        W37851  11.366  15.117  15.570 -0.2512 -0.1303 -0.2422
22383W        W37852   4.589   1.663   0.015  0.2851  0.0623 -0.3296
22384W        W37853   1.077  11.804   0.735  0.0388  0.1664 -0.0128
22385W        W37854   1.563  15.811  10.601 -0.2099 -0.1115 -0.0810
22386W        W37855  12.459   7.567  13.019  0.0719 -0.1777  0.0635
22387W        W37856   7.526  10.865  11.221  0.2153  0.1607 -0.2095
22388W        W37857  10.981   9.655   0.734 -0.0937 -0.1786 -0.0892
22389W        W37858   3.424   8.639  14.085 -0.2535 -0.3179 -0.1607
22390W        W37859  10.507  15.289   4.186 -0.2680  0.1405  0.1437
22391W        W37860   5.713   2.295   4.473  0.2476 -0.0447 -0.1747
22392W        W37861   8.874   7.809   2.866 -0.0557 -0.2129  0.1109
22393W        W37862  10.961  17.766  10.779 -0.0092  0.1741  0.1292
22394W        W37863   9.020  15.015   2.879  0.1387 -0.0184  0.2263
22395W        W37864  18.076   0.033   0.702  0.1277 -0.5358 -0.2996
22396W        W37865  13.260   8.411  11.942  0.2016 -0.1497  0.0336
22397W        W37866   7.371   6.236  11.913  0.0442 -0.1183 -0.1466
22398W        W37867  15.176  12.061  15.420  0.0247  0.2261 -0.2771
22399W        W37868  13.346   5.151   5.191 -0.2752 -0.1887 -0.1523
22400W        W37869   9.851   3.906  15.609 -0.0837 -0.3497  0.3019
22401W        W37870   2.879   6.912   1.764  0.0664  0.0245 -0.1522
22402W        W37871   7.259   2.936  14.175  0.0700 -0.4176 -0.0074
22403W        W37872  18.041   7.121   4.372  0.0240 -0.1540 -0.1172
22404W        W37873  12.500  17.377  15.678  0.2058 -0.0660 -0.3803
22405W        W37874   8.283  18.523   5.881 -0.0759  0.0409  0.0932
22406W        W37875   7.349  14.425   1.240  0.1382  0.2003  0.0044
22407W        W37876  17.842   2.402   0.554 -0.0185  0.1365  0.1210
22408W        W37877  11.459   6.952   5.145 -0.1103 -0.0613 -0.3405
22409W        W37878   9.914  15.264  12.288 -0.3175  0.1238 -0.1779
22410W        W37879   3.335  10.448  14.261  0.4552  0.2677 -0.2296
22411W        W37880  16.165   7.491   0.732  0.1110 -0.1342  0.0275
22412W        W37881   4.120  15.752  13.326 -0.0706  0.1515  0.1226
22413W        W37882   1.943   0.525  15.665  0.0879 -0.1577 -0.0632
22414W        W37883   0.598   1.809  12.492 -0.1169 -0.1371 -0.1219
22415W        W37884   4.978   8.106   4.039 -0.1040 -0.1970 -0.1111
22416W        W37885   9.356   9.954   0.221 -0.1275  0.3615 -0.0486
22417W        W37886  17.967  15.447  13.055 -0.1591 -0.3271  0.1469
22418W        W37887   1.472   6.177  10.140 -0.0638  0.1048  0.2110
22419W        W37888   6.708  17.470  15.553 -0.0215  0.1154 -0.0129
22420W        W37889  11.873   6.256   0.259  0.0275 -0.1421 -0.1339
22421W        W37890  15.294   5.114   4.652 -0.1253 -0.1195 -0.1160
22422W        W37891   7.019   6.414  12.216  0.1718  0.1253  0.0886
22423W        W37892  18.262  15.859   0.254  0.0632  0.0075 -0.0747
22424W        W37893   8.999   9.676  11.111 -0.2127 -0.2507  0.0834
22425W        W37894  11.882  14.980  11.563  0.0007 -0.0878  0.0559
22426W        W37895  14.561   0.519  11.711 -0.1496  0.4400  0.1051
22427W        W37896   2.566   9.261  13.454 -0.0296 -0.0811 -0.0224
22428W        W37897  16.578   4.412  13.159 -0.2280 -0.0273  0.1147
22429W        W37898   1.766   8.117   3.589 -0.1592 -0.0858  0.1662
22430W        W37899  13.113   8.461  12.469 -0.2270  0.2026  0.1518
22431W        W37900  10.109   5.703   4.007  0.1195 -0.3834  0.1033
22432W        W37901  13.418   3.751   0.696 -0.0048  0.0793  0.2736
22433W        W37902  14.284   0.286  12.080  0.0184 -0.0107  0.0777
22434W        W37903  16.031  18.546   1.128 -0.1541 -0.1260 -0.0053
22435W        W37904   2.668   8.867   5.255 -0.0326  0.0522 -0.0015
22436W        W37905  15.660   2.346   0.813  0.5216 -0.1782  0.0289
22437W        W37906   3.497  10.156   4.386  0.0788  0.2939 -0.3045
22438W        W37907   9.670  10.699  14.802  0.1280 -0.0805  0.0279
22439W        W37908   1.864   5.529  13.427  0.0734  0.2255  0.1970
22440W        W37909   7.600  14.882   2.845  0.1894  0.0239 -0.1453
22441W        W37910   0.281   5.316   2.411  0.3015 -0.1700 -0.2924
22442W        W37911   5.322  14.198  14.143 -0.4096  0.2710 -0.1500
22443W        W37912   8.375  14.403  12.864 -0.0170 -0.0926 -0.1579
22444W        W37913  13.441  10.037   2.583 -0.1228 -0.0771  0.0021
22445W        W37914   4.107  10.888  11.997 -0.1884 -0.1305 -0.3172
22446W        W37915   6.065  11.061  11.776  0.2523  0.0233 -0.2112
22447W        W37916   1.736   2.682  14.143  0.1099 -0.0176 -0.0127
22448W        W37917  13.834  11.533  12.074 -0.2277 -0.0133  0.2137
22449W        W37918   8.058   8.835   6.026  0.2257  0.1236 -0.0297
22450W        W37919   3.947   3.751   5.699 -0.1812  0.1153 -0.0744
22451W        W37920  13.517   1.331  11.159 -0.0434  0.1411 -0.1371
22452W        W37921  16.667  12.416   4.837  0.1013 -0.3220 -0.1380
22453W        W37922   0.166  11.348  12.844 -0.1633 -0.0208 -0.0845
22454W        W37923   1.176  15.661   3.147 -0.1246 -0.0112  0.1907
22455W        W37924   3.720   9.804   2.425  0.1136 -0.0007 -0.1048
22456W        W37925   7.454  16.235  12.291  0.0535 -0.3757 -0.1933
22457W        W37926  11.197   5.993  14.185  0.5421 -0.4134  0.1207
22458W        W37927  18.240  14.313  14.219 -0.2772 -0.4304  0.0024
22459W        W37928   2.407   9.975  14.642  0.1195 -0.0193 -0.2869
22460W        W37929   5.309  12.505  11.254  0.1237 -0.4806 -0.1240
22461W        W37930   2.768  11.661  15.678 -0.1960  0.1331  0.2549
22462W        W37931   2.272  12.221   2.425  0.1279  0.1001  0.0775
22463W        W37932  16.889  14.145  15.028  0.1161  0.3461  0.1057
22464W        W37933   6.983   8.552   4.576 -0.0312  0.1211 -0.0685
22465W        W37934   1.538   2.530  11.972  0.0149  0.1184  0.2240
22466W        W37935  11.138  12.561  14.206 -0.0622 -0.0536 -0.2040
22467W        W37936  11.622  11.784  14.363  0.0497  0.0041 -0.2594
22468W        W37937  10.332   7.729   0.003  0.0282  0.0730 -0.0975
22469W        W37938  13.378  12.839  15.218  0.1982 -0.1845 -0.2458
22470W        W37939  16.495   3.089  12.803  0.1979 -0.1434 -0.3239
22471W        W37940  15.878  10.444  10.860 -0.0425 -0.2910 -0.0645
22472W        W37941   0.596   1.250   0.357 -0.1455 -0.0917  0.1913
22473W        W37942   1.385  10.773  15.529  0.0851 -0.0149 -0.0677
22474W        W37943  12.937   7.670  12.831 -0.1709 -0.0823 -0.0139
22475W        W37944  12.982  13.089  12.938 -0.1163 -0.1106  0.1404
22476W        W37945  12.985  17.228   1.154  0.1580  0.0067  0.2266
22477W        W37946  17.043  18.308  10.787 -0.0859 -0.1736  0.2479
22478W        W37947  14.913  12.392  13.474 -0.1211 -0.0649  0.0267
22479W        W37948  16.707   0.184   3.171 -0.3358  0.0677 -0.3068
22480W        W37949   1.013   9.953  13.013 -0.4422 -0.1678 -0.0165
22481W        W37950  13.958  13.478  10.614  0.0437 -0.0666  0.4165
22482W        W37951  18.491   1.645   2.411  0.1937 -0.1761 -0.1154
22483W        W37952   1.198   5.242  13.747  0.1632 -0.1149  0.1682
22484W        W37953   9.716   3.195  14.323  0.0101  0.1458 -0.1144
22485W        W37954  16.877  11.198  12.724  0.0953  0.2569  0.4022
22486W        W37955  12.361   5.472  14.970 -0.0165  0.0092  0.0530
22487W        W37956  11.929   0.473   1.053  0.0890  0.0820  0.0840
22488W        W37957  10.944   6.741  15.554 -0.2768 -0.6359  0.3691
22489W        W37958  11.838   5.909   3.422 -0.1462  0.3003 -0.2034
22490W        W37959   5.825   8.411  13.504  0.1764 -0.2592  0.0113
22491W        W37960   9.731   0.456  11.245  0.2746 -0.0088  0.0869
22492W        W37961  18.402   9.125   2.254  0.0769  0.1144  0.1433
22493W        W37962   4.004  13.509  14.218 -0.1092 -0.1144 -0.1338
22494W        W37963  12.230   3.261  13.369 -0.0507 -0.1494  0.1510
22495W        W37964   2.857  12.366   0.388 -0.3116  0.2068  0.0100
22496W        W37965  10.639  11.982   2.531 -0.0930  0.0161 -0.1759
22497W        W37966   1.763   8.015   0.071  0.1143 -0.0357 -0.1158
22498W        W37967   0.928  16.764   5.138 -0.4745 -0.0636  0.0954
22499W        W37968   1.568   7.648  14.188  0.1826  0.0993 -0.2138
22500W        W37969   8.682   8.468  15.280  0.0142  0.0156 -0.0763
22501W        W37970   4.491   0.560   5.059  0.1306  0.2952 -0.0280
22502W        W37971  14.423  13.487   0.681  0.2451  0.2005 -0.0565
22503W        W37972  16.122  14.126   2.664  0.3502  0.2428 -0.1393
22504W        W37973   8.861   1.600   1.326  0.0780 -0.0448  0.1344
22505W        W37974   9.570  18.188  12.245 -0.0181 -0.3238 -0.1621
22506W        W37975  14.734  12.042  13.855 -0.2261 -0.0429 -0.2634
22507W        W37976  11.030   6.202   0.979  0.3584  0.2886 -0.1093
22508W        W37977  16.525  10.128   0.272 -0.1392 -0.1950  0.2401
22509W        W37978  16.639   8.089   2.825  0.1816  0.0716 -0.1076
22510W        W37979   2.854   2.231  12.470 -0.1494 -0.1526 -0.1099
22511W        W37980  16.876   9.573  15.276  0.1415 -0.2054  0.3460
22512W        W37981   8.410  15.787  11.831 -0.0607  0.0239 -0.2712
22513W        W37982   3.042   0.247   2.178 -0.1337 -0.0623  0.2218
22514W        W37983   0.878   8.183  13.823  0.2530  0.0365 -0.0377
22515W        W37984   6.795   0.589   2.981  0.3666 -0.2114 -0.2323
22516W        W37985   5.520   5.346  13.512 -0.1378  0.1422 -0.0890
22517W        W37986  18.608   8.774  10.666  0.0126 -0.1118 -0.1514
22518W        W37987  17.364  12.342  12.313 -0.0426 -0.1581 -0.2748
22519W        W37988   3.148  11.291   5.569  0.1993 -0.2237  0.0458
22520W        W37989  15.080   8.857  12.128 -0.0076 -0.2981  0.1607
22521W        W37990   0.333   0.507  14.563  0.0255  0.2023 -0.4708
22522W        W37991   4.240   2.603   4.654 -0.0140  0.0461 -0.1550
22523W        W37992   8.897   1.995   5.426  0.3508 -0.0912 -0.2305
22524W        W37993  16.752   9.496  11.502 -0.0215 -0.0880 -0.0511
22525W        W37994   2.760   3.311  11.831  0.3872 -0.2073  0.2493
22526W        W37995  12.908   1.794   0.264  0.0158  0.1591 -0.1009
22527W        W37996   8.854   6.336   1.735  0.0283 -0.2290  0.4840
22528W        W37997  18.442  17.228   1.252  0.0789 -0.1064 -0.2292
22529W        W37998   0.875   5.200   3.128 -0.2851  0.1826 -0.1202
22530W        W37999   4.479  16.089   1.633  0.2104  0.0814  0.0524
22531W        W38000  13.187  11.391  15.538 -0.1811  0.4567  0.0342
22532W        W38001   9.239   9.810   0.740 -0.2664  0.0763 -0.1031
22533W        W38002  10.973  17.925  13.174  0.0904 -0.1206  0.1496
22534W        W38003  12.674  12.247  13.274 -0.0214  0.2423  0.0192
22535W        W38004   0.368  17.101   5.616  0.0409 -0.4672  0.4071
22536W        W38005   4.056   0.762   3.344  0.2250 -0.2407 -0.0520
22537W        W38006  14.242   4.172   2.915  0.2903  0.0113  0.1389
22538W        W38007  10.982   2.029  12.884 -0.1883 -0.0190  0.2805
22539W        W38008   9.642   5.898  13.685  0.1536  0.0266 -0.1122
22540W        W38009  17.497  15.301  14.761  0.2967 -0.3072 -0.2326
22541W        W38010   1.370  17.477  14.378  0.0066 -0.0248  0.0111
22542W        W38011  16.321  14.953  11.149 -0.0042  0.2171  0.2072
22543W        W38012  17.641  17.607   1.128 -0.1369 -0.0942 -0.3349
22544W        W38013   0.838  15.405  10.477 -0.0557  0.0368  0.3805
22545W        W38014  14.478  11.567  15.188  0.1403 -0.0743  0.2743
22546W        W38015  18.076  17.234   3.485  0.0402  0.0568 -0.0116
22547W        W38016  12.601  16.755  14.982 -0.0533  0.1083 -0.0505
22548W        W38017   6.091  11.392   9.417  0.0503 -0.1856 -0.0209
22549W        W38018  18.005  16.530   3.745 -0.0298  0.2356 -0.0188
22550W        W38019   6.062   4.482  11.396 -0.1393  0.0648  0.1625
22551W        W38020  10.326  12.049   1.644 -0.0007  0.2185  0.1885
22552W        W38021  12.152  10.933  12.353 -0.1139  0.1928 -0.0227
22553W        W38022  11.855   3.804   3.275 -0.1066  0.1174  0.0150
22554W        W38023   8.883   6.042   3.482 -0.1284  0.1361 -0.1891
22555W        W38024  11.089  10.695   0.760 -0.0310 -0.1498 -0.2286
22556W        W38025  18.101  11.021   1.725 -0.0930 -0.1856 -0.1379
22557W        W38026  18.079   6.422  13.937 -0.0004  0.0640 -0.2497
22558W        W38027   4.451   0.094  11.165  0.1477  0.0697  0.3117
22559W        W38028   7.060  18.465  10.157  0.1105  0.2050  0.3719
22560W        W38029   1.006   8.076  15.045 -0.2390  0.2742 -0.0966
22561W        W38030   1.079   7.581   1.670 -0.2065  0.3998 -0.2065
22562W        W38031   8.431   6.953  13.428 -0.0586 -0.2337 -0.0897
22563W        W38032  13.857   0.711   4.556  0.0597 -0.1907  0.0054
22564W        W38033  15.262  16.860   0.008  0.1537 -0.1757  0.2861
22565W        W38034  10.099  14.365  12.070 -0.3179 -0.1061 -0.0605
22566W        W38035  14.744   7.260   2.295 -0.1484  0.1045  0.0354
22567W        W38036  15.649   8.002  10.588  0.0789  0.1167  0.3644
22568W        W38037   5.330  15.071  14.579 -0.2146 -0.3008 -0.0978
22569W        W38038  12.044   0.129   1.850  0.1315  0.0013  0.2490
22570W        W38039   5.241  14.173   1.415 -0.1962 -0.1053 -0.1681
22571W        W38040  15.798   1.185   3.372 -0.1442 -0.2250 -0.0364
22572W        W38041  17.457   6.203   4.523  0.0055 -0.0864 -0.0584
22573W        W38042  12.484  17.958  13.455  0.1393 -0.1711 -0.2788
22574W        W38043  10.765   9.953   1.579 -0.3026  0.1809 -0.1001
22575W        W38044   3.419   6.414  12.602 -0.1692 -0.0770 -0.0802
22576W        W38045   3.681   8.212   0.744 -0.2732  0.2448  0.0563
22577W        W38046  12.971  15.881  10.349  0.2009  0.2630 -0.0115
22578W        W38047  14.599  11.000   5.825 -0.1044 -0.0143 -0.1381
22579W        W38048  13.960  16.020  13.820 -0.0263 -0.0558 -0.0696
22580W        W38049   9.398  17.301   2.927 -0.1306  0.0597 -0.6128
22581W        W38050   2.316   3.134  12.094 -0.1835 -0.1785 -0.1627
22582W        W38051  17.564   0.523   4.122  0.1537 -0.0410  0.0244
22583W        W38052   2.093  18.148  12.464  0.0948  0.2607  0.2007
22584W        W38053   3.729   0.220   9.825 -0.1413  0.0528  0.2215
22585W        W38054   5.514   9.729   2.808  0.0622 -0.0903  0.0707
22586W        W38055  13.969   5.451   2.418 -0.0453 -0.0697  0.1621
22587W        W38056   7.131   4.361   4.785  0.2225  0.0801 -0.1625
22588W        W38057   5.449   5.163   1.830 -0.1365  0.0472 -0.3171
22589W        W38058  17.410   3.308  13.477 -0.1544  0.1206 -0.0803
22590W        W38059   4.068  16.633  11.431 -0.1139 -0.1043  0.3065
22591W        W38060   0.866  14.276   0.129 -0.0393 -0.0530  0.0458
22592W        W38061  16.990   1.294  12.699  0.3675 -0.2688  0.2525
22593W        W38062  10.234  10.112  14.628  0.3542 -0.1496  0.1053
22594W        W38063  10.057   5.425  13.472 -0.0077  0.0893  0.0074
22595W        W38064   7.803   0.690   4.981  0.2668  0.4912  0.1043
22596W        W38065   0.004   5.782   0.581 -0.0188 -0.4944 -0.1159
22597W        W38066  15.359  10.985  11.239  0.3480 -0.1943 -0.1515
22598W        W38067  10.254  14.058   4.046  0.1309 -0.0314 -0.0049
22599W        W38068   6.626  10.178  12.259  0.1441 -0.2441  0.1955
22600W        W38069  17.152  14.985  15.676 -0.3007 -0.0938 -0.1399
22601W        W38070  12.571   8.006   0.382  0.2536 -0.0408  0.0221
22602W        W38071  14.044  16.800   3.567  0.1117 -0.0090  0.2420
22603W        W38072  13.343  14.844  14.953 -0.1257 -0.3697  0.0182
22604W        W38073   2.995  16.325   4.900 -0.4050 -0.0142 -0.0644
22605W        W38074  11.013  12.018   4.031 -0.2310 -0.3157 -0.2963
22606W        W38075  10.384   3.303   2.035 -0.2090  0.0599  0.1525
22607W        W38076   8.872  15.647  11.772  0.0294 -0.1773  0.3331
22608W        W38077   1.969   1.305   4.102  0.2740  0.0162 -0.0067
22609W        W38078  13.504   1.366  13.739  0.0242 -0.1015 -0.1985
22610W        W38079   1.995   2.593  12.432  0.0780 -0.0600 -0.2082
22611W        W38080  12.401   0.849  15.583 -0.1410 -0.3121  0.2353
22612W        W38081   2.857  12.054   3.148  0.2062 -0.1281 -0.0900
22613W        W38082   9.461  13.283   2.544 -0.0699  0.0782  0.0165
22614W        W38083   8.375  14.653  10.762  0.0959  0.2641  0.0659
22615W        W38084  11.992   3.700  12.507  0.1164 -0.1817 -0.2823
22616W        W38085  11.587   0.414  15.437  0.1404 -0.0723 -0.2911
22617W        W38086  18.418  15.984   2.858 -0.0169  0.0135 -0.0756
22618W        W38087   9.961  11.676   1.924 -0.0576 -0.0735  0.1511
22619W        W38088   7.190  11.201  11.450  0.0593  0.0260 -0.4289
22620W        W38089   4.458   6.328  15.087 -0.1215 -0.2756 -0.2387
22621W        W38090  17.820   5.479  12.264 -0.0730  0.0474 -0.0405
22622W        W38091  14.182  14.320  12.903 -0.1013  0.1552  0.0896
22623W        W38092   1.427  10.644   9.868  0.1023 -0.1609 -0.1091
22624W        W38093  17.044  13.791   5.797 -0.4010 -0.4243  0.2027
22625W        W38094   1.724  11.651  10.823 -0.1922  0.4425 -0.4052
22626W        W38095  14.941   6.075   4.603 -0.1138 -0.1887  0.0784
22627W        W38096  10.525   7.029   2.740  0.1467  0.1454 -0.1625
22628W        W38097  13.792   4.579   3.582  0.0864 -0.2615  0.1997
22629W        W38098  10.409   5.745   0.535  0.3373 -0.0038  0.0792
22630W        W38099   1.352  17.626   2.886 -0.2557  0.0129  0.1221
22631W        W38100  17.893   5.278  11.812  0.4416 -0.1227 -0.0585
22632W        W38101  12.092  18.070   1.060  0.0497  0.0753 -0.3529
22633W        W38102  10.112   2.415   3.031  0.1772  0.1648  0.0180
22634W        W38103  17.071  14.598   2.798 -0.0028  0.0692  0.1328
22635W        W38104   5.843   8.374  14.757  0.3544  0.1986 -0.3818
22636W        W38105   1.513   4.418  13.824 -0.3751 -0.2289  0.0723
22637W        W38106   3.882   8.699   0.803  0.0599  0.1103  0.0540
22638W        W38107   7.449  14.951  13.835 -0.1584  0.2547  0.4027
22639W        W38108   1.898   8.025  14.260 -0.3532  0.1093  0.0774
22640W        W38109   2.564  14.429  11.676 -0.2941  0.0385  0.0100
22641W        W38110   7.221   4.373  12.723  0.3150 -0.0533 -0.0871
22642W        W38111   5.880   1.537   4.438 -0.1948 -0.0201 -0.3503
22643W        W38112  10.183  14.622   3.738  0.6097  0.0130 -0.3757
22644W        W38113   2.213  14.416   4.289 -0.0152 -0.0053 -0.0268
22645W        W38114   7.730  15.799  13.781 -0.1552 -0.1013 -0.2247
22646W        W38115  16.524   2.790   0.718  0.0117  0.0476 -0.0101
22647W        W38116  16.648   5.931  12.420 -0.1785 -0.2427 -0.2476
22648W        W38117   8.263   9.007   0.856 -0.2004  0.1300  0.0855
22649W        W38118  16.519   6.486   1.182 -0.1309  0.0586 -0.2463
22650W        W38119   5.845   7.733   2.842 -0.1339  0.4218  0.0255
22651W        W38120   3.278   3.655   2.779  0.1509 -0.0422  0.1778
22652W        W38121   1.803   4.517  11.036 -0.1409  0.0611  0.2919
22653W        W38122   7.790   2.043   3.000 -0.0203 -0.0231 -0.0181
22654W        W38123   4.329  13.337  15.373 -0.1519 -0.0273  0.0791
22655W        W38124   5.143   4.831  14.621 -0.0217  0.0187 -0.1889
22656W        W38125   8.896   8.784  13.690  0.1692  0.0524 -0.0888
22657W        W38126   4.672  17.163  13.359 -0.2266  0.3615 -0.2124
22658W        W38127   8.229  13.633   5.247  0.3651  0.2356 -0.1016
22659W        W38128   2.962   6.781  15.747  0.0784  0.1718  0.0190
22660W        W38129  10.099  10.153   1.981 -0.2806  0.0235  0.0570
22661W        W38130  16.367   2.617  12.733  0.2060  0.2742 -0.0662
22662W        W38131   7.206   3.979  14.522 -0.0275  0.0145 -0.2136
22663W        W38132  10.036  15.698   2.921 -0.0829 -0.2191  0.3576
22664W        W38133   1.323   8.848  12.063  0.2664 -0.1253  0.0322
22665W        W38134   1.452  11.718  10.453 -0.2023  0.2481 -0.0996
22666W        W38135   7.936  16.515   2.899  0.0943  0.3387  0.2698
22667W        W38136   2.808   5.835   2.982 -0.0591  0.1509  0.1299
22668W        W38137  17.094   6.294  11.135  0.0269 -0.0123 -0.0733
22669W        W38138  14.049  14.863   3.392 -0.0942 -0.1470  0.1041
22670W        W38139   7.095  15.208   2.027  0.0584  0.0154 -0.2985
22671W        W38140  11.795   9.068   0.752 -0.2613  0.0030 -0.1142
22672W        W38141  10.320   0.984   4.301  0.1078 -0.2996  0.1103
22673W        W38142   6.669   0.186   4.517 -0.2380  0.1970 -0.2471
22674W        W38143   7.193   0.325  11.136 -0.0845 -0.0740  0.1832
22675W        W38144  16.900   1.170   3.634  0.1128  0.2251  0.0981
22676W        W38145   0.141  12.652  12.222 -0.1747 -0.3903  0.1843
22677W        W38146  17.151   2.375  11.294 -0.0676 -0.2095  0.2179
22678W        W38147   3.464   6.836   2.272 -0.2701  0.4329 -0.1232
22679W        W38148   0.167  18.271   3.905  0.1176 -0.3987 -0.2763
22680W        W38149  11.335  15.528   2.852 -0.1838  0.0707 -0.0173
22681W        W38150  16.941   4.591   2.826 -0.0623 -0.0134  0.1627
22682W        W38151  16.626   6.823  14.109 -0.1666 -0.1792  0.0614
22683W        W38152   2.166  14.634  14.795 -0.2299  0.1205 -0.0012
22684W        W38153   4.819   4.982   2.278  0.1091  0.2153 -0.3349
22685W        W38154   7.399   4.420  10.988 -0.4019  0.3443 -0.0115
22686W        W38155   8.985   0.284   0.965 -0.0255  0.4313 -0.0116
22687W        W38156   8.115  13.679   1.965 -0.0745 -0.5454 -0.2574
22688W        W38157   9.081   5.141  10.514  0.2639 -0.0722 -0.2614
22689W        W38158   8.237   0.489  14.787  0.0059 -0.1268 -0.0693
22690W        W38159   8.897   3.420   4.238  0.0135  0.1402 -0.1185
22691W        W38160   5.289   9.347  14.847 -0.2691 -0.0494 -0.2875
22692W        W38161   8.371   7.543   1.504 -0.1823 -0.0164 -0.0150
22693W        W38162   4.888  16.790  12.023  0.0543  0.2298 -0.0445
22694W        W38163  17.553   3.916  14.916 -0.0490  0.2253 -0.1785
22695W        W38164   4.380   3.973   9.699  0.0899  0.0874  0.0375
22696W        W38165   2.635  17.804   3.467 -0.0102 -0.0102  0.0888
22697W        W38166  13.575   3.421  13.423  0.4720 -0.1144  0.1486
22698W        W38167   5.368   6.244   2.494  0.2679 -0.0703  0.0674
22699W        W38168   4.421  15.883   4.199 -0.0250  0.0100  0.0131
22700W        W38169   6.829   8.910  11.744  0.1399 -0.0620 -0.1609
22701W        W38170   0.463  14.355  14.341  0.4227 -0.2516  0.2992
22702W        W38171   7.072   6.945  14.927  0.1789  0.2206 -0.0493
22703W        W38172  18.182  17.487   4.380 -0.1096 -0.1426  0.0588
22704W        W38173  14.655   7.601  12.919 -0.1391 -0.0497  0.1718
22705W        W38174   4.351  15.675   3.714 -0.0351  0.0190  0.2004
22706W        W38175  11.857  14.995  15.735 -0.0912  0.3858  0.1762
22707W        W38176   5.010  12.799  11.964 -0.1956  0.2049  0.1767
22708W        W38177   3.624  10.627   4.129  0.2890 -0.0975  0.0756
22709W        W38178   7.285  15.342  14.447 -0.0287  0.0492  0.0169
22710W        W38179   4.109   4.331   3.233 -0.1414  0.1962  0.0318
22711W        W38180  17.901  16.016   2.879 -0.0688 -0.0014 -0.0419
22712W        W38181  14.468  12.978   3.269 -0.1833  0.1216  0.3090
22713W        W38182   7.682  11.359  13.136 -0.0845 -0.0079  0.1300
22714W        W38183   3.309  12.399   0.601 -0.2735  0.1747  0.1375
22715W        W38184  16.357  15.878   0.209 -0.3102 -0.2500  0.0645
22716W        W38185  14.186  10.495   2.923  0.3250  0.0366 -0.0969
22717W        W38186   6.772  14.021   3.730  0.1335 -0.1968 -0.1915
22718W        W38187   1.811  12.959   1.894 -0.3150  0.1148 -0.0222
22719W        W38188   2.772   2.021   1.720  0.0719  0.2133  0.0408
22720W        W38189   8.389  11.927  15.299 -0.1603 -0.1386 -0.0354
22721W        W38190   5.343  15.118  10.887  0.4312  0.1575  0.1375
22722W        W38191  14.712  17.036   5.991  0.0751 -0.1490  0.4433
22723W        W38192  14.669   5.014  12.536 -0.0173 -0.0464  0.2434
22724W        W38193  10.090   7.578  10.412 -0.1330 -0.0907  0.3344
22725W        W38194  16.023   6.642   4.965  0.0808  0.3067 -0.1017
22726W        W38195  12.666   6.879   2.622 -0.0614 -0.1660  0.1765
22727W        W38196  10.237  13.212   1.443  0.3815 -0.0185  0.3413
22728W        W38197   0.050   8.375   5.091  0.2195  0.0921 -0.1277
22729W        W38198   1.037   2.738  11.671  0.2807  0.2830 -0.1755
22730W        W38199   7.501   7.583   3.308 -0.2349 -0.3013  0.0600
22731W        W38200  16.512  17.343   3.142  0.2481  0.2370  0.0657
22732W        W38201   7.864  11.712  10.142 -0.3882  0.2378  0.0078
22733W        W38202   6.669   3.819   2.456 -0.1086 -0.1978  0.1381
22734W        W38203  11.723   0.558   1.520  0.0378 -0.1154  0.0076
22735W        W38204  11.498   6.177   4.558  0.3769  0.1119  0.0629
22736W        W38205   3.091  16.013   0.251  0.0786  0.0852  0.0471
22737W        W38206   4.899   8.785   1.057 -0.1054  0.1276 -0.3084
22738W        W38207   7.239  18.023   0.624 -0.0522  0.0369  0.1592
22739W        W38208  15.267  13.570  14.818  0.1408 -0.0386 -0.0702
22740W        W38209   1.995  15.567   1.485  0.1355 -0.2550  0.3860
22741W        W38210   7.821  10.103  13.274 -0.0790  0.1124  0.0190
22742W        W38211  11.190   3.251   3.630 -0.3779 -0.4545 -0.1783
22743W        W38212  14.691   7.816  11.055  0.2062  0.0176 -0.0195
22744W        W38213   9.687   6.814  11.714  0.1020  0.1748 -0.0402
22745W        W38214   8.559  10.305   1.125 -0.1273 -0.2360  0.2196
22746W        W38215  17.486  18.038  15.376 -0.1094 -0.2473 -0.2622
22747W        W38216  10.764   9.034  12.919 -0.2945  0.1859 -0.1875
22748W        W38217  16.410  15.001   0.604 -0.1562  0.1085 -0.0265
22749W        W38218  14.154  13.643   3.871 -0.2241 -0.0680  0.3676
22750W        W38219  14.593  11.549   9.912 -0.0415  0.0747 -0.0012
22751W        W38220  10.191  17.595  13.685  0.0370  0.3065  0.0184
22752W        W38221   6.177   1.999   5.168  0.1550 -0.1676  0.0542
22753W        W38222   7.758   5.625   2.474 -0.0205 -0.0228 -0.2701
22754W        W38223  10.832  17.445   3.905  0.2469 -0.1177  0.1190
22755W        W38224   1.887   7.616  10.466 -0.3137 -0.0711  0.0368
22756W        W38225   1.293   8.553   1.698  0.0727  0.0973 -0.0674
22757W        W38226   7.084   6.260   2.725 -0.3614 -0.0431  0.4160
22758W        W38227  15.418  11.861   0.007 -0.1238 -0.1167  0.0485
22759W        W38228  16.559  14.796   1.062  0.3354 -0.4244 -0.2730
22760W        W38229  11.075  12.110  10.647  0.1667  0.0012 -0.1768
22761W        W38230   2.267   3.853  11.607 -0.5172 -0.0471  0.3360
22762W        W38231  11.148  12.397   4.570  0.1796  0.2352  0.2739
22763W        W38232  15.241  18.330  14.719  0.1350  0.1317 -0.0857
22764W        W38233  11.540   2.486   1.808  0.0317  0.2461 -0.2041
22765W        W38234  14.107  18.197  15.718 -0.2156  0.2190 -0.0546
22766W        W38235   4.804   6.211   5.028  0.1652  0.1421 -0.0058
22767W        W38236   5.890  15.911   0.333  0.0642 -0.1088 -0.0034
22768W        W38237   7.404   7.709  10.861  0.2641  0.1200  0.0925
22769W        W38238  12.919   0.346   1.695  0.0889 -0.2035  0.0478
22770W        W38239  12.522  14.077   1.160  0.0739 -0.0550 -0.1848
22771W        W38240   1.834   4.496   3.976  0.1739  0.0505  0.0618
22772W        W38241  17.593  17.141   3.189  0.2083 -0.0902  0.1320
22773W        W38242  13.694   1.270   5.317 -0.1115 -0.0204  0.0694
22774W        W38243  14.561   5.718   4.391 -0.1903 -0.2030  0.2901
22775W        W38244  12.987  10.945   1.848  0.1530 -0.0886 -0.1027
22776W        W38245  14.669   9.450  10.229 -0.2245 -0.0309  0.1318
22777W        W38246   2.232  17.339   1.426 -0.2347  0.0542 -0.1220
22778W        W38247  11.938   6.353  12.278 -0.0882  0.0388 -0.0390
22779W        W38248   9.829  13.303  15.550 -0.3570  0.1472  0.0034
22780W        W38249   9.021   2.603   4.393  0.0579  0.2684  0.2242
22781W        W38250  14.456   3.697  13.616 -0.0285  0.0780 -0.1806
22782W        W38251  14.220   0.282   3.172 -0.0115 -0.1815  0.4581
22783W        W38252   9.906  10.649  12.604 -0.0323 -0.3264 -0.1082
22784W        W38253   0.776   8.836  15.274  0.0108  0.0581  0.1422
22785W        W38254   0.620  15.088   3.580  0.1596 -0.0722  0.0002
22786W        W38255   1.595   0.762  11.877  0.0217  0.0158 -0.2360
22787W        W38256  14.002  11.585   5.553 -0.3522  0.3838  0.2089
22788W        W38257  12.961  12.930  14.810 -0.1554 -0.1276  0.0686
22789W        W38258  12.945   8.199   4.690 -0.0189 -0.0234  0.1009
22790W        W38259  14.513   8.757  15.426  0.0713 -0.0495 -0.1456
22791W        W38260   5.146   8.914  15.083  0.1141 -0.0341  0.0338
22792W        W38261   3.452   8.508  12.234 -0.0383 -0.3861  0.1643
22793W        W38262  15.244   5.284  10.418 -0.2583  0.0012 -0.0701
22794W        W38263   0.507  18.215   0.467  0.0380 -0.0540 -0.2837
22795W        W38264   5.114  13.975   4.516 -0.0284 -0.0582  0.1176
22796W        W38265  10.630   3.077   4.169 -0.6321 -0.0341  0.1141
22797W        W38266   6.037   2.635   3.814  0.3097 -0.0433 -0.2332
22798W        W38267   9.762   5.329   2.991  0.1412  0.3541 -0.2338
22799W        W38268   1.336   4.230   4.852 -0.0128  0.1445 -0.4222
22800W        W38269   5.254   7.583   1.660  0.0884 -0.2206  0.0833
22801W        W38270   8.371  11.313   3.862 -0.1482  0.0535  0.1031
22802W        W38271  12.907  14.907  15.225 -0.2753 -0.1580 -0.1283
22803W        W38272  11.919  16.758  11.560  0.0300 -0.1560 -0.3169
22804W        W38273  10.063  18.494   2.546 -0.2007  0.1722  0.3878
22805W        W38274   8.950  16.939   4.904 -0.1725  0.1450 -0.0414
22806W        W38275  10.834   2.630  14.175 -0.1991  0.1472 -0.2717
22807W        W38276   8.129   2.504   9.877 -0.0361 -0.2284 -0.1346
22808W        W38277   3.949  14.664  14.438  0.1130  0.3528  0.1009
22809W        W38278   7.387   4.500  10.482  0.0792 -0.1982 -0.1527
22810W        W38279   6.496   9.783  11.471  0.0241  0.1937 -0.0174
22811W        W38280   3.645   4.174  14.356 -0.1868  0.0858  0.3677
22812W        W38281  12.837   2.908  15.218 -0.1053  0.1122  0.2410
22813W        W38282   0.715   3.128  10.737 -0.2501 -0.2067 -0.2258
22814W        W38283   4.214   0.458   3.776 -0.2791 -0.0598  0.3388
22815W        W38284   3.511  10.472  10.656  0.1532  0.2366 -0.1721
22816W        W38285   3.831   8.873   1.338  0.2587 -0.2260 -0.1582
22817W        W38286   7.756  14.586  12.093  0.0431  0.1790  0.1545
22818W        W38287   2.310  16.765  11.242 -0.2957  0.3733 -0.2583
22819W        W38288   5.079   3.274  15.386 -0.1767  0.1595  0.3499
22820W        W38289  12.275   3.158   5.132 -0.1979 -0.1538 -0.0156
22821W        W38290  17.191   5.933  12.976 -0.1715 -0.3593  0.2456
22822W        W38291  13.973   9.437   1.300 -0.1080  0.2044 -0.2174
22823W        W38292  14.835  16.175   0.203  0.1769  0.1540 -0.0678
22824W        W38293  18.422  17.897  11.323  0.0781  0.0823  0.2650
22825W        W38294  16.021   7.191   2.262  0.1916 -0.0608 -0.0515
22826W        W38295   1.261  16.702   2.541  0.2357 -0.0089 -0.0767
22827W        W38296   1.411  15.677  12.424 -0.2582  0.2510  0.2972
22828W        W38297   2.764   7.966  14.148  0.2185  0.0312  0.0935
22829W        W38298   4.076  10.538  13.033 -0.0128 -0.0439 -0.0233
22830W        W38299   4.289  12.492   0.212 -0.3128  0.1139  0.1403
22831W        W38300   5.998  10.040  15.593  0.3479  0.1590  0.1342
22832W        W38301  18.307  15.487   2.782  0.1044  0.3104  0.1093
22833W        W38302   1.533   8.834  12.549  0.1235 -0.0863  0.0113
22834W        W38303  15.742  17.038   2.169  0.1474 -0.1194 -0.1529
22835W        W38304   7.893   0.196   1.402  0.2478 -0.1833  0.0316
22836W        W38305  10.535   0.191   5.305  0.4742 -0.0012 -0.3022
22837W        W38306  15.215   6.088  15.581  0.1944 -0.1296  0.2507
22838W        W38307  11.905   1.898  13.200 -0.2086 -0.1855 -0.0919
22839W        W38308  11.542   9.253   2.218  0.1260 -0.0976  0.1156
22840W        W38309   5.709   3.193   4.910 -0.1729 -0.1619 -0.1922
22841W        W38310   3.458   4.770  11.413 -0.0743  0.2075 -0.1427
22842W        W38311   4.935   6.077   2.163  0.0669 -0.1345 -0.1028
22843W        W38312  16.715   7.551  14.517 -0.0977  0.3548  0.0956
22844W        W38313   7.885   5.882  12.797 -0.2043 -0.1523  0.0677
22845W        W38314   9.020  17.560  12.272  0.0170 -0.1532  0.3350
22846W        W38315  11.848  18.144  14.541  0.1110 -0.0520 -0.0005
22847W        W38316   3.086  17.176   1.031 -0.1192 -0.1785  0.0649
22848W        W38317   6.845  16.739   1.038  0.2814  0.0895  0.0618
22849W        W38318  11.786   0.867   5.489 -0.3202  0.0931  0.0011
22850W        W38319   3.796  16.709   3.058 -0.3181 -0.0108 -0.1498
22851W        W38320   9.204  18.076   1.255  0.1447 -0.0555 -0.2147
22852W        W38321  14.648  11.679   3.770 -0.1903 -0.2742 -0.6263
22853W        W38322   4.941   4.994  15.160 -0.3797 -0.0355 -0.1348
22854W        W38323  15.624   4.980  11.096  0.0874 -0.0010  0.2314
22855W        W38324   7.822   3.049   4.410  0.1453 -0.0701 -0.1427
22856W        W38325  18.004   9.157   4.922 -0.4774 -0.2692  0.0318
22857W        W38326   2.887   8.746   0.829  0.0180  0.1364 -0.0086
22858W        W38327   6.426  13.548  10.974  0.1449 -0.0060 -0.0606
22859W        W38328   3.570   4.912   1.553  0.1134  0.0567 -0.0419
22860W        W38329   7.369   2.808   2.891 -0.0358  0.2318 -0.3873
22861W        W38330   8.034  13.808  14.134  0.1569  0.2246 -0.0848
22862W        W38331  16.898   9.999   0.549  0.1574 -0.0816 -0.3057
22863W        W38332  16.057  15.002   0.255 -0.0573  0.2168 -0.0462
22864W        W38333  18.155   3.033   2.937  0.1691  0.0358 -0.1518
22865W        W38334   9.383   7.169  11.715  0.0000 -0.1817  0.1016
22866W        W38335   5.551  18.471   5.611  0.1439  0.1641  0.1664
22867W        W38336   3.583   8.097  15.725  0.0661 -0.1268  0.0836
22868W        W38337   6.817  11.389   4.179  0.0051  0.0314 -0.3693
22869W        W38338   6.839   0.938  15.657  0.2731  0.2044  0.0341
22870W        W38339  16.221   3.912   3.628 -0.1593  0.3081  0.0313
22871W        W38340   1.579  12.643  10.708  0.0316  0.2562 -0.0983
22872W        W38341  13.174   7.152   3.391  0.0670 -0.1377 -0.0469
22873W        W38342  11.816   6.700  14.712  0.1222  0.3674 -0.2355
22874W        W38343   2.411   9.332   3.560 -0.1780 -0.0668 -0.0958
22875W        W38344   6.549   8.491  11.679  0.0781  0.2198  0.0805
22876W        W38345  14.650   4.734   5.644 -0.1160 -0.1323 -0.1451
22877W        W38346  15.677   1.675  11.754  0.0594  0.0335  0.0390
22878W        W38347  11.135   6.547  13.022  0.2346  0.1082  0.0467
22879W        W38348  10.679  16.830   1.973 -0.1467  0.0128 -0.0863
22880W        W38349  17.467  10.670  12.238  0.0939  0.0925 -0.0907
22881W        W38350   5.999  15.390   1.078  0.1816  0.0817  0.0100
22882W        W38351   0.948   6.540   1.033 -0.1666  0.3965 -0.0625
22883W        W38352   4.422  17.068   2.062 -0.0853  0.0310 -0.0229
22884W        W38353   4.593   8.637   4.072  0.1165  0.1024  0.2483
22885W        W38354   6.918   6.457   0.347  0.1536 -0.1232 -0.3011
22886W        W38355  17.510   8.107   4.412 -0.1975 -0.1689  0.1068
22887W        W38356   4.424   3.154  11.448  0.3571 -0.1707  0.2234
22888W        W38357   2.448   4.510  14.812  0.1218  0.2758 -0.2787
22889W        W38358   1.900  14.606   3.770  0.1037 -0.2505  0.0764
22890W        W38359   6.008   5.273  13.684 -0.0966 -0.1996 -0.0913
22891W        W38360  13.012   2.751   2.735  0.1757 -0.2908  0.2075
22892W        W38361   6.346   6.417   1.406  0.0265 -0.3039 -0.4455
22893W        W38362   0.931  15.786   0.462 -0.0780 -0.2050 -0.1309
22894W        W38363  11.665   9.696  15.566  0.1256  0.0467  0.0070
22895W        W38364   5.575  12.154  12.871 -0.1053  0.0310 -0.1824
22896W        W38365  18.504   8.094   0.526 -0.1511 -0.1771  0.2644
22897W        W38366  10.777  17.401   1.543 -0.0373 -0.2400 -0.1489
22898W        W38367   1.190  16.785  13.073  0.0695  0.0200  0.0397
22899W        W38368  11.953   6.355   4.590 -0.4966  0.0838 -0.0328
22900W        W38369  11.234   6.836   0.215  0.1316 -0.0360 -0.2619
22901W        W38370  14.594  10.952   1.103  0.1991 -0.0989 -0.1590
22902W        W38371   2.070  15.948   3.273  0.0805 -0.0241 -0.0838
22903W        W38372  14.210  13.045  15.749  0.1219 -0.0802 -0.1138
22904W        W38373  13.444  14.718  14.351  0.0634  0.0670 -0.0015
22905W        W38374   5.417   0.275  11.886 -0.0343 -0.1576  0.1669
22906W        W38375   9.488  12.213   1.015 -0.0057  0.1205 -0.3370
22907W        W38376   3.905  16.350   0.480 -0.0527 -0.0835  0.2543
22908W        W38377   5.441   3.052  13.434 -0.4166  0.0357  0.1196
22909W        W38378   7.180   9.505   3.085  0.2310 -0.1063  0.1282
22910W        W38379   8.296  14.198   1.941  0.1403 -0.3722 -0.1057
22911W        W38380   3.226  17.236   3.632 -0.0241 -0.0437  0.0566
22912W        W38381  16.240   1.097   9.775  0.1261  0.1767 -0.0668
22913W        W38382  17.652  16.698   1.524 -0.2065 -0.1067 -0.2279
22914W        W38383  12.308  14.714  11.664 -0.3611  0.2395 -0.0996
22915W        W38384   9.390   2.692   0.546 -0.3950 -0.0378 -0.2971
22916W        W38385   0.729   6.637   1.507 -0.0937  0.2616  0.2001
22917W        W38386  17.682  15.597   0.379  0.4561  0.1401  0.0045
22918W        W38387  10.596   2.290   0.748  0.0867 -0.1420  0.0059
22919W        W38388   8.484   1.986   3.510  0.0448  0.3798  0.0958
22920W        W38389  17.185  16.493   1.140  0.3487 -0.0812 -0.1129
22921W        W38390   3.219  14.971  15.455  0.0154 -0.0754  0.1065
22922W        W38391  12.911  15.501   5.679  0.2447  0.0741 -0.2727
22923W        W38392  11.731  14.687   3.807  0.0028 -0.1206 -0.0060
22924W        W38393  17.665  14.525  15.407 -0.1829  0.2119  0.0003
22925W        W38394  15.257  14.281   3.539  0.2547 -0.0026  0.1445
22926W        W38395  12.282   9.167  14.783 -0.0241 -0.3756 -0.3129
22927W        W38396   2.210   0.525   3.749 -0.1454  0.3591 -0.3161
22928W        W38397  12.257   2.869   2.975  0.3778 -0.1104  0.5666
22929W        W38398   5.857   7.686   3.857  0.0813 -0.2826 -0.0064
22930W        W38399   7.773   9.777   4.346 -0.4543 -0.2466 -0.0127
22931W        W38400  17.682   3.159   9.815 -0.0575  0.3203 -0.1203
22932W        W38401   7.038   2.796   0.468 -0.1745  0.0965  0.0970
22933W        W38402   9.369   2.279  14.530 -0.2158  0.0477  0.0266
22934W        W38403  16.715   9.992   3.353 -0.0282  0.1391  0.2164
22935W        W38404   6.599   5.157  12.907  0.2588 -0.1445 -0.0682
22936W        W38405  17.189   1.237  15.091 -0.0133 -0.0449  0.2857
22937W        W38406  11.333   0.640   5.519 -0.0821  0.0696  0.0327
22938W        W38407  13.116  15.761   1.988  0.0926  0.1206  0.1051
22939W        W38408   0.288   8.208   1.586 -0.0410  0.0553 -0.1977
22940W        W38409  13.746   8.957  11.041 -0.1134 -0.1414 -0.1469
22941W        W38410   8.557  16.569   0.356  0.1423  0.0330  0.2839
22942W        W38411   7.044   6.053   5.711 -0.2111 -0.0802 -0.3296
22943W        W38412  10.778   0.836   2.253 -0.1488 -0.2824  0.1249
22944W        W38413  10.631  15.839  14.029 -0.3098  0.1482 -0.1989
22945W        W38414   6.327  10.527  12.477  0.2181  0.2887 -0.0023
22946W        W38415  18.516   3.007  14.229  0.1307 -0.4639  0.2754
22947W        W38416   4.534  17.958   1.300  0.2908 -0.1546 -0.0150
22948W        W38417   4.484  10.276  15.573 -0.1051  0.3110  0.2312
22949W        W38418   1.062   2.853  15.486  0.0621  0.1602  0.0773
22950W        W38419   4.117  16.964  11.051 -0.0680 -0.3690  0.3169
22951W        W38420  17.049  14.314   3.684  0.1996 -0.0142  0.0460
22952W        W38421  16.174   7.272  14.628  0.0225  0.1090  0.0712
22953W        W38422   1.132   8.924   3.254  0.1788 -0.1112  0.1421
22954W        W38423  15.995   3.096  11.483  0.2582  0.1739  0.1951
22955W        W38424  13.046   6.856   4.463  0.3603  0.0084 -0.3357
22956W        W38425  16.501   6.340   2.550 -0.2893 -0.3873  0.0121
22957W        W38426   0.104   6.370   2.021 -0.1285  0.0465  0.0439
22958W        W38427  17.719  13.603  14.142  0.0221 -0.3602  0.0774
22959W        W38428   1.843  17.787   0.624 -0.0290 -0.0128 -0.1287
22960W        W38429   5.280   5.678  14.041  0.1540  0.1536 -0.1560
22961W        W38430   7.660  13.631  14.375  0.0818  0.0736 -0.0141
22962W        W38431   8.761  11.412   2.047  0.1602 -0.0736 -0.0925
22963W        W38432  15.475   3.725  14.682 -0.2946 -0.0241 -0.0751
22964W        W38433   8.931  12.342  13.886 -0.1925 -0.0253 -0.1882
22965W        W38434   0.551  15.096  15.447 -0.0822  0.0401 -0.2075
22966W        W38435  14.055  16.836   3.000  0.0222  0.1513 -0.0125
22967W        W38436   7.508   9.340   3.926 -0.3623 -0.2068  0.1307
22968W        W38437   9.684   1.474  12.860  0.1619 -0.2303  0.1127
22969W        W38438  17.797   4.965  10.506  0.2465 -0.1595 -0.2300
22970W        W38439  12.492  15.824   5.788  0.0889  0.0038 -0.2855
22971W        W38440   7.343  16.033  15.773  0.2981 -0.1823  0.0908
22972W        W38441  16.912  11.695   3.658 -0.2651  0.0335 -0.0054
22973W        W38442   1.955   8.686  10.358  0.1126  0.5088 -0.0245
22974W        W38443  11.453  12.915   1.336  0.0299 -0.0084 -0.2267
22975W        W38444  18.359  12.128  12.564 -0.0887  0.0396  0.2102
22976W        W38445   0.709  13.083  13.361 -0.1831  0.0668 -0.1226
22977W        W38446  18.011   6.544   3.355  0.0903 -0.1847 -0.1625
22978W        W38447   0.950  17.796   4.982  0.1710 -0.0047 -0.4750
22979W        W38448  13.324  13.747  11.851 -0.1375 -0.0863 -0.0349
22980W        W38449   6.397   5.834   5.188  0.0795 -0.4794  0.0264
22981W        W38450  10.050   8.847  13.758  0.0057 -0.2063  0.4705
22982W        W38451  13.944   7.501   3.847  0.1793 -0.2331  0.2286
22983W        W38452   0.426  13.898  12.698 -0.0046 -0.1309 -0.1206
22984W        W38453   0.602   6.525  13.798 -0.1763 -0.0854  0.2284
22985W        W38454  12.439   3.591   5.339  0.2115 -0.1818  0.1535
22986W        W38455   0.899  12.297  11.892  0.0218  0.1420 -0.0863
22987W        W38456  15.743   4.240  14.534 -0.2891  0.2733  0.2773
22988W        W38457   8.010   8.858  15.198 -0.0912  0.0394  0.2998
22989W        W38458   5.758   4.645  14.643 -0.0736 -0.0132 -0.3797
22990W        W38459  10.227   7.533   4.974 -0.0367 -0.0690  0.3177
22991W        W38460   3.620   3.734  14.620  0.0859 -0.1844  0.0837
22992W        W38461   3.897  18.233  12.671  0.2904 -0.1053 -0.0940
22993W        W38462  15.425  11.571   2.671 -0.5402  0.3024 -0.1707
22994W        W38463   2.867  13.767   4.895 -0.1524 -0.2605 -0.1003
22995W        W38464  11.293   5.378   4.042  0.1154  0.1815  0.1303
22996W        W38465  12.887  12.258  11.155  0.0688 -0.3847  0.0532
22997W        W38466   8.993   6.095  15.338  0.0930 -0.3326 -0.0861
22998W        W38467  15.982  11.494  12.994  0.0932  0.3658  0.1196
22999W        W38468  14.258   5.778   1.888  0.0479 -0.1125 -0.3863
23000W        W38469  14.242   4.877  13.753 -0.2022 -0.0643  0.2101
23001W        W38470  16.166  13.030  14.024 -0.3468  0.0616  0.2166
23002W        W38471  18.438   2.145   2.553  0.1991 -0.3604 -0.2817
23003W        W38472  11.561  12.201   3.360  0.1025  0.1948  0.0200
23004W        W38473   6.250   6.448   2.325  0.2530 -0.0162  0.0258
23005W        W38474  15.792  13.754  14.895 -0.1887 -0.0930  0.1775
23006W        W38475  11.964  15.926   5.942 -0.2632  0.2617  0.3150
23007W        W38476  15.527  14.588  14.689 -0.2868 -0.2025  0.1130
23008W        W38477   4.587  11.948  11.203 -0.0610  0.3168 -0.1234
23009W        W38478  11.730  12.688  14.220  0.3906  0.0051 -0.0667
23010W        W38479   6.622  16.236   1.259 -0.1313  0.3363  0.0416
23011W        W38480   5.693  11.596  14.102 -0.1387  0.0950  0.3711
23012W        W38481   4.547  10.152  11.557 -0.1259 -0.2183 -0.0665
23013W        W38482   9.822   5.554   0.955 -0.3940 -0.2284  0.6268
23014W        W38483  16.104   6.171   3.863  0.0619  0.0700  0.1267
23015W        W38484  10.540   9.649   4.930 -0.2385  0.4366  0.0838
23016W        W38485   8.003  10.694   3.322  0.0688 -0.2835  0.0437
23017W        W38486  10.394  13.666   2.571  0.1643 -0.2413  0.0703
23018W        W38487   5.049   5.648   3.011 -0.5702  0.1453  0.1398
23019W        W38488   7.013   6.723  11.794 -0.0751  0.2254 -0.1921
23020W        W38489   2.801   4.634  14.361 -0.1682  0.2291 -0.0781
23021W        W38490   0.952  14.223   1.446  0.0138  0.1768 -0.0246
23022W        W38491   2.297   5.815  10.617  0.2742 -0.3444 -0.3155
23023W        W38492   9.393  10.070  15.009  0.1867 -0.2543  0.1409
23024W        W38493  10.524  15.374   2.921 -0.2724 -0.2105  0.1395
23025W        W38494  17.318   3.811   2.490  0.2442 -0.2410  0.2397
23026W        W38495   2.088  12.161  13.125  0.1701 -0.0213  0.0483
23027W        W38496  15.162  15.040  11.728 -0.2301 -0.0791 -0.0757
23028W        W38497   8.990   2.490   5.371  0.2005  0.2863  0.0179
23029W        W38498  15.082  13.021   3.456 -0.3796 -0.2805  0.1688
23030W        W38499   7.444   7.634   4.166  0.0100 -0.0291  0.0166
23031W        W38500  16.862  17.924   0.672  0.0113  0.3989  0.4249
23032W        W38501  13.014   3.740  13.890  0.0253 -0.0056 -0.0441
23033W        W38502   1.816   8.431   9.908 -0.1657  0.1881 -0.1785
23034W        W38503  14.360  12.517  12.613 -0.1187 -0.0133  0.1704
23035W        W38504  15.746   7.629   2.131 -0.1436 -0.0426  0.0141
23036W        W38505  16.022   1.766   4.584 -0.1146  0.0366 -0.1302
23037W        W38506  17.327   0.435  10.383  0.4425 -0.2833  0.3589
23038W        W38507   3.190   4.900  14.234  0.0160 -0.0339  0.2096
23039W        W38508   6.744   9.937   3.727 -0.1641  0.1352 -0.1255
23040W        W38509   1.893  16.687  11.705 -0.1962 -0.1054 -0.1554
23041W        W38510   8.943  16.997   0.446 -0.1078 -0.0204  0.2554
23042W        W38511   0.205  10.752   9.932  0.0443  0.0818 -0.2825
23043W        W38512  12.799   8.660   0.126  0.2834  0.3511  0.1344
23044W        W38513   5.015   0.399   5.434 -0.2531  0.2322 -0.1679
23045W        W38514   5.145   4.142   0.011 -0.0857 -0.3388  0.3403
23046W        W38515  10.660   5.764  11.717  0.2022  0.2577 -0.0361
23047W        W38516  16.767   9.444   4.352  0.0635  0.3181 -0.0615
23048W        W38517   7.787   8.815   4.070  0.1931  0.3603 -0.0596
23049W        W38518  18.565  10.206   4.245 -0.0362  0.1467 -0.2469
23050W        W38519   9.484  14.556   0.205 -0.1355 -0.1796 -0.0649
23051W        W38520   7.463   9.496   1.976 -0.0551  0.0343 -0.0629
23052W        W38521  10.656  13.387  11.302  0.1630  0.0679 -0.0140
23053W        W38522   6.882  10.081  13.189 -0.2828  0.0862 -0.0285
23054W        W38523   5.985  18.136  14.077 -0.0859  0.1388 -0.0527
23055W        W38524  15.629   9.917   1.938  0.1717  0.1280  0.0194
23056W        W38525  14.912  18.282  15.202 -0.0856  0.1664  0.0974
23057W        W38526  15.514  12.913   3.041 -0.0050  0.0700  0.3333
23058W        W38527  13.593  10.348  12.765  0.0721 -0.0213 -0.0114
23059W        W38528  16.185  17.094  14.988 -0.0816 -0.1328 -0.3796
23060W        W38529  16.607   7.771  14.043  0.0512  0.1536  0.2143
23061W        W38530  10.673  16.946  15.135  0.1315 -0.5147 -0.0884
23062W        W38531  11.206  15.841  13.589  0.2307 -0.0762  0.1241
23063W        W38532  16.593  16.302  12.510 -0.4930 -0.0820  0.0240
23064W        W38533   7.412  11.434  13.758 -0.2031  0.1694 -0.2744
23065W        W38534  12.897   0.214  12.603  0.1206 -0.1667  0.1732
23066W        W38535  14.131  16.232  11.201 -0.2385 -0.1877  0.2133
23067W        W38536  11.197   1.161  15.131  0.4175 -0.1314  0.1988
23068W        W38537  11.484  17.064  11.583 -0.1245 -0.5098  0.2627
23069W        W38538   1.261  13.402   2.459  0.0251 -0.1661 -0.2539
23070W        W38539  18.383  10.578  12.617 -0.0582  0.0993 -0.3454
23071W        W38540   6.669  16.010  15.201  0.0170 -0.4132 -0.2057
23072W        W38541  14.162   7.747  15.580 -0.3109 -0.0443  0.2633
23073W        W38542   6.221  14.827   1.703  0.1290  0.0499 -0.3118
23074W        W38543  14.666  12.794  11.803 -0.0426 -0.1987  0.2018
23075W        W38544   3.357  12.379   2.283  0.0038 -0.1682 -0.0730
23076W        W38545   3.489   5.851   3.338  0.0611 -0.0184 -0.1860
23077W        W38546   3.353  12.513   0.107  0.1784  0.1946 -0.1376
23078W        W38547  10.318   3.554  11.356  0.1530  0.1802 -0.0624
23079W        W38548  16.930  11.386  15.589 -0.1950  0.2766  0.0149
23080W        W38549  10.510   4.985  10.480 -0.3396 -0.1806  0.2733
23081W        W38550   5.115   3.831  11.702 -0.2978  0.0393 -0.0516
23082W        W38551  11.518  16.811   4.127  0.1397  0.0963  0.0680
23083W        W38552  16.829   4.353  15.377  0.1911 -0.1876  0.1307
23084W        W38553   5.294  14.325  12.573  0.1492  0.0457 -0.0853
23085W        W38554   2.098   7.966   0.536 -0.0978  0.1175  0.0087
23086W        W38555  16.013   2.982   2.000 -0.1790 -0.3067  0.2495
23087W        W38556  13.026   0.013   2.775 -0.0515  0.2291 -0.3764
23088W        W38557   1.318   1.675   0.783  0.2214  0.1061  0.3348
23089W        W38558  14.836  18.439   0.581 -0.1816  0.1280  0.2908
23090W        W38559   9.784  11.632  13.700  0.2685  0.2120 -0.1046
23091W        W38560   6.896   0.835   0.877  0.1217  0.2429  0.1699
23092W        W38561  14.012   0.745  11.012  0.0487  0.2966 -0.2202
23093W        W38562   9.499   7.140  11.162 -0.2469  0.0559  0.0423
23094W        W38563  16.208   1.024  13.541 -0.2482 -0.0580 -0.1913
23095W        W38564   2.314  12.676   2.524  0.0216 -0.1747  0.2552
23096W        W38565   4.236   2.738  15.015 -0.0780  0.0021 -0.0800
23097W        W38566   0.721   7.376  12.539  0.0330  0.2129 -0.3976
23098W        W38567   9.123  16.011  13.443  0.1511  0.1136  0.0208
23099W        W38568   8.764  18.320  14.763 -0.1021 -0.1009 -0.2464
23100W        W38569   9.127  14.242  14.112 -0.1232 -0.0882 -0.1310
23101W        W38570  13.711  14.235   2.611  0.3239  0.0912  0.0865
23102W        W38571  12.189  18.534   3.965 -0.3202  0.0922  0.2230
23103W        W38572   2.410   4.926   3.200 -0.1414 -0.0690 -0.4850
23104W        W38573   8.608  13.494  12.059  0.1342 -0.2940 -0.4201
23105W        W38574  12.582   8.506   1.509 -0.0461  0.4780 -0.0726
23106W        W38575   3.680   1.274  14.847 -0.2747 -0.0228  0.3108
23107W        W38576   4.472  18.388   2.997 -0.1822  0.5332  0.3863
23108W        W38577   7.809  17.600   9.996 -0.1901 -0.1234  0.0859
23109W        W38578   7.198  10.070   9.999  0.4120 -0.0698  0.1116
23110W        W38579   4.972   2.115   4.323 -0.3649  0.3113 -0.2159
23111W        W38580   3.565   3.695  11.647  0.2061 -0.0923 -0.0260
23112W        W38581   5.428   6.217  15.701  0.0086  0.2427  0.0592
23113W        W38582  10.101   0.807  11.032  0.1150 -0.2014  0.0473
23114W        W38583   8.226  16.125   4.315  0.2054 -0.1912 -0.3441
23115W        W38584  13.330  13.406   2.357 -0.2278 -0.0879 -0.0654
23116W        W38585   8.632   5.490  14.495  0.0997  0.0493 -0.2079
23117W        W38586   6.396   4.835  15.317  0.0605  0.3358  0.1166
23118W        W38587  16.873   0.030   4.317  0.1141 -0.0921 -0.3478
23119W        W38588   3.368   9.540  12.038  0.2260  0.0757  0.1102
23120W        W38589  16.503   8.476  12.701 -0.0717  0.1073 -0.0824
23121W        W38590   7.041  12.610  13.612  0.0907  0.0958  0.0988
23122W        W38591  12.228   8.659   2.726  0.0958 -0.0041  0.0660
23123W        W38592   6.696  16.256   2.478  0.1767  0.0470 -0.1513
23124W        W38593   1.790   3.474  13.437  0.1787  0.2958 -0.1099
23125W        W38594   5.597   1.428   3.981 -0.3463  0.0494 -0.0000
23126W        W38595  18.610  16.123  15.641  0.2540  0.0192 -0.1765
23127W        W38596   4.289  14.058  12.847 -0.0116 -0.0076 -0.1827
23128W        W38597   4.832   3.582   3.738  0.1622 -0.1468 -0.4194
23129W        W38598  17.565   5.374   1.745 -0.1537 -0.1202 -0.0648
23130W        W38599   8.543  18.625   0.919 -0.0937 -0.0667 -0.0916
23131W        W38600  13.439   5.145   2.237  0.0530 -0.0744  0.2647
23132W        W38601  12.954  14.734  14.614  0.0344 -0.2087  0.0639
23133W        W38602   0.168  12.866   0.951 -0.3495  0.1325 -0.0585
23134W        W38603   6.786  15.324  14.550  0.0962 -0.3940  0.0700
23135W        W38604  10.300  11.213  15.518  0.0637  0.0932 -0.2805
23136W        W38605  16.340   2.636   3.007  0.0026 -0.0057  0.2837
23137W        W38606  11.724   3.066   0.473  0.1687 -0.1344  0.1491
23138W        W38607   1.383   6.984   0.854 -0.4341  0.1505 -0.2301
23139W        W38608   7.444  15.899   4.342 -0.1337 -0.1202 -0.1335
23140W        W38609   8.426   0.157   9.793  0.2968 -0.1123  0.1685
23141W        W38610  15.426   9.176  13.506 -0.2399 -0.0135 -0.0840
23142W        W38611  11.833  18.539  12.150  0.0541  0.3200  0.0349
23143W        W38612  14.861  12.761   0.840  0.1985  0.0512  0.2042
23144W        W38613   0.797   6.895  14.063  0.1442 -0.1688  0.0281
23145W        W38614  17.830   2.075  15.445 -0.1474  0.3793  0.1527
23146W        W38615  18.053  16.378   4.969 -0.0970  0.0888  0.1914
23147W        W38616  12.002   9.140  13.554  0.3740  0.0761  0.0334
23148W        W38617  15.296  13.229   1.424  0.2490 -0.1611  0.2837
23149W        W38618   7.376  10.409   2.307  0.0413  0.1786 -0.1712
23150W        W38619   2.497   9.784   3.173  0.0085  0.0153  0.0755
23151W        W38620   1.076   4.261   1.033 -0.1238 -0.4929 -0.2811
23152W        W38621  16.759   6.390  14.857 -0.3733  0.1046  0.4677
23153W        W38622   6.794  15.270  11.311  0.0558 -0.1626 -0.2805
23154W        W38623   5.171   3.435  10.755 -0.1830 -0.0545  0.1523
23155W        W38624   4.507   7.947   3.845 -0.0037  0.0546  0.1394
23156W        W38625   6.160   7.331  14.819  0.2544  0.0705 -0.0377
23157W        W38626  12.112   7.244  15.345  0.1271 -0.2438  0.1795
23158W        W38627  15.705   8.637   2.068 -0.1531 -0.1104 -0.0249
23159W        W38628   4.948   4.083  10.954 -0.2476 -0.1729 -0.1756
23160W        W38629   4.651  16.531  10.189 -0.0843 -0.1094 -0.0288
23161W        W38630   2.055  17.643   9.637  0.3083  0.3878  0.3537
23162W        W38631   9.074   7.335   0.751  0.0608  0.5701 -0.3279
23163W        W38632   5.208  14.645   3.977  0.0558 -0.1114 -0.1283
23164W        W38633   6.030   8.544  11.114  0.3375  0.0132 -0.0674
23165W        W38634   2.058   6.496  11.818 -0.2295  0.1019 -0.0408
23166W        W38635   5.075  10.645   5.430  0.3161 -0.1168 -0.1566
23167W        W38636   6.369   9.128   1.067 -0.2536  0.1453 -0.0905
23168W        W38637  16.411   1.813  15.149 -0.1099 -0.0639 -0.0355
23169W        W38638   7.393   6.341  15.747 -0.3097 -0.2615 -0.0150
23170W        W38639   9.282   5.225  14.120 -0.1438 -0.1725 -0.0358
23171W        W38640   0.796  14.472   4.399  0.3000  0.1616 -0.0828
23172W        W38641  16.856  13.966  11.958  0.2218 -0.0629  0.0098
23173W        W38642  12.839  16.052  13.093 -0.7169  0.3742  0.1070
23174W        W38643   6.711   2.934   2.844  0.1458 -0.1110 -0.3590
23175W        W38644   7.335   3.712   1.364 -0.0810  0.0668  0.1057
23176W        W38645  10.219   3.326   4.045  0.0362  0.0702 -0.0413
23177W        W38646  13.724   9.391   3.257  0.2580  0.3321 -0.2431
23178W        W38647   8.483   3.558   2.095  0.1980 -0.0347 -0.2089
23179W        W38648  17.789   2.880  13.073  0.1574  0.2424  0.0766
23180W        W38649   0.754  12.931  14.661  0.1043  0.3017  0.2244
23181W        W38650  11.214  11.580  15.153 -0.1423  0.0737  0.1906
23182W        W38651   1.707   1.112  13.857 -0.0895  0.0116  0.1435
23183W        W38652  12.118   1.251  15.614  0.2194  0.0951 -0.2676
23184W        W38653   6.801  11.870  12.203  0.0363  0.3472  0.0070
23185W        W38654  10.373   1.830  13.630  0.5943  0.1241 -0.0062
23186W        W38655  16.355   7.029   1.541  0.1201 -0.3982  0.1424
23187W        W38656  18.142   8.041  10.866 -0.0302  0.1139  0.0324
23188W        W38657  10.899   2.230   5.297 -0.2986 -0.1258  0.4378
23189W        W38658  17.757  18.475  15.253 -0.1681  0.2547  0.2149
23190W        W38659  11.712   7.525  15.255  0.2660  0.1625  0.1714
23191W        W38660   8.236   2.326   0.301 -0.2359 -0.0924  0.0442
23192W        W38661  10.091   2.781   2.693 -0.1392  0.2439 -0.1527
23193W        W38662   3.838   1.527  13.144 -0.0551 -0.2033  0.0663
23194W        W38663   4.755  18.526  13.098  0.1114 -0.4169 -0.0416
23195W        W38664   4.578  11.376   2.875 -0.0159 -0.0171  0.0719
23196W        W38665  16.714  16.005   5.031 -0.3144 -0.0810  0.1145
23197W        W38666   7.404   3.548   0.869 -0.1157 -0.3845 -0.3026
23198W        W38667  12.964   0.943   1.765 -0.2711 -0.2805 -0.2376
23199W        W38668  15.838  11.491   0.863  0.0988  0.0368 -0.1801
23200W        W38669  13.717  15.527  12.977 -0.2141 -0.0200  0.0230
23201W        W38670   8.668   6.996   0.918  0.0302  0.0572  0.1345
23202W        W38671   3.864   4.227  12.432 -0.0903 -0.1575  0.0623
23203W        W38672  16.096  11.907  13.462  0.1070 -0.1061 -0.0661
23204W        W38673   2.856  16.438  12.750  0.1576  0.0712  0.1719
23205W        W38674   3.032  13.483  15.670  0.2250  0.1274 -0.1524
23206W        W38675   0.972  12.100   3.096 -0.2413  0.4702 -0.0161
23207W        W38676  12.639  15.098   5.670 -0.3878 -0.0558  0.2210
23208W        W38677   6.692   7.683  12.661 -0.1654 -0.2115  0.2455
23209W        W38678   8.600  17.015   0.069  0.3169  0.0344  0.1376
23210W        W38679   5.447   4.900   9.898 -0.0145  0.2224  0.0934
23211W        W38680   4.279   7.131  13.676  0.1186 -0.0852 -0.1423
23212W        W38681   3.595   4.574  12.774  0.2129 -0.1799  0.0907
23213W        W38682   9.084  12.100   1.284 -0.1643 -0.2318  0.2133
23214W        W38683   7.408  11.283  11.034  0.0559 -0.3722 -0.1536
23215W        W38684   9.362  15.378   0.192  0.1731 -0.3876 -0.0939
23216W        W38685   2.949   7.858  13.261 -0.0371 -0.4817 -0.1895
23217W        W38686   8.043  10.357  12.351  0.1415 -0.1757 -0.0562
23218W        W38687  13.118   6.335   3.157 -0.0954  0.0089  0.1240
23219W        W38688  18.194   4.212  12.945 -0.0491  0.1126  0.0049
23220W        W38689   4.074  16.139   1.286 -0.0407  0.3878 -0.2440
23221W        W38690   1.129   3.321  15.339 -0.1949  0.1029  0.0987
23222W        W38691  13.332   6.119   2.740 -0.0517  0.1955  0.0666
23223W        W38692   2.528  16.188   2.468  0.0665 -0.0256  0.0259
23224W        W38693   9.164  12.263  11.676 -0.0264  0.3218  0.0397
23225W        W38694  16.205   7.725  12.427 -0.0115 -0.1252  0.1114
23226W        W38695   1.913  11.348   1.827  0.1487 -0.1011  0.1222
23227W        W38696   2.131  18.457  10.741  0.1992 -0.2150  0.2742
23228W        W38697   6.539  12.607  13.711 -0.0959 -0.1176 -0.1612
23229W        W38698   6.689   7.770   3.304  0.2045  0.0417 -0.1183
23230W        W38699   2.126   3.015  11.594 -0.1045 -0.1896 -0.0621
23231W        W38700   4.045  11.349   2.915 -0.0783  0.2259  0.5313
23232W        W38701   5.090   9.334   2.266  0.1204 -0.1221  0.2327
23233W        W38702  16.014  14.068  15.494  0.2324  0.3273  0.0144
23234W        W38703   0.065  17.793   1.981 -0.0337 -0.0334  0.0282
23235W        W38704   4.220  12.049   4.961 -0.0495  0.2274 -0.0119
23236W        W38705  10.982  11.270  14.266 -0.0542 -0.1030 -0.4586
23237W        W38706  17.420  18.236  10.060 -0.1559  0.1922  0.3850
23238W        W38707   5.408   3.751   1.427  0.3971  0.0000  0.1467
23239W        W38708   5.167  18.103   3.933 -0.0559 -0.1506 -0.0951
23240W        W38709   3.326   8.871   1.108  0.2360 -0.0001  0.1660
23241W        W38710   1.591   8.417   1.299 -0.1525 -0.5716 -0.4093
23242W        W38711   2.495  12.329  10.557  0.5501 -0.0788 -0.1279
23243W        W38712   0.331  10.791   3.158  0.1541 -0.0380 -0.1301
23244W        W38713  15.691   9.369   4.461  0.0328 -0.1477  0.1311
23245W        W38714   1.882   2.277   2.548 -0.1298  0.0403  0.2309
23246W        W38715   6.837   9.169  15.423  0.0416  0.0533 -0.0053
23247W        W38716   7.577   5.718   4.509 -0.2507 -0.0487 -0.1907
23248W        W38717  14.307  12.178   5.404  0.1228  0.2045 -0.0235
23249W        W38718   7.698  17.298  12.770 -0.0243 -0.1013  0.0302
23250W        W38719  11.214  17.122   6.048  0.2586  0.3095  0.0722
23251W        W38720   5.181  17.066  14.856 -0.0685  0.0346  0.1298
23252W        W38721  14.844   8.313  10.816  0.3996 -0.2307 -0.0288
23253W        W38722  15.374  10.740   3.478  0.2300 -0.1318  0.2186
23254W        W38723  11.838  17.271   2.183  0.0426  0.1154 -0.1909
23255W        W38724  12.119   1.530   4.643  0.1871 -0.1399  0.3175
23256W        W38725   8.992  12.480   2.197 -0.1790 -0.0436  0.0131
23257W        W38726   9.760   1.898   3.849 -0.1575 -0.0465 -0.2739
23258W        W38727   3.254   4.925  12.870 -0.0389 -0.2222 -0.0416
23259W        W38728   2.871   4.236   1.540  0.2002  0.0645  0.2388
23260W        W38729   5.906  18.288   0.267  0.1717  0.1089  0.2426
23261W        W38730  11.438   1.043  12.950  0.2260 -0.1384  0.0337
23262W        W38731   5.692  17.121   2.816 -0.0114  0.4155 -0.0745
23263W        W38732   0.536   4.375  11.414  0.1945 -0.2266 -0.2143
23264W        W38733  14.917   8.553   2.893 -0.3253  0.1273  0.0202
23265W        W38734  17.629   1.801   2.879 -0.0034 -0.2266  0.0742
23266W        W38735  16.444  14.329  11.895  0.4850  0.0437  0.0052
23267W        W38736   1.232  12.140  14.138 -0.0625  0.0451 -0.0436
23268W        W38737   8.003  15.004  12.221  0.1982 -0.2219  0.3463
23269W        W38738  18.424   3.838   2.020  0.0426  0.1273 -0.2030
23270W        W38739  12.252  10.808  13.252 -0.1013  0.0924  0.1919
23271W        W38740   8.773   7.632  12.235  0.3218 -0.1665  0.1267
23272W        W38741  18.383   5.726  12.080  0.1471 -0.1015  0.1619
23273W        W38742  16.313   9.884  12.594  0.1104  0.1129  0.2333
23274W        W38743  18.004  14.233   2.561 -0.2057 -0.2474 -0.0850
23275W        W38744  12.098   0.487  15.457 -0.1743  0.1268  0.4428
23276W        W38745  15.833   6.053   0.861 -0.4995  0.0616  0.1725
23277W        W38746   2.769   6.579  13.882  0.1863  0.1975 -0.2177
23278W        W38747  16.423  16.107  13.324 -0.1640 -0.3000  0.0202
23279W        W38748   0.098   5.391   0.916 -0.1851 -0.0386  0.0917
23280W        W38749  17.687  10.513  13.263 -0.2261 -0.3150  0.0318
23281W        W38750  13.442   8.143   0.405  0.1979  0.0902 -0.0942
23282W        W38751  14.199   9.831  14.374 -0.0849 -0.0904  0.1254
23283W        W38752   5.713  16.867   0.299  0.0595 -0.0141 -0.0336
23284W        W38753  11.673   0.604  11.622  0.3169 -0.1315  0.1107
23285W        W38754  13.693   2.182   2.865 -0.1813 -0.1274 -0.0275
23286W        W38755   6.741  16.851  13.510  0.1982 -0.1461  0.0562
23287W        W38756  10.198   0.043   4.448 -0.1608  0.0386 -0.0294
23288W        W38757  16.809  16.500  11.736 -0.3155  0.0328 -0.2835
23289W        W38758  17.357  11.682  10.901 -0.0526  0.0220 -0.0135
23290W        W38759   8.200  11.022  10.466  0.2012  0.0482  0.1212
23291W        W38760   2.219   9.513   1.227 -0.2755 -0.3134  0.4132
23292W        W38761   0.839  16.933   0.370  0.0693 -0.1463 -0.1251
23293W        W38762  11.763  18.315  13.079 -0.0663  0.1178 -0.1269
23294W        W38763   5.942  13.245   0.026 -0.0360  0.0160 -0.3795
23295W        W38764   2.135   3.958  12.195 -0.0941 -0.0670 -0.1507
23296W        W38765  14.548  10.303  13.108  0.6909  0.4534  0.0103
23297W        W38766   5.479   6.227  10.941  0.3158  0.2840 -0.2217
23298W        W38767   5.308  11.701   4.284  0.0964 -0.1222  0.5370
23299W        W38768  15.137  17.349  15.092 -0.0951  0.0182 -0.0302
23300W        W38769  15.415   0.652   5.388  0.1354  0.1775 -0.0683
23301W        W38770  17.169   2.310  13.906  0.2508 -0.0175  0.2228
23302W        W38771   8.778   4.193  13.145  0.2163 -0.1923 -0.1742
23303W        W38772   2.782  15.196  15.459 -0.0928  0.0202 -0.1432
23304W        W38773   5.773   6.390   3.343  0.3048 -0.0208 -0.1065
23305W        W38774  18.338  16.717   4.604 -0.0344  0.0467  0.1321
23306W        W38775  16.716  16.593   1.004 -0.0751 -0.2727 -0.2409
23307W        W38776   9.835  11.209   4.311  0.1973 -0.2551 -0.0335
23308W        W38777   7.158   9.063   0.997  0.2589 -0.2100  0.0178
23309W        W38778   8.961   0.586   4.168  0.0087 -0.0251 -0.1339
23310W        W38779  10.945   4.569   4.060  0.1031  0.0365 -0.1673
23311W        W38780  14.944  14.818  13.383 -0.1433 -0.3485  0.0383
23312W        W38781   7.565   7.600  11.848  0.0179 -0.2849 -0.4511
23313W        W38782   2.543  11.867   2.664  0.1069  0.0400  0.1877
23314W        W38783  18.142  18.004  12.594 -0.3901 -0.1375 -0.1293
23315W        W38784   1.368   1.355  12.520 -0.0303 -0.1012  0.0507
23316W        W38785   1.769   1.446   0.967  0.0289  0.0969 -0.1801
23317W        W38786   3.371   3.949   4.626  0.1739 -0.3567  0.0043
23318W        W38787   1.124  12.723  13.839 -0.1690 -0.3818  0.1944
23319W        W38788   6.750  15.438  12.382  0.1019 -0.0065 -0.0044
23320W        W38789   9.863  13.135  10.052  0.0287  0.0225 -0.1810
23321W        W38790  13.318   8.241  11.453  0.0043  0.1509 -0.1650
23322W        W38791  11.102  14.309   2.877 -0.2631  0.2833  0.1266
23323W        W38792  17.350   8.893   3.182 -0.0877 -0.2681  0.0716
23324W        W38793   1.017  17.747   2.456 -0.1117  0.0988 -0.1214
23325W        W38794   7.421   1.250   0.696 -0.0292 -0.0878 -0.0166
23326W        W38795   2.548  15.423   5.128  0.0238  0.2652  0.2207
23327W        W38796   8.583  17.717   1.561  0.2601 -0.1079 -0.2381
23328W        W38797   6.455  18.161  12.812 -0.2378  0.3043 -0.1571
23329W        W38798  17.353   7.432   5.220  0.2139 -0.2004 -0.1134
23330W        W38799  14.113   3.971   1.441 -0.5270  0.1119  0.1849
23331W        W38800   1.605  11.242   2.688  0.3125 -0.1304 -0.2105
23332W        W38801   4.337  12.970   0.062 -0.1088  0.0591  0.1952
23333W        W38802  13.361   9.274  11.038 -0.5185 -0.2910  0.2081
23334W        W38803   1.225  10.969  15.047  0.0162 -0.3465  0.2357
23335W        W38804   5.227   3.639  14.888  0.0080 -0.2218  0.0184
23336W        W38805  10.315  17.689   3.338  0.2261  0.2584  0.0384
23337W        W38806  17.891  11.058   3.099  0.0380 -0.0034 -0.1774
23338W        W38807  18.555   6.761   0.230 -0.1290 -0.1254  0.0142
23339W        W38808   2.395  15.911   2.937  0.0549 -0.1557  0.2711
23340W        W38809  13.548  16.344  13.987 -0.1724  0.1311 -0.1452
23341W        W38810   4.668  14.016   5.455 -0.2806  0.0897  0.1221
23342W        W38811   1.700   8.223   4.172 -0.3324 -0.0198 -0.2376
23343W        W38812   5.159   6.975  11.243 -0.0819 -0.0182  0.1788
23344W        W38813   8.858   8.420   4.899  0.0462  0.2893  0.2546
23345W        W38814   1.484  14.994   4.083  0.0709  0.0612 -0.0901
23346W        W38815   4.351   8.079  11.364  0.0461 -0.1152  0.3949
23347W        W38816   6.911  13.206   1.110 -0.0646 -0.0025  0.2081
23348W        W38817  15.487  14.066  13.072 -0.1611  0.0983 -0.0613
23349W        W38818   4.122   9.269   2.914 -0.1150  0.0758 -0.2551
23350W        W38819   0.929  11.507  11.937 -0.2097 -0.0973 -0.0391
23351W        W38820   9.876   7.674   3.995  0.0638 -0.2699 -0.0600
23352W        W38821   2.816  13.950  11.424  0.1076  0.0509  0.0581
23353W        W38822   4.663   3.999  14.064  0.3464  0.3145  0.2051
23354W        W38823   9.774   8.255  13.471  0.1178 -0.2367 -0.1750
23355W        W38824  17.210   4.470  12.721  0.0483 -0.0330 -0.1802
23356W        W38825   5.407  12.433  12.457 -0.0107  0.2781  0.3075
23357W        W38826   9.374  17.584   3.822  0.1426 -0.2273  0.1578
23358W        W38827   9.190   7.628   3.232 -0.0014 -0.1229 -0.0082
23359W        W38828   9.690  11.945  15.081  0.2554 -0.0979 -0.3861
23360W        W38829   0.551  16.652  12.395 -0.0533 -0.3296  0.0111
23361W        W38830   3.291   8.952   2.164  0.2527 -0.1024  0.0353
23362W        W38831   9.381   3.890   0.991 -0.2969  0.0851 -0.0512
23363W        W38832  12.722  15.177  13.387  0.1221  0.0359  0.0524
23364W        W38833   8.221   4.937  13.651  0.1602 -0.0343 -0.0038
23365W        W38834   0.976  15.668   3.615 -0.1045 -0.0712 -0.2587
23366W        W38835  18.094   8.528  12.907  0.1129 -0.2080  0.0517
23367W        W38836   6.701   4.992  14.471 -0.2843  0.0004  0.3403
23368W        W38837  18.091  18.123   3.148  0.2631 -0.1202 -0.3314
23369W        W38838  17.008   1.143   2.790 -0.0222  0.0154 -0.1867
23370W        W38839   7.150   8.472  13.325 -0.0787 -0.3842  0.1008
23371W        W38840  12.597   4.177   0.783  0.0582 -0.0056 -0.0665
23372W        W38841  15.711   1.870  10.742  0.1311  0.1800 -0.0884
23373W        W38842  14.924   6.141  15.142  0.3287 -0.0838  0.2740
23374W        W38843  11.453  11.645  12.428  0.1244  0.1269 -0.2283
23375W        W38844  15.474  10.785   2.918 -0.1024  0.0488 -0.0942
23376W        W38845  12.037  17.286   3.464  0.2535 -0.0706  0.2232
23377W        W38846  17.282  11.479  11.967  0.1974  0.0978 -0.3539
23378W        W38847   1.474  14.722   0.857 -0.0585  0.0702 -0.1485
23379W        W38848  13.731  15.956   4.002  0.0137  0.2461  0.0773
23380W        W38849  16.041   2.254   1.143  0.0040  0.0350 -0.4061
23381W        W38850  18.546   5.772   3.280  0.2804  0.1568 -0.0975
23382W        W38851   0.910   3.960   1.399  0.0645 -0.0424  0.0050
23383W        W38852  18.223   2.662   4.696 -0.0472 -0.1830 -0.0133
23384W        W38853  15.348   5.781   0.155 -0.3074  0.0601 -0.1235
23385W        W38854   9.909   2.087   5.242 -0.0854 -0.1239  0.3100
23386W        W38855  12.940   3.100   1.926 -0.1613  0.3733  0.2580
23387W        W38856   4.069  10.316   2.969  0.0730  0.1194 -0.1035
23388W        W38857   8.956  15.878  14.317 -0.0793 -0.3951 -0.1475
23389W        W38858  10.086  10.275   0.450  0.0204  0.3848 -0.1155
23390W        W38859   9.017   9.888  11.931  0.1585  0.2213 -0.0833
23391W        W38860   3.102   7.723  15.681 -0.1229  0.1199  0.1026
23392W        W38861  16.880   6.502  11.670  0.0938 -0.1677  0.1205
23393W        W38862  14.593   6.679   0.527 -0.2000 -0.0021  0.1049
23394W        W38863   8.427   0.696  15.556  0.0838  0.0044  0.4297
23395W        W38864  16.497  16.813  13.608  0.1360  0.3953  0.1991
23396W        W38865   3.556  17.554  15.043  0.2434 -0.5194  0.0106
23397W        W38866  16.959  11.000   3.225  0.0009 -0.2469 -0.1941
23398W        W38867  17.877  13.338   4.965 -0.0258  0.0712 -0.2299
23399W        W38868   2.169   5.314   3.443 -0.4357 -0.2175  0.0335
23400W        W38869   6.329  17.683  11.947 -0.1138  0.1205  0.4689
23401W        W38870  17.970   3.664  15.605  0.1264 -0.3236  0.1022
23402W        W38871   7.570  18.437   4.736  0.1289  0.0463 -0.4341
23403W        W38872   4.125  18.144  15.390  0.2986  0.0268 -0.3555
23404W        W38873   4.344  12.662  14.206  0.1275  0.0609  0.1275
23405W        W38874   1.101   4.281   2.152 -0.0383  0.0460 -0.0093
23406W        W38875   5.379   1.004   4.770 -0.0482  0.1372  0.0692
23407W        W38876   9.345  11.788  11.596  0.0013 -0.2592 -0.1968
23408W        W38877  17.697   8.064  15.777 -0.0928  0.1113 -0.2391
23409W        W38878  17.447  15.183   4.569 -0.2628  0.0649 -0.2416
23410W        W38879  11.207   0.790   4.176 -0.1060  0.0520 -0.0578
23411W        W38880  16.950  10.319   3.959 -0.4532  0.2008  0.0166
23412W        W38881   5.650  10.517   1.767  0.1220  0.0584 -0.0065
23413W        W38882   5.604  10.308   5.722  0.0016  0.2215  0.1170
23414W        W38883   3.906   2.861   0.396 -0.0777 -0.0158 -0.2613
23415W        W38884  11.441   3.789   5.243 -0.1860  0.0963  0.1229
23416W        W38885   7.523  10.855  14.798  0.1623  0.0891 -0.3815
23417W        W38886   4.348   1.655   2.401  0.0080  0.1651  0.1443
23418W        W38887   0.650  10.648  13.018 -0.1290  0.1659 -0.1182
23419W        W38888  15.898  15.081   2.092 -0.1238 -0.5686  0.1349
23420W        W38889   7.676   1.170  15.324  0.0186 -0.2662 -0.1550
23421W        W38890  12.800  12.531   4.558  0.0856  0.1772 -0.1502
23422W        W38891   0.685   0.963   4.692 -0.0289  0.0965 -0.1375
23423W        W38892   0.333   4.147  14.886 -0.3540 -0.4654 -0.3618
23424W        W38893  11.284  15.758   1.917  0.0612 -0.3781  0.1724
23425W        W38894   3.373   5.092  14.676  0.1202  0.0257  0.2651
23426W        W38895   8.371   4.756   2.433 -0.0726  0.0034 -0.2234
23427W        W38896  17.248   6.592  12.264 -0.2363 -0.1319  0.1559
23428W        W38897  15.850   3.576  11.191  0.2118 -0.1586  0.0825
23429W        W38898  16.585  15.675   3.966 -0.4038  0.1945 -0.1593
23430W        W38899  18.215   9.110   3.600  0.1863  0.0190  0.1606
23431W        W38900   0.969   6.371   3.572  0.0455  0.0067 -0.0690
23432W        W38901   8.371  13.071  12.855 -0.0394  0.1663 -0.4994
23433W        W38902  13.663  17.620   3.377  0.3637 -0.0340 -0.0405
23434W        W38903   0.713  12.952   1.915 -0.3698 -0.1021 -0.3834
23435W        W38904  12.406   7.476  14.223  0.1837 -0.0306  0.0422
23436W        W38905   5.933   9.276   0.206 -0.1923  0.1894 -0.1328
23437W        W38906   7.498  12.054   4.691 -0.1588 -0.0065  0.2209
23438W        W38907   3.114   3.042   0.778 -0.2577  0.3794 -0.0405
23439W        W38908  17.104   9.368   4.857 -0.0714 -0.0912 -0.0084
23440W        W38909   8.654   0.030   5.346  0.0482  0.1706  0.1982
23441W        W38910   1.865  12.148   3.263  0.0095 -0.0738 -0.0833
23442W        W38911   1.726  17.173  11.055  0.1871 -0.2751 -0.0167
23443W        W38912  10.549   6.886   5.086 -0.2167 -0.3379  0.0161
23444W        W38913  11.068  10.990   0.330  0.0130 -0.1330 -0.1418
23445W        W38914   1.326   2.445   4.280 -0.2033  0.2001 -0.2741
23446W        W38915  14.837   4.435   3.168  0.0235 -0.1757 -0.2057
23447W        W38916   4.927  14.062  11.547  0.0173  0.1207 -0.2619
23448W        W38917   0.000  13.773   1.336 -0.3983 -0.1175 -0.1041
23449W        W38918   0.075   4.072   1.108 -0.1327  0.2758  0.3524
23450W        W38919   4.605   8.347   5.181  0.1296  0.3724  0.0836
23451W        W38920  15.940   1.990  12.022  0.2303  0.2309 -0.1124
23452W        W38921  18.170   7.122   0.706  0.0606 -0.0540 -0.1563
23453W        W38922  14.939   2.200  13.195  0.1468 -0.2068 -0.4545
23454W        W38923   8.637   0.702   2.260  0.2576  0.1366  0.1320
23455W        W38924  15.815  13.961  12.237 -0.3215  0.0203 -0.2392
23456W        W38925  12.684   4.934  13.062 -0.0318  0.0067 -0.2250
23457W        W38926   1.737   0.076  14.814  0.1521  0.0501  0.0191
23458W        W38927  13.882   2.967  10.969 -0.3072 -0.2110  0.1974
23459W        W38928   2.721   0.157   0.147  0.3688  0.1731 -0.0685
23460W        W38929  11.745  10.534  12.309 -0.0691  0.1049 -0.1800
23461W        W38930   2.444   4.768  13.539  0.1252  0.0977 -0.0549
23462W        W38931  15.666  14.715   3.525 -0.0858 -0.0644 -0.0794
23463W        W38932   7.233  17.669   4.590  0.0325  0.2027 -0.3151
23464W        W38933   8.149   4.122  12.654  0.3908 -0.2104  0.0175
23465W        W38934   6.702  16.437   4.670  0.1000 -0.0896  0.0857
23466W        W38935   7.832   4.923  14.371 -0.0090 -0.0556  0.0940
23467W        W38936  16.935   8.328   4.577 -0.1949  0.0731  0.3221
23468W        W38937   1.054   3.139  14.025 -0.2006 -0.0493  0.1097
23469W        W38938   9.121  14.397   2.450 -0.0589  0.1727 -0.0987
23470W        W38939  12.807   3.765   2.253  0.1039  0.3040  0.0793
23471W        W38940   9.226   9.807   4.556  0.1331 -0.1913 -0.0502
23472W        W38941   4.341  11.225   9.362 -0.0688 -0.2121  0.2979
23473W        W38942  14.804  18.393   2.160 -0.2261  0.1046  0.1267
23474W        W38943  16.218   6.252  15.545 -0.1379  0.0775 -0.2690
23475W        W38944   5.701  16.410  11.343 -0.1968 -0.0711  0.0306
23476W        W38945  11.668   1.991  14.704 -0.1476 -0.1222 -0.2781
23477W        W38946  15.729  16.584   4.461  0.1249  0.0973  0.1296
23478W        W38947  13.112   4.171   4.089  0.1008  0.2570  0.2056
23479W        W38948   4.658   0.505  13.238  0.0230  0.1218 -0.1833
23480W        W38949   3.360  17.577  13.503  0.2271  0.1059 -0.0577
23481W        W38950  18.189  11.728  12.798 -0.0275  0.3621  0.0068
23482W        W38951   0.405  12.005  13.935  0.3010 -0.0321  0.0695
23483W        W38952   7.086   4.979   0.047  0.1105 -0.3713  0.3061
23484W        W38953  18.336   0.332   5.464 -0.1041  0.0627  0.1244
23485W        W38954   4.779   7.063  13.968 -0.0161 -0.1493 -0.2484
23486W        W38955  14.835   2.427  13.880 -0.0092  0.2278  0.2730
23487W        W38956  17.976   9.127  10.742  0.2194  0.2935 -0.4323
23488W        W38957  16.775   1.111   1.186 -0.2959 -0.2130 -0.1183
23489W        W38958   8.982  16.124  11.505  0.1509 -0.0012 -0.4382
23490W        W38959   7.160   1.773  12.719 -0.3474 -0.3926  0.0064
23491W        W38960  14.884  13.378  11.127  0.0883 -0.1432  0.1023
23492W        W38961  15.941   4.130   4.107  0.1538 -0.1214 -0.1244
23493W        W38962   6.007   7.459  11.010  0.2889  0.1278 -0.0238
23494W        W38963   9.245  17.569  15.176  0.0059  0.2569 -0.0477
23495W        W38964  10.220  11.674  15.777  0.1010 -0.0746 -0.1489
23496W        W38965  12.743  14.338  12.374 -0.1400  0.1295 -0.0205
23497W        W38966  11.370   8.042   2.153 -0.2949 -0.1037  0.0358
23498W        W38967  14.473   7.360   3.169 -0.0882 -0.0189 -0.0101
23499W        W38968  10.775  16.177   4.531  0.0785  0.2161  0.0068
23500W        W38969  16.400  11.483   4.404  0.2520  0.0849  0.0360
23501W        W38970   5.955   7.046   5.154 -0.3496  0.1881 -0.1439
23502W        W38971   5.751   0.506   3.185  0.2237  0.1419 -0.1693
23503W        W38972   4.842   2.460  12.958  0.2618 -0.0774 -0.0888
23504W        W38973   4.833  17.613   1.042  0.0371 -0.2191  0.0143
23505W        W38974  16.917   7.750   3.228 -0.3944  0.0810  0.2653
23506W        W38975  15.938   1.504   6.155  0.2657 -0.4136 -0.3539
23507W        W38976  12.604  10.626  10.735  0.1231  0.1766  0.2929
23508W        W38977  16.500   7.664  10.833 -0.0997  0.0265  0.1698
23509W        W38978   8.201  13.220  11.738  0.1826  0.4529 -0.1900
23510W        W38979   2.728  15.527  11.693  0.0585 -0.0715  0.0753
23511W        W38980  10.915   7.944   0.682  0.0258  0.0798  0.2811
23512W        W38981   4.406  13.460   0.122 -0.0813 -0.1989 -0.3629
23513W        W38982  10.054  11.192  13.963 -0.2652 -0.0130  0.1650
23514W        W38983  14.665   4.221   2.735  0.1380  0.0281  0.0857
23515W        W38984   3.239   5.567   2.829 -0.1813  0.1262  0.2778
23516W        W38985  18.222   5.120   5.090  0.1216  0.3256 -0.0536
23517W        W38986   6.637   3.608  10.571  0.0373 -0.0753  0.0310
23518W        W38987   2.055   9.619  11.400 -0.2958 -0.0096  0.2106
23519W        W38988   7.649  15.794  14.398  0.1717  0.0189  0.2216
23520W        W38989   0.281   7.429   4.062  0.3573  0.0375 -0.1947
23521W        W38990   7.981   1.279   3.382  0.0251  0.1379 -0.2586
23522W        W38991  12.437  15.951   3.678 -0.2706 -0.3629  0.1243
23523W        W38992  15.008  11.550  11.894 -0.0240  0.1359  0.1478
23524W        W38993   4.577  10.827  12.801  0.2590  0.3478  0.0857
23525W        W38994  14.272  13.393  14.184  0.0795  0.1642 -0.0054
23526W        W38995  14.131   3.284   3.456 -0.0163  0.2498  0.1459
23527W        W38996   6.523   7.233  14.288 -0.0263  0.0773  0.1742
23528W        W38997   1.564  18.596  11.584 -0.2108 -0.2384 -0.4285
23529W        W38998  14.440   8.596  13.076 -0.3070 -0.0342 -0.1985
23530W        W38999   3.755   5.737  15.649 -0.0621 -0.4066  0.1636
23531W        W39000  12.535   0.970   1.156 -0.1674  0.1383  0.2840
23532W        W39001  14.939   3.736  14.651 -0.0275  0.1670  0.0942
23533W        W39002  11.241   6.971   1.476 -0.0386 -0.1121  0.0144
23534W        W39003   5.950  17.381  11.769  0.1142  0.3515  0.1245
23535W        W39004   6.891   0.550  15.179  0.1125  0.2751  0.1780
23536W        W39005  15.616  11.728  13.473 -0.1872 -0.2691  0.0277
23537W        W39006  13.465  11.530  12.446 -0.0367 -0.0088 -0.1828
23538W        W39007   7.756   7.268   4.233 -0.3780  0.2471  0.1081
23539W        W39008   9.322   4.098   5.420 -0.2816 -0.1062 -0.3420
23540W        W39009  11.413   4.670  12.558 -0.1206 -0.2034 -0.1945
23541W        W39010   6.966  14.011   2.456 -0.0061 -0.2164  0.0469
23542W        W39011  16.040   8.404   0.989  0.3155  0.2403 -0.3792
23543W        W39012   6.132   5.550   2.154  0.2185 -0.5913  0.0155
23544W        W39013   4.142   9.010   1.705  0.1299  0.0972 -0.1602
23545W        W39014  13.869   6.176   1.171 -0.0563  0.2515  0.2140
23546W        W39015   7.548  13.007  15.164 -0.0252  0.3683 -0.2041
23547W        W39016  16.627   4.161   3.826 -0.1940  0.0306  0.1591
23548W        W39017  13.915   4.356   5.430  0.3580 -0.2077  0.0356
23549W        W39018   6.430  10.897  14.275 -0.0440 -0.0299  0.1267
23550W        W39019   4.188  15.415  11.697  0.0607 -0.1456  0.0136
23551W        W39020   6.322   1.611   2.282 -0.0813 -0.1310  0.1720
23552W        W39021   3.629   3.349   5.466 -0.1796 -0.0371  0.0716
23553W        W39022   7.883  16.158   3.260  0.0072 -0.2422  0.0587
23554W        W39023  11.069   0.649   0.594  0.0951 -0.1360  0.1596
23555W        W39024  17.481  18.611   4.434  0.0721 -0.0776  0.0472
23556W        W39025   0.947   0.547   5.021 -0.1068 -0.2886 -0.0048
23557W        W39026   6.454   1.495  15.001 -0.1323 -0.0929 -0.4240
23558W        W39027   0.814  13.704  12.179 -0.2381 -0.1866 -0.0152
23559W        W39028   6.992  16.685  15.220 -0.2312  0.0917  0.1064
23560W        W39029   3.751  16.463   4.518  0.0735 -0.1007 -0.3336
23561W        W39030   7.343   9.209  13.243  0.3293 -0.0176  0.2527
23562W        W39031   6.518  17.778  13.137  0.5472 -0.1045  0.2345
23563W        W39032  15.384   0.530   2.155  0.2223  0.1638 -0.1155
23564W        W39033   8.415   4.242   2.500 -0.1595 -0.3502 -0.2100
23565W        W39034  15.117  11.498  12.440  0.1163 -0.1554  0.5055
23566W        W39035  12.674   2.468   3.723  0.2338 -0.0598  0.1624
23567W        W39036  18.141  11.754  10.651 -0.2444 -0.2833  0.2146
23568W        W39037  12.433   9.682   5.738 -0.0253 -0.3682  0.0969
23569W        W39038  15.405   8.682   0.472 -0.0791  0.0490  0.0683
23570W        W39039  17.988  18.045  15.563  0.3213  0.0062  0.2982
23571W        W39040  17.908   1.977  13.759 -0.2127  0.0333 -0.1314
23572W        W39041  18.158   0.756   0.154 -0.0926 -0.0848 -0.0013
23573W        W39042  11.311   0.794   1.528 -0.0416 -0.4725 -0.0637
23574W        W39043  13.305   7.555   0.240 -0.0231  0.2086  0.0597
23575W        W39044  14.733   8.379   3.924 -0.0245 -0.0678 -0.0443
23576W        W39045   6.957  13.317   4.450  0.1139 -0.0233 -0.0394
23577W        W39046   7.112   0.336   5.324  0.0482 -0.0821 -0.1532
23578W        W39047   8.092  11.720   0.893  0.0832  0.0994  0.1753
23579W        W39048   0.595   4.713   4.445 -0.0262  0.4964 -0.0595
23580W        W39049  14.880  17.070  14.436  0.3741 -0.1701  0.1007
23581W        W39050   3.502   3.272  14.384  0.2595 -0.1168  0.0166
23582W        W39051  16.243  17.431  12.945 -0.0775 -0.3746  0.0826
23583W        W39052   2.395   6.922   1.800 -0.1152 -0.0708  0.0102
23584W        W39053  17.136  13.178  13.426 -0.4419 -0.2549 -0.0129
23585W        W39054  14.887   3.401  11.589 -0.0746 -0.2147 -0.4703
23586W        W39055   1.561  11.803  13.981  0.1584 -0.3731  0.1216
23587W        W39056   5.990   4.835   3.118  0.4202 -0.3278  0.2869
23588W        W39057  12.320  11.490   1.811  0.1421  0.0684 -0.1000
23589W        W39058  16.121  13.767   4.316 -0.2347 -0.3150 -0.0552
23590W        W39059  16.444  11.981  15.740 -0.0939 -0.0876 -0.0396
23591W        W39060   5.861  13.990  15.554 -0.2936 -0.3891 -0.1854
23592W        W39061   3.794  10.493   4.747  0.1380 -0.0703 -0.0412
23593W        W39062   4.339  15.006  10.158 -0.0836  0.4661  0.4083
23594W        W39063  18.388  15.676   3.738 -0.0037 -0.1657  0.1009
23595W        W39064  17.516   6.329   1.353 -0.0217  0.1297  0.4399
23596W        W39065   2.061  14.521  13.228 -0.2862 -0.5160 -0.0589
23597W        W39066  15.823   5.356   3.909  0.2170  0.5416  0.0119
23598W        W39067  17.963  13.516   2.244 -0.2942 -0.1550 -0.0334
23599W        W39068  15.578   8.694   1.456 -0.3413 -0.3180 -0.0409
23600W        W39069  13.328  12.433   5.370  0.2334 -0.1993 -0.0807
23601W        W39070  17.812   4.210  13.362  0.3808  0.2453 -0.0060
23602W        W39071   2.649   2.069   3.725  0.1862 -0.3225  0.4149
23603W        W39072   4.184   1.327   0.094 -0.1738 -0.0588 -0.1030
23604W        W39073  11.268   7.100   1.957  0.0533  0.1995  0.3249
23605W        W39074   3.340  15.567   1.528 -0.0434  0.0416 -0.1485
23606W        W39075  13.706   7.621   1.768 -0.0484 -0.1062  0.2093
23607W        W39076  12.156   8.904   1.753  0.2437 -0.1559 -0.1862
23608W        W39077  10.653   2.301  13.665 -0.1065 -0.1478 -0.4384
23609W        W39078  17.532   0.483   3.638  0.2065 -0.0549 -0.2833
23610W        W39079   3.213  12.968   1.650 -0.5033  0.1968  0.1780
23611W        W39080   0.651   8.256   2.501 -0.2158  0.0394 -0.2629
23612W        W39081  10.756   7.947   4.207 -0.0867  0.1024 -0.1491
23613W        W39082  12.688   0.722  14.178  0.0208  0.0802 -0.0830
23614W        W39083  11.372   4.941  10.879 -0.0412 -0.3063  0.0918
23615W        W39084  10.623   8.910  11.963  0.0269  0.1724 -0.1408
23616W        W39085  14.993   5.341  11.885 -0.0370 -0.1439 -0.0959
23617W        W39086   4.525   2.401   2.134  0.2706  0.0957 -0.0436
23618W        W39087  15.379  12.839   0.997 -0.2280 -0.0097 -0.2014
23619W        W39088   3.555  14.870  10.088 -0.2132  0.2323 -0.0634
23620W        W39089   8.572   6.373  12.435  0.4446 -0.0871  0.4760
23621W        W39090  17.132   3.622   3.248 -0.1512  0.2522 -0.0902
23622W        W39091   4.012  14.100   4.637 -0.2880  0.0913  0.1517
23623W        W39092   5.950   0.558   0.259 -0.1455  0.1899  0.3444
23624W        W39093   7.571  18.257   0.874 -0.2173  0.0107  0.1523
23625W        W39094   0.440   9.600  15.217  0.0748 -0.0447 -0.1014
23626W        W39095  17.762  15.808  14.040 -0.1635  0.0358  0.1308
23627W        W39096   7.918   5.263  13.922 -0.2212  0.1891 -0.0931
23628W        W39097   8.748  15.694  10.798  0.0163  0.0446  0.0574
23629W        W39098  16.091   0.511   2.705 -0.0085  0.0796 -0.0112
23630W        W39099  16.858   3.892   2.906  0.1163  0.0979  0.2103
23631W        W39100   0.760  18.253  10.649 -0.1364 -0.2160 -0.0561
23632W        W39101   0.309  13.408  13.532  0.0536 -0.0112 -0.0796
23633W        W39102   0.701  12.115  13.214 -0.0751 -0.3928 -0.0853
23634W        W39103   7.147  16.638  11.940  0.0911 -0.0990 -0.3040
23635W        W39104   4.944  17.229  11.333  0.0357  0.4087  0.0102
23636W        W39105  15.184   7.842  10.797 -0.3052 -0.3646  0.4572
23637W        W39106   4.414  15.413  14.797 -0.1537  0.0157  0.1725
23638W        W39107  11.275  14.061   2.439 -0.0290  0.0514 -0.1896
23639W        W39108  18.249  15.724  12.792 -0.1785 -0.0055  0.0525
23640W        W39109   0.249   4.715   2.469  0.0529 -0.2311 -0.3800
23641W        W39110   4.278  17.937   5.061 -0.3425 -0.0586 -0.0911
23642W        W39111  10.713   8.239  14.585  0.1394  0.4879  0.5281
23643W        W39112  13.175  12.282   4.467  0.0816  0.1325 -0.1155
23644W        W39113  17.375   9.546  13.763 -0.0342 -0.1753  0.2266
23645W        W39114  10.279  10.333   4.054  0.0725 -0.2680  0.1847
23646W        W39115   4.059  13.312   5.073  0.2965  0.2436 -0.0712
23647W        W39116  14.938   0.318  14.206 -0.0300  0.2216 -0.2030
23648W        W39117   3.849  13.660   3.402 -0.1339 -0.0401 -0.0366
23649W        W39118  18.385  10.278   2.502 -0.0928 -0.2636 -0.0208
23650W        W39119   6.404  17.098  15.735  0.0779  0.0732  0.1093
23651W        W39120   1.454  14.775   2.494 -0.3003 -0.0267 -0.0391
23652W        W39121   9.530  16.841   1.161  0.0552  0.0012  0.1480
23653W        W39122   6.583   6.108   0.223  0.0885  0.3838  0.1845
23654W        W39123   0.037  11.318   0.315  0.1099  0.2665  0.0606
23655W        W39124   3.925   7.770  15.612  0.3208 -0.1312  0.2001
23656W        W39125  15.281   8.155   2.843 -0.0371  0.0746  0.1410
23657W        W39126   8.157   3.978   4.011  0.1520  0.2764 -0.0846
23658W        W39127   2.347  10.669  10.167 -0.2464  0.1438 -0.0430
23659W        W39128  13.998  11.362   3.252  0.0274 -0.0992  0.0860
23660W        W39129  18.273  10.468   3.743  0.1767 -0.2012  0.0990
23661W        W39130  15.865  11.548   5.367 -0.0555 -0.0102  0.2289
23662W        W39131  11.736   9.164   2.730  0.1202 -0.0514 -0.0836
23663W        W39132   0.537   2.317   4.805  0.1337  0.3138  0.1927
23664W        W39133   0.287   6.933  15.598  0.0663 -0.3298 -0.0420
23665W        W39134   7.510   9.511  14.583  0.0906  0.1019  0.3098
23666W        W39135   4.055   7.512  15.220  0.4150  0.0193 -0.2273
23667W        W39136  18.125  12.055   5.855  0.0127  0.2068 -0.1718
23668W        W39137   2.275  16.842   2.221 -0.2889 -0.2349 -0.4348
23669W        W39138  10.086  16.517   2.390  0.2103 -0.0956  0.1172
23670W        W39139   2.112  12.142   5.508  0.1873  0.0287 -0.1706
23671W        W39140   0.256   1.497  10.744 -0.0492 -0.1660  0.4535
23672W        W39141   3.296  14.750   0.595  0.1269 -0.0937 -0.0718
23673W        W39142  18.080  16.501  13.907 -0.2180 -0.0956 -0.0961
23674W        W39143   7.468  15.013  10.716  0.1126 -0.2657  0.0218
23675W        W39144   2.576   6.150   0.177 -0.0580 -0.0792 -0.2277
23676W        W39145   9.811  14.548  12.850 -0.0262  0.0111 -0.0443
23677W        W39146   7.498  13.487  13.403  0.0545 -0.1978  0.0570
23678W        W39147  10.725  16.960   3.824  0.3740  0.1592  0.1643
23679W        W39148   9.487  16.042  11.469 -0.0201 -0.0983  0.1362
23680W        W39149  10.951  10.380   1.674 -0.1146 -0.1855 -0.0002
23681W        W39150  12.750   6.752   3.420  0.1247  0.0784  0.0124
23682W        W39151   0.987  14.478  15.421 -0.0678  0.0261  0.1207
23683W        W39152   1.929  13.403  10.335 -0.1912  0.0021  0.0963
23684W        W39153   3.857   2.406  11.899 -0.0567  0.3267 -0.1802
23685W        W39154   1.340  16.771  11.963 -0.1636 -0.2615  0.0404
23686W        W39155  12.921  16.972  13.637  0.1784 -0.3132  0.1805
23687W        W39156  10.186  13.019  11.987 -0.2650  0.1895  0.1307
23688W        W39157   7.379   8.278   4.782 -0.1693 -0.0222  0.0790
23689W        W39158   7.229   1.005   2.614 -0.1853  0.5117  0.0862
23690W        W39159  12.381  13.829  13.353 -0.1260 -0.1779  0.2227
23691W        W39160  14.197  14.176   2.451  0.1107  0.0470 -0.2072
23692W        W39161   0.011   4.447   1.443  0.0131 -0.1147 -0.3152
23693W        W39162  10.133  12.352   3.941  0.3239  0.1278 -0.0125
23694W        W39163   0.268   7.545  12.531  0.2408  0.2344  0.0234
23695W        W39164   8.255   5.495  12.872  0.0517 -0.1457 -0.1019
23696W        W39165   3.424  17.909  12.793  0.0745  0.1070 -0.1317
23697W        W39166   6.124  10.336  12.011  0.0734 -0.0154  0.4972
23698W        W39167   5.393  14.237  11.023  0.0171  0.1452  0.1799
23699W        W39168  12.652  11.441  15.374 -0.1124 -0.1030 -0.0766
23700W        W39169   4.147   8.403   3.192  0.1522  0.0533  0.0026
23701W        W39170   1.447  12.170  10.648  0.0030 -0.5450 -0.4057
23702W        W39171   3.868  10.987   9.776  0.1039 -0.1516  0.2072
23703W        W39172  10.691  11.231   4.905  0.2200  0.3099  0.3957
23704W        W39173   7.171  15.385  11.025 -0.2152 -0.0336  0.0500
23705W        W39174  12.301   8.416   0.175 -0.3857  0.1691 -0.3525
23706W        W39175   5.414   4.564  11.571 -0.3806  0.0367 -0.2930
23707W        W39176  11.442   9.424   0.749  0.2376  0.1655 -0.0931
23708W        W39177  18.497  18.536  15.678  0.1139 -0.3852 -0.0594
23709W        W39178   5.794   5.018   0.767 -0.1401  0.2666  0.0298
23710W        W39179  12.326   1.391   1.492 -0.1298  0.1464  0.1577
23711W        W39180   2.276  12.525  14.263 -0.1075 -0.0667 -0.0927
23712W        W39181  13.303  14.371   5.884  0.0621  0.4631  0.1509
23713W        W39182   8.816  10.964   1.840  0.0752  0.0808  0.1419
23714W        W39183  18.084  17.039  12.277 -0.0797 -0.3343  0.0409
23715W        W39184   8.643  16.269  11.165 -0.1900 -0.1383  0.2838
23716W        W39185  12.073  18.254  12.618 -0.0337 -0.1254  0.1217
23717W        W39186  14.241  12.104  15.111 -0.0413  0.2418 -0.0903
23718W        W39187   4.100  10.718  14.488 -0.0050  0.0807  0.1853
23719W        W39188  14.878   3.031  13.582 -0.2445  0.1288 -0.0962
23720W        W39189  14.314  11.965   0.961  0.1851  0.0040  0.0906
23721W        W39190  11.217   3.844   6.619 -0.0390 -0.2077 -0.0410
23722W        W39191  15.896   9.138  12.228 -0.2093  0.2750 -0.1019
23723W        W39192   8.269   9.422  15.532  0.1311  0.2444  0.2303
23724W        W39193   3.891  15.179   2.559  0.0488  0.1853  0.0038
23725W        W39194  16.103   0.600  13.949 -0.2048  0.0569 -0.3458
23726W        W39195   8.362  14.879  14.982 -0.1169 -0.0608  0.0114
23727W        W39196  10.611  11.557   4.422  0.1546 -0.0059  0.1944
23728W        W39197  10.327  11.043  10.709 -0.2012  0.0289 -0.0621
23729W        W39198  13.261   5.646  11.964 -0.0615 -0.2101  0.1673
23730W        W39199  16.043  12.178   1.258  0.1985  0.0927  0.1202
23731W        W39200   6.596   8.305  12.408  0.1977  0.0457 -0.3343
23732W        W39201   2.210  10.292  10.967 -0.1050 -0.3955 -0.0864
23733W        W39202   5.455  16.159  13.818 -0.1205  0.0191 -0.0698
23734W        W39203   0.542   5.039  10.182  0.1888 -0.3671 -0.2939
23735W        W39204  14.536  16.577   4.787  0.2491  0.1619 -0.1416
23736W        W39205   8.213  13.403  11.011  0.0107 -0.0263  0.0748
23737W        W39206   0.311  13.087   3.574 -0.2170  0.1214 -0.3101
23738W        W39207   1.079   3.181   0.098 -0.0902 -0.0016  0.0723
23739W        W39208  14.516   9.139   2.501 -0.0393  0.1868  0.1554
23740W        W39209  17.359  14.807   5.444  0.0619  0.1739 -0.1903
23741W        W39210   0.060   9.610   4.184  0.0201  0.0815 -0.1319
23742W        W39211   4.870   6.628   4.090  0.3063  0.1663  0.2555
23743W        W39212   3.409  12.089  10.259  0.3051 -0.0569  0.0696
23744W        W39213   5.387  17.141   2.175  0.0559 -0.2058 -0.1296
23745W        W39214  13.301   8.720   0.298 -0.2247  0.2454  0.2861
23746W        W39215   5.494  12.498  14.974 -0.2097 -0.0931  0.1464
23747W        W39216  16.848   4.705  12.887  0.3101 -0.1068 -0.3106
23748W        W39217  13.862  17.749   0.315 -0.0552  0.2406  0.0009
23749W        W39218  10.665   6.477  12.980  0.1241  0.0532  0.2938
23750W        W39219   7.043  10.524  14.116  0.2012 -0.3095  0.1423
23751W        W39220  13.626   6.998   5.902 -0.1835  0.0906  0.0223
23752W        W39221  12.115   3.989  14.985  0.0159  0.1137 -0.0992
23753W        W39222  17.114  14.456  11.232 -0.3307  0.0701 -0.0885
23754W        W39223   3.874   5.365  13.803 -0.2839  0.0850  0.3615
23755W        W39224  17.795   9.548  12.261  0.0585 -0.1883  0.0425
23756W        W39225   8.577  10.798  15.024 -0.3563 -0.0566 -0.0369
23757W        W39226   3.694  13.144  14.105  0.0410 -0.0015  0.0979
23758W        W39227  11.151   5.651   5.338  0.0665 -0.1548  0.0262
23759W        W39228  15.201   6.061  12.531  0.3212  0.3974 -0.0082
23760W        W39229  10.815  14.273  14.699  0.4573 -0.2441  0.0613
23761W        W39230   8.802   0.227   3.083 -0.0698  0.1638  0.2726
23762W        W39231   1.435  12.378   2.069 -0.1959 -0.1920 -0.2303
23763W        W39232  14.085  17.591   6.467  0.0236  0.1676 -0.3315
23764W        W39233  11.224  10.234   6.116 -0.0941 -0.0756 -0.0047
23765W        W39234  15.332   6.152  10.878  0.0604 -0.0447  0.0072
23766W        W39235  11.435  14.268   4.243 -0.3057  0.0602  0.2127
23767W        W39236   7.311   0.197   2.141 -0.0254 -0.1559  0.0292
23768W        W39237  11.117  11.967  14.701  0.0018 -0.0398  0.0451
23769W        W39238   3.390   5.498  11.498 -0.0982 -0.2286  0.1201
23770W        W39239   7.586  17.367  13.272  0.1832  0.1848 -0.1966
23771W        W39240   6.483  14.724  11.058 -0.0523 -0.0867 -0.1399
23772W        W39241  17.557  16.144  11.376 -0.0473  0.1295 -0.1873
23773W        W39242  14.156   9.489  13.537 -0.3603  0.2436  0.0279
23774W        W39243  14.558   8.889  11.720 -0.2776 -0.0081 -0.1362
23775W        W39244   2.143   2.525  13.631  0.2553 -0.2201 -0.1429
23776W        W39245   2.910   1.230  11.399 -0.2789  0.1196 -0.0812
23777W        W39246  13.626   5.004   5.917  0.0559 -0.1177 -0.0550
23778W        W39247   7.602  16.140   2.832  0.1314 -0.1314 -0.3107
23779W        W39248   7.390  15.668   2.992  0.1772  0.0436 -0.1444
23780W        W39249   0.138  16.093   0.667 -0.0517 -0.0827  0.3558
23781W        W39250   4.050   6.057  15.313  0.2290 -0.0890  0.2485
23782W        W39251   9.966   1.117  13.041  0.1187 -0.0385 -0.0696
23783W        W39252  10.173   4.262  15.443  0.0543  0.3157  0.2019
23784W        W39253   9.539   6.051  11.518 -0.0727 -0.0256 -0.0275
23785W        W39254  11.993  16.645   0.886 -0.0804  0.1882 -0.0308
23786W        W39255   6.000  17.348  14.875  0.0213 -0.0395  0.0440
23787W        W39256   0.366  17.572  13.608  0.0672  0.0589 -0.0488
23788W        W39257   3.799   5.513   4.267  0.2741  0.1468  0.3175
23789W        W39258  10.990   0.961   2.694  0.0331 -0.0329 -0.0569
23790W        W39259  10.586   2.243  12.633  0.0438 -0.3607 -0.2421
23791W        W39260   6.491  13.198   0.045 -0.4247 -0.0752 -0.1181
23792W        W39261  13.328  14.403  13.061  0.1117 -0.4435  0.0281
23793W        W39262   2.161  10.703   1.535 -0.0045 -0.2648  0.1224
23794W        W39263  16.969  16.877  15.531 -0.1084  0.1486  0.2947
23795W        W39264   8.590  11.758  12.721  0.2584 -0.0943 -0.1674
23796W        W39265  10.589   6.287   3.269  0.1340  0.1069 -0.4707
23797W        W39266  17.636  18.087  14.873 -0.3790 -0.0766 -0.0715
23798W        W39267  10.537  17.902   3.840  0.0327  0.1853  0.0859
23799W        W39268   1.939   1.323  14.286 -0.0407  0.1086  0.0465
23800W        W39269  18.463  15.454  13.252 -0.0924 -0.1023  0.0362
23801W        W39270   5.500  14.117   3.398 -0.1465  0.1929 -0.0741
23802W        W39271  18.381  10.842   3.427  0.2454  0.2984  0.1362
23803W        W39272  12.783  11.157  14.979  0.4244 -0.2743  0.1539
23804W        W39273  15.462   5.929  10.419 -0.0164 -0.0448  0.1128
23805W        W39274   7.857  17.014   4.916  0.4104 -0.3257 -0.0950
23806W        W39275  14.791  18.471  14.540 -0.0141  0.1018 -0.0153
23807W        W39276   5.866   7.364   4.252  0.0154  0.0651  0.1698
23808W        W39277  15.442  16.149   4.675 -0.1163  0.0742  0.2658
23809W        W39278   6.845  11.498   5.137  0.1544  0.0162  0.0163
23810W        W39279   2.843   1.998   5.114  0.2205 -0.0376  0.1351
23811W        W39280   1.625   6.429  12.596 -0.1116 -0.2837 -0.0364
23812W        W39281  10.628  14.222   0.007 -0.0245 -0.3729  0.0088
23813W        W39282   2.547  16.024   0.221  0.1776  0.0088 -0.0469
23814W        W39283   3.849  15.975  12.233 -0.0785 -0.1305  0.0581
23815W        W39284  17.617   5.637  10.820  0.3298  0.0041 -0.1601
23816W        W39285  18.318   2.017   3.470  0.1917  0.0760  0.3011
23817W        W39286  14.861   8.866   1.141 -0.2510 -0.0020  0.1534
23818W        W39287   8.178   4.473  11.188  0.0120  0.0742  0.1749
23819W        W39288  15.482  17.093  10.042 -0.1184 -0.1798  0.0580
23820W        W39289   7.587   2.859  15.290  0.0027  0.1913  0.2280
23821W        W39290   2.525   2.461   3.317  0.0221 -0.0518 -0.1029
23822W        W39291  13.512   6.262   1.872  0.0362  0.0259  0.0336
23823W        W39292   1.408   9.556   0.644  0.3131  0.2188 -0.0476
23824W        W39293   5.695  15.949   3.924 -0.0410 -0.1591 -0.1604
23825W        W39294   3.458   5.925   1.718 -0.0304  0.1809  0.4704
23826W        W39295   7.608  14.217   3.589  0.0537 -0.1371  0.1212
23827W        W39296   4.793   3.261   2.574  0.0303 -0.3627  0.0758
23828W        W39297  15.742   2.654   1.330 -0.3049 -0.0131  0.0500
23829W        W39298  11.839  11.261   4.302 -0.0500  0.0999 -0.2338
23830W        W39299  16.493   2.953   3.822 -0.0103 -0.1475 -0.0271
23831W        W39300   8.269   7.901  13.082 -0.0659 -0.0151  0.0941
23832W        W39301   3.863  10.467  11.004 -0.2224  0.3375 -0.1357
23833W        W39302  12.418   7.367  12.069  0.0448  0.1558 -0.0562
23834W        W39303   4.194  14.228  15.289 -0.1552 -0.3153 -0.0158
23835W        W39304   5.639  15.932  11.231 -0.2250  0.2532 -0.4776
23836W        W39305  16.499  11.480  15.412  0.0761 -0.1788 -0.3584
23837W        W39306   6.561   2.153   4.354  0.1263  0.1418  0.2547
23838W        W39307  14.086   2.907   2.476  0.1517  0.1757  0.1469
23839W        W39308   3.948  17.130  12.867 -0.2682 -0.0109  0.0884
23840W        W39309  12.030   1.341   1.073 -0.0889 -0.0271  0.2733
23841W        W39310  10.453  17.502   5.237  0.0102  0.0078  0.0376
23842W        W39311  16.369  14.541  15.211  0.0172 -0.1019 -0.0135
23843W        W39312   1.172  10.178   3.430  0.0055  0.1314 -0.3083
23844W        W39313  12.474   8.269   1.903 -0.2010  0.1091 -0.2798
23845W        W39314  15.542   2.391   1.798 -0.0370 -0.2204 -0.0558
23846W        W39315  10.026   5.829   3.226  0.0453  0.1865 -0.0263
23847W        W39316   3.027   3.245  13.887  0.0064 -0.1412 -0.0609
23848W        W39317   0.358  15.676  13.225 -0.0036  0.2392 -0.1307
23849W        W39318  18.605   6.251   0.646  0.0893 -0.0751  0.0825
23850W        W39319   2.001  12.058  14.090  0.0905 -0.0773  0.0519
23851W        W39320  12.852   4.317   1.210  0.0982 -0.1487  0.2047
23852W        W39321   1.261   5.199  15.189  0.2318  0.1355  0.0583
23853W        W39322  17.816  14.049   3.260 -0.1803  0.2671  0.0620
23854W        W39323  18.021   6.976  15.418  0.1125  0.1512  0.2142
23855W        W39324  10.518  12.377   0.403  0.1537  0.4732  0.0043
23856W        W39325   5.749   9.537  11.236 -0.3704  0.0460  0.2415
23857W        W39326   9.499   5.343  15.586 -0.1648 -0.0276 -0.1260
23858W        W39327  10.015   6.486   5.820 -0.0786 -0.0996 -0.1543
23859W        W39328   9.644  18.120  12.954 -0.0946  0.0393 -0.0338
23860W        W39329   4.599  18.543   1.030  0.1221  0.0181 -0.1185
23861W        W39330  17.876   8.220   9.380 -0.1210  0.2209 -0.2303
23862W        W39331   5.684  12.174   4.965 -0.0682 -0.1324  0.0016
23863W        W39332   0.772   0.605   3.457 -0.1349 -0.2073 -0.0466
23864W        W39333   2.873   8.137  13.705  0.0134  0.0813 -0.0318
23865W        W39334  16.611   2.918  15.129  0.1923 -0.1785  0.1120
23866W        W39335  13.136  14.465   5.005  0.2455  0.1605  0.0175
23867W        W39336   2.705  16.405  10.764  0.0044 -0.0541  0.2692
23868W        W39337  14.206  10.246   1.512  0.1586 -0.1789 -0.0487
23869W        W39338  16.569   4.465  10.723 -0.0672 -0.0026  0.1329
23870W        W39339  14.979   7.474   3.388  0.2194  0.1667  0.0176
23871W        W39340  15.212  18.212  12.618  0.3865  0.2784  0.3922
23872W        W39341   0.345   5.509   9.893 -0.1913  0.2156 -0.3003
23873W        W39342  10.788   9.238   2.322 -0.1785  0.4050 -0.1187
23874W        W39343  10.841  13.804  15.344 -0.1425 -0.3589 -0.1706
23875W        W39344   0.873   7.190   4.094  0.0310 -0.3267  0.1368
23876W        W39345   1.623  12.198   4.661  0.0645  0.0674  0.1163
23877W        W39346   0.157  12.118   3.508 -0.2272  0.0937 -0.5040
23878W        W39347   1.217   1.866  13.293  0.2837 -0.0355  0.0514
23879W        W39348  15.838   6.161  10.139  0.0514  0.0998 -0.1314
23880W        W39349   9.616   2.280   4.208  0.0377 -0.1050 -0.0404
23881W        W39350   1.573   7.414   4.441  0.0788 -0.0824 -0.0240
23882W        W39351   8.943   7.199  13.279 -0.1737 -0.3044 -0.0008
23883W        W39352   8.265   5.643   1.135 -0.1343 -0.1543 -0.1396
23884W        W39353   2.126  10.274   0.094  0.2229  0.2570  0.1138
23885W        W39354  15.828  11.152  10.489 -0.0234  0.0428 -0.4210
23886W        W39355  16.295   4.486  12.770 -0.0675  0.1744 -0.0120
23887W        W39356   7.260  11.197  15.720  0.3062 -0.2511  0.1075
23888W        W39357   4.943   8.138   0.921  0.0575 -0.0008 -0.2604
23889W        W39358   7.453   8.887   4.454 -0.0078  0.0592  0.0206
23890W        W39359   2.231   8.555   1.884 -0.0459 -0.3582  0.2164
23891W        W39360   3.572  13.264   1.909  0.0804 -0.0670 -0.0933
23892W        W39361  14.428   1.703  14.041  0.2854  0.2693  0.3054
23893W        W39362  14.888  14.700  13.840 -0.1191  0.1553 -0.3097
23894W        W39363   3.688  10.909  15.128  0.0985  0.0383 -0.2311
23895W        W39364  16.351  16.721  11.014  0.1090 -0.1086 -0.0412
23896W        W39365   7.291  12.262   3.174  0.0885 -0.2691 -0.0668
23897W        W39366   8.773  10.305  11.822  0.2548  0.0291 -0.0187
23898W        W39367  10.008  14.117   1.314  0.2980  0.0583  0.2939
23899W        W39368  15.494   2.510  12.700 -0.1313 -0.2148 -0.2555
23900W        W39369  17.045  10.302   0.914 -0.0391  0.1648  0.0611
23901W        W39370   6.458  15.655  12.820  0.2045 -0.2752 -0.1681
23902W        W39371   7.653   6.608  13.889 -0.1672 -0.0585  0.3137
23903W        W39372   6.891   7.304   3.233  0.1077  0.2082 -0.0514
23904W        W39373   0.406   0.192  12.238  0.0364  0.0783 -0.1345
23905W        W39374   4.716  16.747   0.262 -0.1902  0.2246  0.1109
23906W        W39375  13.116   0.628   5.117  0.0369 -0.0395  0.0045
23907W        W39376   3.289   6.930   5.129  0.1001  0.0192  0.1268
23908W        W39377   7.508  16.778   4.581  0.0617 -0.0200 -0.1296
23909W        W39378   0.702  10.768   0.226  0.0491  0.4197 -0.0870
23910W        W39379   1.955  12.941  14.531  0.0481 -0.0952  0.1358
23911W        W39380  12.562  14.233   2.925 -0.0815 -0.0977  0.1315
23912W        W39381  18.470  11.026  10.271 -0.3372 -0.1195  0.0395
23913W        W39382   8.257   2.929   1.986  0.0081 -0.4615  0.0339
23914W        W39383  10.051  14.721  14.902  0.2996  0.0744 -0.1623
23915W        W39384   3.402  12.457   4.620 -0.3435 -0.2090  0.1157
23916W        W39385  18.590   6.972  13.490  0.1974 -0.1381 -0.1141
23917W        W39386  10.325  11.612   2.332  0.0723  0.0329  0.1107
23918W        W39387   3.435   7.334   0.707 -0.0497 -0.1391 -0.2018
23919W        W39388   1.602   0.423  13.268  0.1356 -0.0219  0.0399
23920W        W39389   4.874  18.015   2.306 -0.2002 -0.1889  0.1521
23921W        W39390   0.825   4.471  11.005 -0.1200 -0.1326 -0.0977
23922W        W39391   5.774   9.683  15.209 -0.0245  0.1369  0.0222
23923W        W39392  11.498   9.430  10.251  0.1054  0.0057 -0.1070
23924W        W39393   8.957   2.768   3.586  0.0867  0.1219  0.0117
23925W        W39394  10.317   2.643   2.148 -0.4356  0.0190 -0.1339
23926W        W39395  12.671  11.938  13.737 -0.0524  0.1304  0.0736
23927W        W39396   4.432  11.875   0.474  0.2544  0.0963  0.1910
23928W        W39397  14.332  17.466  10.886  0.0803 -0.0271  0.0469
23929W        W39398   4.311   8.273   2.134 -0.0093  0.0289  0.3570
23930W        W39399  15.585  11.014   3.916 -0.2104 -0.2568  0.3119
23931W        W39400  13.301  11.651  11.957 -0.3313 -0.1292  0.2486
23932W        W39401   0.654   2.548  14.901 -0.0651 -0.2483 -0.2015
23933W        W39402   2.147  10.880  12.678  0.0517 -0.3004  0.1053
23934W        W39403   2.166  11.632  14.361 -0.1422 -0.3097  0.1371
23935W        W39404   1.012  10.427  10.065 -0.1051  0.2236  0.1002
23936W        W39405  17.825   8.116   1.295 -0.4291  0.1283 -0.2442
23937W        W39406   9.960  14.356   4.295 -0.0963 -0.0338  0.1009
23938W        W39407  12.302  14.376   5.180  0.0428 -0.2256 -0.3446
23939W        W39408   4.155   6.601   1.370 -0.1088 -0.0276  0.3547
23940W        W39409  17.440  13.805   1.073 -0.0085 -0.3232 -0.0471
23941W        W39410  14.971   9.105   4.361 -0.1719 -0.0807  0.1480
23942W        W39411   7.217   1.386  15.515 -0.3474 -0.2343 -0.0836
23943W        W39412   3.219  11.064  13.458  0.1548 -0.1955  0.0327
23944W        W39413   4.555  11.285  13.428  0.0484  0.2458  0.2948
23945W        W39414   2.530  18.200   4.381  0.3832  0.3502 -0.0233
23946W        W39415   2.195  12.926   4.069 -0.2418  0.1322  0.0611
23947W        W39416  11.343  16.036  12.768 -0.0552 -0.3786  0.2323
23948W        W39417   8.731  11.345  13.022 -0.0070  0.2082  0.0533
23949W        W39418   2.982   8.679   5.626  0.0471 -0.1939 -0.1441
23950W        W39419  13.248   2.477   3.427  0.0437  0.2446  0.1107
23951W        W39420  16.823   8.470  15.109 -0.1835 -0.0117  0.0207
23952W        W39421   5.960   8.952   1.391  0.1740  0.0658  0.0525
23953W        W39422   5.949  13.432  11.006 -0.0124  0.0016  0.2136
23954W        W39423   1.989   1.036   2.006  0.0602  0.1530 -0.0121
23955W        W39424   2.247  11.735   1.124  0.0179  0.0880 -0.3403
23956W        W39425  10.303   9.312  12.837  0.2487 -0.1373 -0.0871
23957W        W39426   7.434  13.100   2.842  0.1380 -0.1750 -0.0701
23958W        W39427   7.111  15.515   3.786  0.0192 -0.4149 -0.0567
23959W        W39428   8.994  10.692   3.389 -0.1805 -0.0193  0.1865
23960W        W39429   4.470  14.644  14.570  0.2282  0.1396 -0.0323
23961W        W39430  17.939   5.099   0.428 -0.2187 -0.2351 -0.1906
23962W        W39431   3.231   1.190  15.707  0.0774 -0.0021 -0.2076
23963W        W39432   3.579  11.732  12.404  0.0409 -0.0400  0.0237
23964W        W39433  14.316   2.274  13.314 -0.1248 -0.1567  0.2698
23965W        W39434  16.819  14.312   1.933 -0.1654 -0.2000 -0.0412
23966W        W39435   3.709  15.433   0.214  0.1032  0.1637 -0.1289
23967W        W39436  13.894  12.090   4.547  0.1570  0.1718 -0.2779
23968W        W39437   2.646  13.068   3.835  0.2307  0.0777 -0.1440
23969W        W39438   0.125  11.026  11.755  0.0307  0.0260 -0.0608
23970W        W39439   5.134  18.360   1.055  0.0775 -0.0992 -0.2353
23971W        W39440   1.120   7.435  14.258 -0.1849 -0.0165  0.1068
23972W        W39441   1.952   4.049   0.707 -0.2127 -0.2015  0.1152
23973W        W39442  13.872   2.270  10.495  0.0233 -0.1164 -0.2344
23974W        W39443   6.336   5.901   2.511 -0.3405  0.0434  0.1731
23975W        W39444   7.048  11.902   0.526  0.0166  0.1576  0.1521
23976W        W39445   8.984  15.663   9.643 -0.0073 -0.1160  0.2394
23977W        W39446   6.034  17.643  13.160  0.3287 -0.0732 -0.0326
23978W        W39447  10.060   2.577   3.489 -0.0692 -0.0541 -0.1885
23979W        W39448  13.625   8.885  14.862  0.0802 -0.1810  0.0942
23980W        W39449  17.949   7.427  12.447  0.1410  0.1224 -0.0194
23981W        W39450  11.754   3.979   4.063  0.3299  0.4994  0.3687
23982W        W39451  14.598   4.502   4.466 -0.0725 -0.1593  0.2297
23983W        W39452  14.728   2.418   5.379  0.0976  0.2009  0.3101
23984W        W39453   6.327   1.169   2.546  0.0229  0.2127  0.3255
23985W        W39454  12.088  18.566   2.740  0.2364  0.0629  0.0005
23986W        W39455   8.421   2.832  11.315  0.1572  0.0885  0.1915
23987W        W39456   4.536  16.146   6.184 -0.0969 -0.1703  0.3239
23988W        W39457   8.687  11.438   0.842  0.3690 -0.0585 -0.3241
23989W        W39458  15.816  14.606  12.864 -0.0109 -0.1703  0.2333
23990W        W39459   2.847   5.783  14.792 -0.4316 -0.0550 -0.0325
23991W        W39460   9.465   4.570   4.239  0.0198 -0.1083  0.0203
23992W        W39461   0.192   0.961   0.552 -0.0230  0.0841 -0.2136
23993W        W39462   3.762  16.917   4.879 -0.1918  0.1149 -0.0156
23994W        W39463   1.833  17.282  14.126  0.1955 -0.3682 -0.0451
23995W        W39464  12.356   7.168  13.426  0.1100 -0.2270 -0.3267
23996W        W39465  10.119  15.599  13.397  0.3108 -0.2763  0.3246
23997W        W39466   3.220   6.344  13.887 -0.1470 -0.2163  0.1706
23998W        W39467  10.059   9.137  10.978  0.1007  0.1777  0.1401
23999W        W39468   3.636  12.817  15.404  0.0059 -0.1472  0.1223
24000W        W39469  17.988  11.296  12.648  0.1769  0.2913 -0.0002
24001W        W39470   3.285  12.557   3.007  0.1520 -0.2610 -0.0720
24002W        W39471   9.634   0.446  11.772 -0.0216  0.0810 -0.0342
24003W        W39472  16.070  14.431   5.290  0.1186  0.1783  0.1421
24004W        W39473   9.850   2.712   4.029  0.0327  0.0013  0.1068
24005W        W39474   5.097   3.904  15.297 -0.0220  0.1510 -0.2237
24006W        W39475   4.716   7.494   0.060  0.1224 -0.0956 -0.1407
24007W        W39476  10.386  17.924  11.309  0.1030  0.1350  0.1943
24008W        W39477   7.282  12.992  14.756  0.2330  0.3071  0.2085
24009W        W39478   8.642   0.740   5.914  0.1130  0.4220  0.1474
24010W        W39479   2.834   4.161  12.899 -0.0258  0.0957 -0.0844
24011W        W39480  16.674  12.282  14.328  0.0883  0.0426  0.2955
24012W        W39481   9.475   6.409  11.973  0.1206 -0.3036 -0.0054
24013W        W39482   9.700   3.098  13.826  0.0351  0.0253 -0.1662
24014W        W39483   7.573   0.271  15.601  0.1522  0.0894 -0.3458
24015W        W39484   7.740  17.607  14.087  0.0271  0.1452 -0.0578
24016W        W39485  13.976   5.407  12.466  0.2386 -0.0011 -0.1094
24017W        W39486  11.244   6.199  14.890  0.1933  0.0428  0.5558
24018W        W39487   0.665  14.149   0.544 -0.2392  0.0668 -0.0491
24019W        W39488   8.710  16.278   3.768 -0.0759  0.1402  0.2000
24020W        W39489   6.881   4.858  14.032 -0.1157  0.2998 -0.0917
24021W        W39490  16.902  13.095   9.887  0.0316 -0.1832 -0.0302
24022W        W39491   5.682   8.553  12.092  0.3575  0.0085 -0.0056
24023W        W39492   6.898  17.818  10.748 -0.0229  0.0187  0.0080
24024W        W39493  11.611  13.503   0.503  0.2178  0.3243 -0.1787
24025W        W39494  16.734  12.814  12.733 -0.1504  0.2760 -0.0795
24026W        W39495   6.852   1.260   4.010  0.1544 -0.1769 -0.0561
24027W        W39496   2.322   8.429  11.335 -0.0607  0.0393 -0.0790
24028W        W39497   1.441   3.804   0.856 -0.1757 -0.0417 -0.0806
24029W        W39498   9.506  11.999   1.519 -0.2094  0.2094  0.1710
24030W        W39499   9.620   4.943   3.316 -0.0367 -0.1110  0.2976
24031W        W39500  17.731  11.694   3.930 -0.0674 -0.0364  0.2392
24032W        W39501  17.534   4.838  11.833 -0.0423 -0.2891  0.1646
24033W        W39502  14.038  16.505  13.148 -0.1534  0.0972  0.0256
24034W        W39503  12.326  12.927   0.248  0.2035 -0.1237  0.3144
24035W        W39504   8.380  17.316   4.912  0.1613 -0.0634  0.1573
24036W        W39505  14.821   7.548   1.860  0.0772 -0.2738  0.2734
24037W        W39506  16.901   3.356   0.780 -0.3038 -0.1967 -0.0704
24038W        W39507   6.284  12.487   4.065 -0.0205  0.1312  0.3119
24039W        W39508  15.610   5.286  13.127  0.2350 -0.0041 -0.3388
24040W        W39509  10.158   8.488   2.765 -0.1142  0.0279 -0.0539
24041W        W39510   8.309   2.174   6.311 -0.1684  0.2199 -0.0247
24042W        W39511  14.457  16.026  13.822 -0.0671 -0.4069  0.1959
24043W        W39512   4.312  17.427   2.923  0.1773  0.0498 -0.0668
24044W        W39513   8.877   1.666  14.563 -0.0805  0.1058 -0.0476
24045W        W39514   0.239   8.708   0.280  0.0293  0.0948  0.1132
24046W        W39515   2.014  17.937  13.848  0.2636  0.1005 -0.0023
24047W        W39516  12.155  12.582   2.121  0.1638 -0.3524  0.0569
24048W        W39517   0.296  15.018  13.532 -0.3626  0.0972 -0.1789
24049W        W39518   7.130  17.935   1.088 -0.0823 -0.2948 -0.3342
24050W        W39519   7.149  18.573   2.517  0.2329 -0.0107 -0.2734
24051W        W39520  12.859  17.494   4.879 -0.1229  0.1024  0.4455
24052W        W39521  11.235   3.109   2.279  0.1851  0.1375  0.1596
24053W        W39522  16.908   8.595  12.508 -0.0249 -0.1161 -0.0087
24054W        W39523  12.239   4.616  14.556  0.3000 -0.2270 -0.1502
24055W        W39524  13.495  11.260   2.528  0.1875  0.0179  0.4709
24056W        W39525  14.731  13.390  14.650  0.2955 -0.0928 -0.3653
24057W        W39526  13.972  17.383  12.774 -0.0381  0.0290  0.0813
24058W        W39527  14.965   6.721  12.386 -0.4692  0.0069 -0.2284
24059W        W39528   7.725   2.863  14.373  0.0006  0.2483 -0.2017
24060W        W39529   9.448   6.070  11.044 -0.0396  0.0114 -0.0017
24061W        W39530  13.892   1.113  12.942  0.0969  0.2250  0.3182
24062W        W39531  17.376  10.362  15.066  0.1365  0.2024  0.0997
24063W        W39532   6.704  14.808   1.398  0.1219 -0.0291  0.2443
24064W        W39533  12.436  17.023   1.074  0.0083 -0.0466 -0.1966
24065W        W39534   0.308  13.607  15.366  0.0102  0.1377 -0.4154
24066W        W39535   0.693   5.389   0.691  0.0125  0.0694  0.0519
24067W        W39536  16.016   4.877   4.710  0.0742  0.0215 -0.3056
24068W        W39537   3.542   0.241  15.663 -0.0314  0.1866 -0.2082
24069W        W39538   5.815   7.778  10.509  0.2591 -0.0799 -0.0294
24070W        W39539   4.177  11.113  15.055  0.0803  0.2527  0.0758
24071W        W39540   6.492   8.874   1.453 -0.2410 -0.0318 -0.2412
24072W        W39541   8.387  11.411  15.308  0.1161 -0.3067  0.0416
24073W        W39542  13.870   1.341   5.779  0.0170 -0.0007  0.2332
24074W        W39543  13.487  17.877   1.544  0.0859 -0.1080 -0.0553
24075W        W39544  17.416  15.662   4.248  0.1752 -0.0912  0.1820
24076W        W39545   9.670  13.413   1.382  0.1437  0.0297 -0.0871
24077W        W39546   8.988   5.216   3.817  0.1968 -0.0912 -0.1962
24078W        W39547   0.309  18.421  11.450  0.0813 -0.0732 -0.4232
24079W        W39548   9.954  16.874   4.833 -0.0113  0.0058 -0.1996
24080W        W39549  16.276  12.368  11.977 -0.0729  0.0205 -0.2854
24081W        W39550   3.869   0.843   1.758  0.0909  0.1430  0.2557
24082W        W39551   3.555   4.341   1.512  0.1570 -0.1009 -0.0565
24083W        W39552   2.562   4.615  12.681  0.1258  0.2933  0.1845
24084W        W39553  16.689   7.684  11.294 -0.0808  0.0294 -0.0819
24085W        W39554  17.144  15.138   4.979 -0.3275 -0.0984  0.0484
24086W        W39555  10.191   3.180  15.567  0.1195 -0.2683 -0.3380
24087W        W39556   5.790   6.872   4.131  0.0242  0.0880  0.1970
24088W        W39557   1.718   6.352  15.462  0.0731  0.1715 -0.0092
24089W        W39558  10.595   2.053   3.848 -0.0100  0.2153 -0.1226
24090W        W39559   8.575   1.350  14.300 -0.1405  0.1060  0.1985
24091W        W39560   1.506   3.912   3.930  0.0874  0.0319  0.1994
24092W        W39561   6.895  12.134  15.165 -0.2030 -0.0660  0.0172
24093W        W39562  10.652  10.945  14.564  0.0980  0.0390  0.0980
24094W        W39563   1.140  13.646   4.175 -0.1626 -0.0562 -0.0323
24095W        W39564  14.524   0.705   2.894  0.0992 -0.2426 -0.0978
24096W        W39565   1.424  13.792   5.467  0.1302 -0.1716 -0.1229
24097W        W39566   7.707   9.600  14.160  0.4764  0.1151  0.3318
24098W        W39567   7.454   5.053  14.819 -0.2179  0.2390  0.1350
24099W        W39568  14.746   6.545   3.677  0.0533  0.2387  0.1697
24100W        W39569   2.175   1.772  15.254  0.1749  0.0682  0.1171
24101W        W39570  11.686  15.039   2.840  0.4016 -0.1128  0.1431
24102W        W39571  16.162  13.536   0.928 -0.1244  0.1446  0.4247
24103W        W39572   4.748   7.384  13.579  0.0646  0.0790  0.1001
24104W        W39573   4.923  11.094  15.371 -0.1106 -0.1408 -0.1105
24105W        W39574   6.108  11.342  12.299 -0.1016 -0.2651  0.3097
24106W        W39575   6.999   5.225   4.923  0.1671  0.2154  0.0095
24107W        W39576  11.356  10.539   1.989  0.1514 -0.3268  0.0044
24108W        W39577  12.586   6.245  15.382  0.2674 -0.4314  0.2001
24109W        W39578  10.904  10.026   0.391 -0.0151 -0.1810  0.1495
24110W        W39579   6.305   3.346  13.115 -0.7540  0.0010  0.0032
24111W        W39580  11.010  13.183   2.233 -0.2689 -0.0287 -0.1440
24112W        W39581   4.090  14.488  11.824 -0.2791  0.1627 -0.0008
24113W        W39582   8.977   7.920   5.839 -0.1498 -0.2511  0.3656
24114W        W39583   1.367   0.410   5.283  0.1305  0.1901  0.2305
24115W        W39584  12.324   9.716   1.551  0.0174  0.1965  0.0512
24116W        W39585   1.400  17.690  13.776  0.1920 -0.2700 -0.1760
24117W        W39586   3.313  15.650   0.552 -0.2136  0.0325 -0.1588
24118W        W39587   4.924   9.507   4.625 -0.1703 -0.2558  0.1531
24119W        W39588   1.425  17.473   4.825 -0.1073 -0.0983  0.2117
24120W        W39589  15.225  17.816   1.708  0.0528 -0.0895  0.1301
24121W        W39590   5.089  12.271  15.243 -0.0507 -0.2139  0.2028
24122W        W39591  10.884   1.325  15.597  0.0609 -0.3145  0.0308
24123W        W39592   6.952  16.006   4.632  0.2298 -0.1482 -0.0849
24124W        W39593  12.122  13.789  11.308  0.0322 -0.1540 -0.2212
24125W        W39594  17.347  18.387  12.371 -0.1777 -0.2285  0.2003
24126W        W39595  16.004  17.075  12.407 -0.0731  0.4202 -0.1936
24127W        W39596  14.996  11.467   0.303 -0.1537  0.0989 -0.3101
24128W        W39597  17.770   5.926   9.594  0.1179 -0.1078  0.0251
24129W        W39598  15.009  14.547  14.748 -0.1057 -0.1090  0.0510
24130W        W39599   9.619   4.835  14.077 -0.0794 -0.1766  0.0117
24131W        W39600  17.215   4.872   3.473 -0.0166 -0.2970 -0.1659
24132W        W39601   9.997  16.315   5.669 -0.2597 -0.1353  0.0035
24133W        W39602   6.763   7.217  10.247 -0.0349  0.0037 -0.3462
24134W        W39603   4.596   4.079  13.573  0.3193 -0.2136 -0.3641
24135W        W39604  17.311  17.271  11.479 -0.0873 -0.1468 -0.1824
24136W        W39605   1.376   1.627   1.776 -0.0988 -0.1995 -0.1127
24137W        W39606  13.740  12.088  13.293 -0.2707 -0.2601 -0.1645
24138W        W39607  11.623   2.699  14.883  0.1823 -0.2732  0.2719
24139W        W39608  18.392   5.788  10.563  0.2372  0.1211  0.0160
24140W        W39609   0.500   8.422  11.523  0.0112 -0.1726  0.0492
24141W        W39610  17.288   9.820   2.543 -0.0751  0.3076 -0.2309
24142W        W39611   0.419  11.047   1.690  0.4514  0.1424 -0.1893
24143W        W39612  11.697  12.717   4.808  0.0598 -0.0438 -0.2026
24144W        W39613   0.475   9.602   1.361  0.0820  0.3930 -0.2700
24145W        W39614   0.230   5.700  10.365  0.0177 -0.0421 -0.3606
24146W        W39615  15.169   6.314   3.835 -0.0357  0.0588  0.1350
24147W        W39616  16.772   6.192   5.216 -0.1930  0.0759 -0.2669
24148W        W39617   0.439   5.749  14.669  0.1818  0.1281  0.1353
24149W        W39618  11.726  18.580  10.281  0.1660 -0.2864  0.0374
24150W        W39619  18.361   8.379   4.697 -0.4066  0.1027 -0.0728
24151W        W39620  11.821   9.300  14.782 -0.2117 -0.0955  0.1797
24152W        W39621  12.098  10.638  15.637 -0.0721  0.2234  0.0898
24153W        W39622   1.904   3.097   4.349  0.1233  0.0602  0.2939
24154W        W39623   0.558   8.742  11.978  0.0536  0.4324 -0.0035
24155W        W39624   8.666  11.548  12.224 -0.1494 -0.2181  0.1083
24156W        W39625  10.738  14.948  11.889  0.0261 -0.1423  0.0731
24157W        W39626  16.710   1.396  10.678  0.1046 -0.0880  0.1089
24158W        W39627  12.212  14.818   4.825  0.1795 -0.1163 -0.0048
24159W        W39628   5.353  11.872  15.062 -0.0462  0.4237 -0.1572
24160W        W39629   3.690   4.810  14.358  0.0141  0.0425  0.0419
24161W        W39630  10.366   9.431  13.764  0.1378 -0.0903 -0.1876
24162W        W39631   7.253  15.209   3.002 -0.1699  0.0601 -0.1638
24163W        W39632   0.436  13.103  15.107  0.2361 -0.0166 -0.0063
24164W        W39633  18.195  11.981   3.971  0.2618  0.1407 -0.1720
24165W        W39634  18.248  12.336   0.409 -0.0475  0.1874 -0.2022
24166W        W39635  15.265  17.725  14.662  0.0659 -0.1024  0.1546
24167W        W39636  11.943   5.411  13.173 -0.2797  0.0077 -0.2205
24168W        W39637   9.283   3.340  13.031 -0.2007 -0.0936  0.1375
24169W        W39638  13.703   8.773   2.829  0.1869 -0.2847  0.2836
24170W        W39639  17.298   4.280  15.624 -0.0615  0.2363 -0.2831
24171W        W39640   4.924   1.544  13.981  0.2387  0.1990 -0.0398
24172W        W39641  12.046  13.897  13.841 -0.0418 -0.1054 -0.1199
24173W        W39642  17.037   0.270  14.998 -0.1162 -0.0436  0.0700
24174W        W39643   9.772   3.617   2.653  0.0323  0.2140  0.1327
24175W        W39644   0.996  16.041  12.310  0.0143 -0.0745  0.1255
24176W        W39645   6.119  14.179  11.684  0.1001 -0.1486 -0.0028
24177W        W39646  13.160   9.264  12.879 -0.3599  0.1605  0.0044
24178W        W39647  16.588   3.134  10.778  0.0428 -0.1378  0.2668
24179W        W39648   9.706   7.322   2.332  0.0970  0.2546 -0.2162
24180W        W39649  18.603  17.792  13.866  0.0848 -0.0799 -0.1371
24181W        W39650   5.996  15.320   1.834  0.0814  0.0967  0.0296
24182W        W39651   9.603   4.233  11.482  0.3077 -0.0174  0.2176
24183W        W39652   3.964  18.451   2.092 -0.1784  0.0535  0.0018
24184W        W39653  11.691  10.304   4.746  0.1951  0.5073  0.0913
24185W        W39654   5.837  13.374  14.260 -0.1583 -0.3097 -0.1873
24186W        W39655   0.786   5.382  14.427 -0.0285  0.0226  0.1983
24187W        W39656  13.320  14.285   3.523  0.1498  0.0480 -0.0107
24188W        W39657   0.614   8.620   1.071 -0.2068 -0.2716  0.0180
24189W        W39658   3.640  14.322   2.195  0.1666 -0.2518 -0.1120
24190W        W39659   9.940  11.691  10.798  0.0953 -0.4036  0.3601
24191W        W39660   5.858   7.478   3.325 -0.2825 -0.1202  0.2328
24192W        W39661   5.817   1.835   2.136 -0.0005  0.1534  0.0106
24193W        W39662   5.506   1.308  13.609 -0.1511 -0.4001 -0.1498
24194W        W39663  12.110   2.396   3.687 -0.2544 -0.0107 -0.0695
24195W        W39664   5.541  15.582  13.736  0.1486  0.0909  0.0441
24196W        W39665   6.396  10.218  14.753 -0.0298 -0.4231  0.0935
24197W        W39666  17.495   3.816   1.524  0.1636 -0.0494  0.1398
24198W        W39667  16.846   1.597  14.821  0.2786  0.1513 -0.0855
24199W        W39668  17.102  17.254  12.812  0.2701 -0.0274  0.1323
24200W        W39669   4.873   1.871  11.145  0.0257  0.0463  0.1000
24201W        W39670   6.147  10.685  13.769  0.0055 -0.2789  0.1095
24202W        W39671  13.765   7.463   1.110  0.1812 -0.1323 -0.1072
24203W        W39672  16.939  11.172   3.701 -0.0989 -0.1421  0.0403
24204W        W39673   0.912  11.259   2.502  0.1042 -0.1120  0.3057
24205W        W39674  15.923   7.387  11.590  0.0006 -0.3510 -0.1124
24206W        W39675   1.338  14.357  10.482  0.4452 -0.0865 -0.2821
24207W        W39676   4.010   0.710  15.011  0.1200 -0.4919 -0.1814
24208W        W39677   9.741   9.945   0.725  0.0901  0.0203 -0.0472
24209W        W39678   0.194   3.335  14.394  0.0714 -0.0100 -0.1729
24210W        W39679  16.890   6.680  13.198  0.0407 -0.1597 -0.0046
24211W        W39680   9.943   1.426   4.073  0.5946  0.2721 -0.0664
24212W        W39681   1.911   2.960   0.009  0.3736  0.2519  0.1585
24213W        W39682   9.284   2.645   4.003  0.4112  0.2523 -0.3774
24214W        W39683  16.088   2.991   9.881  0.0612  0.4506 -0.0431
24215W        W39684   8.097   3.169  12.401 -0.2733  0.2800  0.0745
24216W        W39685   3.612   3.190   0.731 -0.0976 -0.0899 -0.1842
24217W        W39686  10.614  13.514   1.018 -0.3680 -0.1163  0.0516
24218W        W39687   1.230   6.647  12.345  0.2504  0.0522 -0.0149
24219W        W39688   1.912   2.569  12.946  0.0207  0.0680 -0.2149
24220W        W39689   2.067   9.367   2.388  0.1214 -0.7006 -0.1575
24221W        W39690   5.054  18.289  15.526  0.1475  0.1771 -0.0920
24222W        W39691   4.144  14.832  12.273  0.3007 -0.1556 -0.2847
24223W        W39692   2.204  10.866   4.251 -0.1024  0.0117 -0.0478
24224W        W39693   4.694  14.432  13.698  0.0685 -0.0464 -0.1837
24225W        W39694  16.151  18.365   4.286 -0.1738  0.1624 -0.1137
24226W        W39695  15.102  14.731   3.300  0.3296  0.1003  0.0337
24227W        W39696   6.756  12.522  12.667  0.5749  0.1343  0.0463
24228W        W39697   1.831  17.931  15.177  0.1070 -0.3326 -0.2832
24229W        W39698  14.603   5.444   2.910 -0.3504  0.0696  0.2738
24230W        W39699   4.833   0.866  12.771  0.0484 -0.0033  0.0205
24231W        W39700   9.172  17.934  12.842  0.0904  0.1156 -0.0946
24232W        W39701  18.483   3.101  14.745  0.1168  0.0752  0.0663
24233W        W39702   3.114   7.670   4.500 -0.1392  0.1028 -0.1032
24234W        W39703  10.516   1.629   4.112 -0.3746 -0.0673 -0.0794
24235W        W39704   1.498   0.555  13.874 -0.2829 -0.3159 -0.0571
24236W        W39705  16.275  17.932  13.697  0.2601 -0.1907  0.2911
24237W        W39706   4.320   1.059  11.027  0.2178 -0.1152  0.0626
24238W        W39707  16.705   2.044  15.558 -0.0407  0.2457 -0.0286
24239W        W39708  17.755   5.664   4.409  0.3949  0.2964 -0.2124
24240W        W39709  15.095  17.614   0.696 -0.1133  0.1689  0.0663
24241W        W39710  13.372  17.813  11.856 -0.1254 -0.2343 -0.0472
24242W        W39711  16.722  13.334   2.640 -0.1987 -0.3784 -0.1863
24243W        W39712  15.778   1.486   3.729 -0.0797  0.0300  0.1523
24244W        W39713   8.088  15.645  13.430 -0.0313  0.0861  0.2382
24245W        W39714   6.900   4.402  10.963 -0.1622 -0.1214 -0.0023
24246W        W39715   2.683   0.807   5.543 -0.0049  0.0667  0.0620
24247W        W39716  18.251  12.638   4.176  0.0322 -0.1576  0.2430
24248W        W39717  16.034   9.282  10.727 -0.2131  0.2194  0.2172
24249W        W39718   1.847  10.318  15.399  0.0623  0.3039 -0.0882
24250W        W39719  10.764   9.633   5.401  0.1175 -0.2602  0.0668
24251W        W39720  15.014   5.678  15.449  0.2766  0.0544 -0.1536
24252W        W39721  17.425   7.314   0.410 -0.2119 -0.1559  0.4862
24253W        W39722   1.948   5.812   1.535 -0.3909  0.1334 -0.0401
24254W        W39723   8.326   6.009   0.753  0.0609 -0.0643 -0.0801
24255W        W39724   6.815   2.026   2.948  0.2952 -0.0051  0.2243
24256W        W39725  12.102  14.227  15.560  0.2107 -0.1707 -0.0579
24257W        W39726   7.286  17.041  14.530 -0.0137  0.0371  0.1536
24258W        W39727  11.912   8.260  10.889 -0.3781  0.1943 -0.0432
24259W        W39728   0.212  17.265   2.121  0.2980  0.1634  0.0537
24260W        W39729   3.887   4.018  11.350  0.0218 -0.0329 -0.1172
24261W        W39730   7.943   9.228  11.718 -0.0323  0.1414  0.0079
24262W        W39731  18.159   6.700  11.755  0.1432  0.0257  0.1959
24263W        W39732   3.261  12.826  12.201  0.2275 -0.2740  0.1599
24264W        W39733  12.793   7.715   2.975  0.1530  0.2589 -0.2336
24265W        W39734   6.485  10.636   0.719 -0.2369  0.2040  0.0605
24266W        W39735   3.269   7.619   1.601  0.2521  0.3662 -0.1728
24267W        W39736  17.392  11.124   3.048  0.2215  0.1356 -0.2142
24268W        W39737   6.853  17.264   4.802  0.2659 -0.1174  0.2604
24269W        W39738  17.255   7.456  13.691 -0.0920 -0.4954  0.1045
24270W        W39739  10.205   6.582  15.234  0.0980 -0.0287  0.2999
24271W        W39740  17.790  12.615  12.337 -0.0520  0.1557 -0.0253
24272W        W39741   4.203   7.290   1.817  0.0650  0.2188  0.2775
24273W        W39742   5.177   7.158   3.355 -0.0060  0.0271  0.4344
24274W        W39743  12.414   4.604   3.526  0.0684 -0.1384 -0.1432
24275W        W39744  17.708   3.398  11.976 -0.0189 -0.1141  0.0370
24276W        W39745   4.065   5.799  12.437 -0.1744 -0.0102 -0.1204
24277W        W39746  14.842  13.145   1.624  0.1542 -0.3483  0.0187
24278W        W39747   2.429  11.272  13.963  0.3996 -0.1389 -0.0600
24279W        W39748  16.562   7.155  13.251  0.0211  0.0866 -0.0372
24280W        W39749   6.146  10.272   2.677  0.0065  0.0942  0.1219
24281W        W39750   2.827  12.157   4.370 -0.2502  0.2683  0.1467
24282W        W39751  17.494  16.664  13.628 -0.1243 -0.2338  0.0885
24283W        W39752   4.150  12.213   2.862  0.0840  0.2441 -0.2431
24284W        W39753  14.580  17.022   1.712  0.2117  0.1253  0.1169
24285W        W39754   0.786   9.999   3.899 -0.0684  0.2222 -0.1852
24286W        W39755   0.007   9.953   2.880  0.0557  0.0734 -0.0648
24287W        W39756  11.203   3.718   1.594  0.3429 -0.2307  0.0421
24288W        W39757   2.651   6.273   4.355  0.2582 -0.0449  0.2742
24289W        W39758  15.630   2.656   2.283 -0.2386  0.1025  0.2208
24290W        W39759   8.359  10.071  13.607  0.0635  0.2784 -0.0574
24291W        W39760   2.368  12.447   1.992 -0.1992 -0.2107 -0.0471
24292W        W39761   5.545   5.234   4.464  0.2472  0.5167  0.0845
24293W        W39762  12.828   5.099  13.685  0.0760  0.0481 -0.0163
24294W        W39763   7.752  10.617   3.780 -0.2476 -0.2404  0.0223
24295W        W39764   7.592   3.978  12.818 -0.0027  0.2199 -0.0587
24296W        W39765   8.930   8.522   3.604 -0.2823 -0.0320  0.1396
24297W        W39766  15.498  14.919  12.698 -0.0195 -0.1318  0.1017
24298W        W39767   2.716  16.525   2.152  0.1971  0.0033  0.2041
24299W        W39768   4.670   2.553   1.631  0.0584  0.0719 -0.2095
24300W        W39769   2.282   6.515  14.365 -0.0874  0.2144  0.1825
24301W        W39770   4.295   4.278  11.293  0.1164 -0.2095 -0.1976
24302W        W39771   3.020   3.323   3.482 -0.0693 -0.1856 -0.0571
24303W        W39772  13.538   9.634   1.859 -0.5081  0.0048 -0.0024
24304W        W39773  10.367  17.357   3.745  0.0283  0.1928 -0.1498
24305W        W39774   1.726  13.546  15.311  0.0951 -0.1583  0.2300
24306W        W39775  12.393  18.315  15.088 -0.2041  0.2320  0.1713
24307W        W39776   8.748   3.176   5.516 -0.2282 -0.3998 -0.1621
24308W        W39777  13.484   2.684   0.840  0.0835 -0.0300  0.0269
24309W        W39778   5.535   1.255  14.726  0.0566  0.3692  0.2675
24310W        W39779   6.365  17.986  14.356  0.4843 -0.0483  0.1301
24311W        W39780   3.002   1.463  11.983  0.0364 -0.0751 -0.0113
24312W        W39781  17.248  13.300   2.705 -0.0404 -0.1420  0.1492
24313W        W39782  14.074  10.184  13.429 -0.0066 -0.1821  0.4121
24314W        W39783  15.669   8.813  14.029 -0.1231 -0.1126 -0.2501
24315W        W39784  15.872  10.221   4.225  0.0832  0.1719 -0.1403
24316W        W39785   5.765   3.073   0.272  0.1466 -0.2408 -0.0739
24317W        W39786   0.532  11.653  12.985  0.1234  0.0521 -0.1375
24318W        W39787   2.369   1.822  14.625 -0.4598  0.0787  0.0937
24319W        W39788  14.764  12.151   2.034  0.2276  0.0301 -0.0331
24320W        W39789   2.555  13.709  15.560  0.0657  0.0051 -0.0123
24321W        W39790  18.329   0.072   4.406  0.3492 -0.0789 -0.0799
24322W        W39791   3.024  15.257   0.609 -0.2196 -0.2012 -0.0468
24323W        W39792   5.719   2.305   0.660  0.4136  0.4036 -0.0215
24324W        W39793  14.268  13.405  11.967  0.3069  0.2080  0.2274
24325W        W39794   6.171  13.664  12.366  0.2458 -0.0228  0.0224
24326W        W39795   2.859   3.171   4.424  0.0106 -0.1056  0.0875
24327W        W39796   6.833   6.289   3.110 -0.2692  0.0876  0.1319
24328W        W39797   7.493   7.654   4.676  0.0900 -0.0434 -0.2154
24329W        W39798   3.968   7.444  10.314  0.0886 -0.0794 -0.3067
24330W        W39799   7.110  15.157   0.025 -0.1461  0.1213  0.0592
24331W        W39800  12.379  14.923   5.280 -0.0322  0.2445  0.0590
24332W        W39801   5.329  13.653   3.581 -0.0100  0.0335 -0.1008
24333W        W39802  15.889  13.060   4.466  0.0728 -0.0273  0.1390
24334W        W39803  13.844  10.590   1.334  0.0814  0.1926 -0.0341
24335W        W39804  18.229  10.100  14.752 -0.0964 -0.1051  0.1107
24336W        W39805   4.104   3.556  14.507 -0.0832 -0.1249 -0.3284
24337W        W39806  13.875   6.044   5.730 -0.2842 -0.1454  0.1399
24338W        W39807   4.524   9.782  10.635  0.1933 -0.2371 -0.0433
24339W        W39808  16.993   1.587  14.276  0.5604  0.0708  0.0111
24340W        W39809   6.390   5.183  11.278 -0.4037 -0.2739 -0.2915
24341W        W39810   9.801  11.532  14.739  0.0714  0.1116 -0.1778
24342W        W39811   7.918   7.094  15.269  0.3278  0.2960 -0.1954
24343W        W39812  17.796  11.005  13.860 -0.1901  0.1857 -0.0819
24344W        W39813   6.045  11.568  11.754  0.0701  0.1507  0.6860
24345W        W39814   7.342   7.938   2.062  0.2238 -0.2928  0.2736
24346W        W39815   5.511   7.274  13.187 -0.0345  0.0977  0.4035
24347W        W39816   0.014   4.064  12.701  0.0659  0.0529  0.2877
24348W        W39817   9.489   8.794   0.429  0.0914  0.6272 -0.1219
24349W        W39818  10.929  17.002  13.795 -0.1917  0.3296 -0.2484
24350W        W39819  12.896   0.921   4.708  0.1601 -0.2569 -0.3424
24351W        W39820   9.414   7.936   1.760 -0.2798  0.0148  0.0902
24352W        W39821   1.688   8.184  13.769  0.0151  0.0353 -0.2681
24353W        W39822  15.157   1.393  11.287 -0.0584  0.1441 -0.0598
24354W        W39823   2.831   0.354   5.122  0.0319 -0.0822  0.2135
24355W        W39824  11.610   4.559  13.420  0.0801 -0.0803 -0.0314
24356W        W39825  12.781  14.264  11.076  0.0023  0.0151 -0.3102
24357W        W39826   2.324  18.182   1.430 -0.1983 -0.0430  0.1847
24358W        W39827   2.385   7.612  14.074 -0.1522  0.0395 -0.0031
24359W        W39828  17.630  11.522  15.003  0.1243 -0.2245  0.1428
24360W        W39829   0.151  17.477   1.001  0.1779  0.0225  0.0204
24361W        W39830  10.297   2.568  12.419 -0.2228 -0.0433 -0.4863
24362W        W39831   0.631   8.048  11.838  0.4278  0.2507  0.3321
24363W        W39832   8.409  12.744  10.770 -0.1098 -0.2402 -0.3109
24364W        W39833   4.359  11.869  11.957 -0.3236  0.2752 -0.0284
24365W        W39834   2.643   5.412   2.028 -0.0796  0.1362  0.0944
24366W        W39835  12.672   1.551  13.172  0.3508 -0.0691 -0.0815
24367W        W39836  17.229   8.794   1.039 -0.0861 -0.1873  0.1935
24368W        W39837  15.373  12.303  11.715 -0.0486  0.0568 -0.2324
24369W        W39838  17.355  13.915  15.642  0.1080  0.1580 -0.0655
24370W        W39839   5.941  15.608  11.528  0.0500 -0.1726  0.0598
24371W        W39840  13.046   4.585   2.083 -0.1201  0.2425 -0.2224
24372W        W39841  18.286   1.538   4.151 -0.1003  0.0344 -0.1731
24373W        W39842   7.590  13.516  15.185 -0.0694  0.4261  0.2401
24374W        W39843  11.578   6.853   2.419  0.1730 -0.0206  0.0241
24375W        W39844  16.806   3.469   2.576 -0.2830  0.0860  0.4076
24376W        W39845   7.933  10.299   1.067  0.1189 -0.2699  0.1965
24377W        W39846   2.322   4.968  14.988 -0.1796  0.1144 -0.1745
24378W        W39847   1.878  14.817   5.211  0.2955  0.3003  0.0513
24379W        W39848   2.405   0.796  14.886 -0.3344 -0.4687 -0.2674
24380W        W39849  11.415  14.825   4.309 -0.3536  0.0568 -0.1391
24381W        W39850   4.695  11.190  13.902 -0.3246 -0.2478 -0.5456
24382W        W39851   6.973   7.076  13.447  0.2685 -0.0065  0.0233
24383W        W39852   8.665   1.724   4.545  0.1687  0.0708 -0.1534
24384W        W39853   1.989   6.683   1.996 -0.1634 -0.1238  0.2497
24385W        W39854  15.638   0.579  13.793  0.1238 -0.0730 -0.2917
24386W        W39855   9.234  13.412  14.651 -0.0386  0.0953 -0.0698
24387W        W39856   4.151   0.572   0.734  0.2385 -0.2337  0.2162
24388W        W39857   2.216   3.309   3.955  0.3699  0.3447  0.0710
24389W        W39858  16.120  18.075   5.211  0.0776 -0.0443 -0.0549
24390W        W39859  15.594   9.754   0.551  0.0776  0.1324  0.2832
24391W        W39860   8.413  17.985  14.835  0.2453  0.0673 -0.1356
24392W        W39861  15.034   6.688  13.287 -0.2721 -0.0054  0.1206
24393W        W39862   7.682  13.563  12.439 -0.2916  0.1497 -0.0298
24394W        W39863   4.221  16.914  10.579 -0.3463 -0.1151  0.1356
24395W        W39864   2.193   6.414   2.946  0.1631  0.0859 -0.0723
24396W        W39865  13.941   6.913   4.533 -0.0888  0.3763  0.2765
24397W        W39866  12.039  16.043   1.488  0.2808  0.1844  0.1983
24398W        W39867   1.506  15.901   1.869 -0.3801 -0.4052  0.4506
24399W        W39868  14.235   6.639   3.557  0.1390  0.1385 -0.0200
24400W        W39869  16.251  17.969  14.527  0.2299  0.1105  0.0709
24401W        W39870  17.094  14.861  11.486  0.1196 -0.0767 -0.2184
24402W        W39871   4.910   3.744   2.361  0.0254  0.0439  0.0359
24403W        W39872   9.888   0.308   1.478  0.1121 -0.0064  0.2838
24404W        W39873   0.746  11.678   2.277  0.2760 -0.1648  0.3196
24405W        W39874  10.105   4.023  12.216  0.1687  0.1878 -0.1454
24406W        W39875  16.852   1.792   0.623  0.1501  0.1247  0.2062
24407W        W39876   5.481   6.364  13.026  0.0013  0.2925 -0.1277
24408W        W39877   8.075  13.442  15.157  0.1199 -0.0661  0.2968
24409W        W39878  17.840  10.656   4.013 -0.1540 -0.0245 -0.0343
24410W        W39879   4.302  13.954   0.788 -0.0352 -0.1042  0.0835
24411W        W39880  14.201   1.915  15.086 -0.1349  0.0801 -0.1320
24412W        W39881   3.112  13.503   0.991  0.1155  0.1875 -0.0013
24413W        W39882  14.072  10.520  11.449 -0.1563 -0.1902 -0.1251
24414W        W39883  11.521   5.683  14.962  0.4631  0.2226  0.0645
24415W        W39884   8.374   2.217   5.433  0.1356 -0.0043 -0.1815
24416W        W39885   6.162   7.876   0.512  0.0352  0.1331 -0.0479
24417W        W39886   9.236   3.211  13.972  0.1585  0.1739 -0.3935
24418W        W39887  10.832  11.044  12.368 -0.0648 -0.0354  0.2788
24419W        W39888   6.823  15.049  10.848 -0.4815  0.1304  0.0616
24420W        W39889   4.590   2.089  11.690  0.0615  0.0752  0.0717
24421W        W39890   2.194   1.435   1.314  0.0163 -0.2739 -0.0287
24422W        W39891   5.915  16.706  10.668  0.0691 -0.2060  0.3351
24423W        W39892  18.556  17.828   4.194 -0.1718  0.0678  0.2214
24424W        W39893   3.598  16.441  13.852 -0.1267 -0.1421 -0.2465
24425W        W39894  17.156  17.581   0.452 -0.3029 -0.0757  0.0943
24426W        W39895   5.029  18.314   4.855 -0.1023 -0.2420 -0.1666
24427W        W39896  17.180   2.132  14.577  0.0276  0.0342 -0.0155
24428W        W39897  11.788   2.261   1.344  0.0144 -0.0877  0.0217
24429W        W39898   9.310  10.552  13.937 -0.0256  0.2082  0.0303
24430W        W39899   5.109   2.262  13.347  0.1571  0.0545  0.0905
24431W        W39900   5.424  13.453  12.452  0.1404  0.1835  0.0227
24432W        W39901  18.520  16.747   1.111 -0.0072  0.0473  0.2669
24433W        W39902  18.342   4.790  11.858  0.1152  0.0109  0.0243
24434W        W39903   7.178   9.017   4.077  0.0378 -0.0041  0.0281
24435W        W39904  17.401  11.517   1.986 -0.0972 -0.4681  0.1705
24436W        W39905  14.642  17.302  11.787 -0.2162 -0.2061 -0.3097
24437W        W39906   4.301   3.754  15.728  0.3011  0.0690 -0.0636
24438W        W39907   8.544   6.982  14.811  0.2833  0.0964 -0.0249
24439W        W39908   8.089  13.885  14.902  0.2798 -0.3003  0.0510
24440W        W39909   5.573   8.138   4.764  0.2625  0.0448  0.2353
24441W        W39910   3.177   0.698   5.566  0.0635  0.0471 -0.1330
24442W        W39911   2.230  13.918   1.929 -0.2467  0.1195 -0.0712
24443W        W39912   3.178   3.700   1.642  0.1367 -0.0677 -0.2204
24444W        W39913   8.123  11.183   3.400  0.1378  0.3197 -0.0334
24445W        W39914   0.164  18.568   3.477 -0.1307 -0.2504  0.2944
24446W        W39915   5.710   0.773  11.226 -0.0315  0.1237  0.0462
24447W        W39916  13.482   6.046   5.459  0.3763  0.0200 -0.1593
24448W        W39917  12.455  15.721   5.330 -0.1745 -0.0545 -0.2507
24449W        W39918  11.650   9.022  12.452  0.2021  0.1066 -0.1712
24450W        W39919  15.565   2.676  14.296 -0.3625  0.2572 -0.0861
24451W        W39920   0.457   2.115  15.702  0.2306  0.1292 -0.1654
24452W        W39921  18.216  16.635  11.946  0.0286 -0.0778  0.1548
24453W        W39922   8.401   6.804   5.558 -0.0485  0.0606  0.1694
24454W        W39923  12.556   9.097  14.289  0.0229 -0.1053  0.1040
24455W        W39924   9.425  16.934  14.600  0.5338 -0.1298  0.0674
24456W        W39925  14.348   7.750   2.947 -0.2331 -0.2159  0.1760
24457W        W39926   9.356   4.691   2.384 -0.1785 -0.1563  0.0382
24458W        W39927  12.807  15.544   1.564  0.2357  0.1180 -0.4313
24459W        W39928   2.961   9.346  12.883  0.3059  0.0071  0.0843
24460W        W39929  10.112  14.615   3.111  0.0145  0.2612  0.0064
24461W        W39930   0.091   7.701  10.641 -0.0086  0.2657  0.1327
24462W        W39931  12.237  16.583   2.828  0.1260 -0.0298  0.0787
24463W        W39932  14.325   2.128   2.031 -0.2747 -0.2263 -0.0284
24464W        W39933   3.904   8.433  12.706 -0.0951 -0.2095 -0.1696
24465W        W39934  17.923   1.081  12.427  0.1164 -0.0816  0.2888
24466W        W39935  13.410   9.664  14.137 -0.1908 -0.0800 -0.0623
24467W        W39936   7.175   9.494  15.601  0.0395 -0.0461 -0.0539
24468W        W39937   6.406   5.590  12.592  0.0585 -0.1664  0.1066
24469W        W39938   0.044  12.412   3.099  0.0974  0.0454 -0.3175
24470W        W39939  18.297   2.716   5.205  0.3722 -0.1851  0.1544
24471W        W39940  12.062  15.423   0.248 -0.0207  0.2113 -0.0467
24472W        W39941  10.961  14.216  12.413  0.2748 -0.2277 -0.0941
24473W        W39942   1.134  14.099   3.679 -0.2623 -0.1049  0.0443
24474W        W39943   0.333  15.343   0.427 -0.1193 -0.1145 -0.1143
24475W        W39944   3.085   1.856   3.218 -0.0345 -0.1409  0.0029
24476W        W39945   6.151  18.359  11.937  0.0880  0.1209 -0.2987
24477W        W39946   8.793  10.947   1.027 -0.2042 -0.4625  0.0144
24478W        W39947   5.939   8.901  12.816 -0.0297 -0.0291 -0.1053
24479W        W39948   3.986   3.187   3.924 -0.1688  0.1559 -0.1518
24480W        W39949  15.529  14.538   1.517  0.0022 -0.0661  0.0751
24481W        W39950  17.441   5.774  11.778  0.1903 -0.0858  0.1202
24482W        W39951  14.434   8.554  10.089 -0.0577 -0.0137  0.3438
24483W        W39952  13.300   7.908  15.696 -0.1706  0.0612 -0.0470
24484W        W39953   8.424  13.145  13.577 -0.0984  0.0685  0.3991
24485W        W39954   9.156  17.396   2.066 -0.0069  0.2592  0.1831
24486W        W39955   2.539  11.129   4.534  0.0501  0.3390  0.2021
24487W        W39956   4.928   9.980  10.912  0.3125 -0.1711 -0.2408
24488W        W39957   9.736   7.980   0.571 -0.1387 -0.1618 -0.1727
24489W        W39958  15.181   9.859   4.838  0.0381  0.0266  0.3104
24490W        W39959   3.866   2.098   1.578  0.1140  0.0215  0.2803
24491W        W39960  14.953  12.662   4.721  0.2108  0.1128 -0.0501
24492W        W39961  12.290   7.893   3.171  0.1088  0.0197 -0.2027
24493W        W39962   6.396   5.166   1.487  0.0162 -0.1987 -0.0895
24494W        W39963  14.540   1.495  10.354 -0.1571  0.2278  0.1289
24495W        W39964   7.978   0.852  11.372  0.1244 -0.3440 -0.5148
24496W        W39965   3.540  15.217   5.489 -0.1163  0.2115  0.0522
24497W        W39966  15.559   6.935  10.434  0.0801  0.1008 -0.0279
24498W        W39967   0.071   2.792  15.067  0.2084 -0.0949 -0.2550
24499W        W39968  11.256   2.451  14.064 -0.1898 -0.1591 -0.0447
24500W        W39969  10.795  17.511  12.573  0.1481  0.2544  0.1548
24501W        W39970   4.251  15.798  12.057 -0.0260 -0.1165  0.2041
24502W        W39971   3.935  17.844   2.118  0.0784 -0.0483  0.1476
24503W        W39972   4.065   2.988   4.931  0.0219 -0.1708  0.1282
24504W        W39973  14.964  11.024  13.834  0.0214  0.0878 -0.0365
24505W        W39974   2.583  16.666  15.130 -0.0503 -0.0098  0.0155
24506W        W39975   4.807  16.844   3.247 -0.0572 -0.1774  0.1163
24507W        W39976  13.275  17.094  14.594 -0.0536 -0.0486  0.0168
24508W        W39977  15.281   6.831   1.642  0.2397 -0.0902 -0.0803
24509W        W39978  18.280   3.501   1.086 -0.0370  0.1144  0.0653
24510W        W39979   2.909  16.407  13.257  0.1099 -0.1934 -0.0426
24511W        W39980  15.802  16.529   2.007  0.1264 -0.0401  0.0188
24512W        W39981  11.907   9.901   3.674  0.0373  0.2652  0.1154
24513W        W39982   5.486   7.993   0.035  0.0353  0.1497 -0.0516
24514W        W39983  14.510   1.067   5.440  0.2558  0.0040  0.0067
24515W        W39984   7.142   2.047  11.756  0.1845  0.4162 -0.1933
24516W        W39985  18.575   7.503   3.179 -0.2419 -0.2370  0.1965
24517W        W39986  11.339  12.873  14.512 -0.3644  0.1290  0.0354
24518W        W39987   9.085  11.169   0.026 -0.3089 -0.0274  0.0540
24519W        W39988  11.377  18.309  14.466 -0.3073 -0.2322  0.1444
24520W        W39989   9.330   0.712   2.800 -0.0855  0.0570 -0.0276
24521W        W39990   0.117   7.617   0.737  0.2057  0.0450  0.2141
24522W        W39991  14.164   2.642  10.601  0.0910 -0.1681 -0.1205
24523W        W39992  11.467  16.612   0.876 -0.2190  0.0023 -0.0124
24524W        W39993  14.606   3.036  11.477  0.1986  0.6298  0.1533
24525W        W39994   6.354   5.091  13.335 -0.1729 -0.0704 -0.0616
24526W        W39995  14.749  18.206   3.593  0.3014  0.1766 -0.0330
24527W        W39996  10.077   6.098   1.279  0.2170 -0.0318 -0.1264
24528W        W39997   9.435   7.075  14.033 -0.1225  0.0360 -0.1866
24529W        W39998   9.892   0.624   5.851 -0.3182  0.0966 -0.2167
24530W        W39999   7.322  18.110   0.102 -0.1916  0.1992 -0.2878
24531W        W40000  12.917   0.069   4.077 -0.0263 -0.2978 -0.0601
24532W        W40001   8.748   8.687   2.658 -0.5178  0.0901  0.2210
24533W        W40002   5.365   1.481  14.279 -0.1886 -0.0557  0.1506
24534W        W40003  17.160  11.856   0.629 -0.0776  0.0138 -0.2923
24535W        W40004   6.390  18.099   4.629 -0.0642  0.1345 -0.1462
24536W        W40005  14.721   8.351   3.305  0.1780  0.4433  0.0202
24537W        W40006  11.798  11.926  11.498  0.1049 -0.1463  0.0834
24538W        W40007   4.520  16.247  15.065  0.1301 -0.1942  0.1463
24539W        W40008  13.835   3.418   5.813  0.0488 -0.1899  0.0621
24540W        W40009  14.634  17.045   4.415 -0.2016 -0.1118 -0.0121
24541W        W40010   1.769   9.148  14.911  0.0677 -0.2001  0.1487
24542W        W40011   4.144  10.899   0.693  0.0874 -0.1617  0.1781
24543W        W40012  13.785   7.238   9.580 -0.0102 -0.1176 -0.0203
24544W        W40013   2.606   9.746  11.770 -0.1432  0.0795  0.0071
24545W        W40014  11.961  11.017   3.878  0.0604 -0.0074 -0.1142
24546W        W40015   4.655  13.495   5.726 -0.0358 -0.3737  0.2353
24547W        W40016  14.406  10.706  14.688  0.1184 -0.0940 -0.5764
24548W        W40017   6.973   0.459   1.865 -0.0454 -0.2165 -0.0981
24549W        W40018   3.693  11.899  15.181 -0.3357  0.0852 -0.4940
24550W        W40019  14.482   1.456   5.840  0.0948  0.2245 -0.0895
24551W        W40020   8.595   5.939  12.161  0.0544 -0.0799  0.3290
24552W        W40021  15.068   4.079   3.630 -0.2479 -0.0718 -0.1606
24553W        W40022  18.359  13.942  12.932 -0.2123  0.0645 -0.2398
24554W        W40023  15.012  13.652  11.670  0.1001 -0.0854  0.1226
24555W        W40024  16.033   0.500  14.995  0.1601  0.3162  0.3268
24556W        W40025   4.777  17.304   3.001  0.2297 -0.2456  0.1297
24557W        W40026  15.725   9.781  11.266 -0.0878  0.0912 -0.1043
24558W        W40027   2.844   4.644  10.041  0.1076  0.1058  0.3657
24559W        W40028  14.982   1.474   2.947  0.0484  0.1847  0.0398
24560W        W40029   3.338  13.895   4.643  0.2519  0.1992  0.0505
24561W        W40030   2.446   9.900   4.559 -0.0434  0.0258 -0.1807
24562W        W40031   4.978  12.384   3.846 -0.3900  0.2878 -0.1641
24563W        W40032  14.790  10.444   0.283  0.1363 -0.0767  0.3519
24564W        W40033  18.375  18.150   3.629 -0.2194  0.2332 -0.1079
24565W        W40034  16.403   8.782  14.906 -0.2743  0.1166 -0.2117
24566W        W40035  13.371   9.930   0.405  0.2927  0.0380  0.0801
24567W        W40036   7.691  10.042   2.048 -0.1740 -0.0124  0.0780
24568W        W40037   2.861  12.697   4.687 -0.1459  0.1153 -0.0451
24569W        W40038   7.335  12.831   3.834  0.1198  0.1656 -0.0952
24570W        W40039   0.884  10.509  14.947  0.2164  0.1444 -0.1906
24571W        W40040   7.573  16.266   4.630 -0.3453 -0.4744 -0.2028
24572W        W40041   3.336   1.995   2.258  0.0702  0.4523 -0.2302
24573W        W40042   5.014   6.714   1.569 -0.3053  0.0052  0.2611
24574W        W40043   4.789   1.224  15.639 -0.0897 -0.1146  0.2031
24575W        W40044   7.557  10.182  10.313  0.0151  0.0461 -0.1778
24576W        W40045   7.595  17.414  12.081  0.0611  0.0811  0.1151
24577W        W40046   9.041   5.762  14.935 -0.1921 -0.1968  0.2119
24578W        W40047  14.653  15.878  13.349 -0.0806  0.3603 -0.5037
24579W        W40048  15.699   2.922  14.865  0.1428 -0.0955 -0.1759
24580W        W40049  16.491  10.443   5.283  0.0296  0.1972  0.0568
24581W        W40050  13.015   0.601   1.182 -0.2647  0.1265  0.0131
24582W        W40051  11.877   9.882   4.487  0.0692 -0.2130 -0.2096
24583W        W40052  13.326  15.435   0.777 -0.1558  0.2617 -0.2542
24584W        W40053   2.291   4.388  14.319  0.0408  0.2264 -0.0395
24585W        W40054  11.208  13.911  13.222 -0.0689 -0.2453 -0.0958
24586W        W40055  14.344  14.629   0.116  0.0561 -0.1455 -0.4511
24587W        W40056  10.267   3.693  14.809 -0.0162  0.1780  0.4424
24588W        W40057  18.169  17.121  15.589 -0.0096 -0.0298 -0.1263
24589W        W40058  17.378   1.308  14.101 -0.2990 -0.0545  0.2562
24590W        W40059  14.933   0.968   0.672  0.1659  0.1476  0.4575
24591W        W40060   1.079  17.226   2.422  0.2672 -0.0183 -0.0877
24592W        W40061   3.046  12.946  10.717 -0.3198  0.1436 -0.0042
24593W        W40062  11.216   3.820   1.121 -0.3851  0.0205  0.2417
24594W        W40063   8.271  12.651   4.642 -0.0438  0.2686  0.2815
24595W        W40064  15.748   3.472   3.032 -0.3074 -0.0174  0.3128
24596W        W40065  11.422  14.758   0.957 -0.0772 -0.0877  0.3160
24597W        W40066  10.214  12.040   0.916 -0.1013  0.2296  0.1706
24598W        W40067  17.323   9.700   3.927 -0.3789 -0.1184  0.2372
24599W        W40068   4.871   3.932   3.206 -0.0758  0.0091 -0.0877
24600W        W40069  17.686   8.838  12.916 -0.1824 -0.1120  0.4040
24601W        W40070  12.766   9.260  13.714  0.0103  0.1226 -0.1966
24602W        W40071  10.454   6.804  15.645  0.2776 -0.2475  0.3974
24603W        W40072  10.336   0.242  12.487  0.0571  0.0258 -0.0585
24604W        W40073  17.197   8.069   2.786  0.2068  0.0059  0.2928
24605W        W40074   4.653  10.206  15.105  0.1678  0.0266 -0.3028
24606W        W40075   7.927  11.189  11.881  0.0204  0.1634 -0.2190
24607W        W40076   5.873  11.725  12.712 -0.1824  0.2572  0.1775
24608W        W40077  10.742   6.567   0.732  0.0160  0.1719 -0.3605
24609W        W40078  14.299   2.466   5.087  0.2329  0.1286  0.1425
24610W        W40079   1.277  17.472   4.204  0.1672 -0.0549 -0.3984
24611W        W40080   6.840   4.422   5.897  0.0395 -0.1792  0.1783
24612W        W40081  15.075   4.878  11.035  0.0032  0.2729  0.1462
24613W        W40082  13.879  18.562  15.510  0.0641 -0.0491  0.2432
24614W        W40083  12.727   9.547   3.547 -0.0800 -0.1939 -0.1029
24615W        W40084   5.909  13.068   1.880 -0.0128 -0.0721  0.1756
24616W        W40085   9.866   4.452  12.442  0.3441 -0.1719  0.1795
24617W        W40086   0.621  17.451   2.295 -0.1468  0.1173 -0.1616
24618W        W40087  14.462   3.572  11.329 -0.1226 -0.2011 -0.0187
24619W        W40088   5.893  14.325  13.422 -0.2437 -0.0113 -0.3446
24620W        W40089   3.241  15.188  11.939 -0.0829  0.1606 -0.0831
24621W        W40090   7.411  14.022   5.181  0.0324  0.1926  0.2333
24622W        W40091   0.350   9.128  10.717 -0.0475 -0.1236 -0.1849
24623W        W40092  14.704  17.642   3.385 -0.0853  0.1104 -0.2310
24624W        W40093  13.279  17.860   5.846 -0.2048 -0.3191 -0.6072
24625W        W40094   7.286  15.655   4.727  0.0938  0.1748 -0.1222
24626W        W40095   0.262   8.048   5.394 -0.1292 -0.0031  0.3407
24627W        W40096  10.573   0.953  13.806 -0.0854 -0.3185 -0.2351
24628W        W40097  13.009   3.181   5.196 -0.2379  0.1903 -0.2327
24629W        W40098   4.423   3.169  14.736  0.2072  0.0940  0.0592
24630W        W40099  11.451   9.973  14.147  0.2047  0.1187 -0.0818
24631W        W40100   3.949   3.373   3.446  0.1341  0.3127 -0.0775
24632W        W40101   3.816   8.896   2.070 -0.0772 -0.2902  0.1419
24633W        W40102  10.745  13.618   2.233  0.1147  0.4138  0.1409
24634W        W40103   7.880   9.237   1.226  0.1570 -0.0738  0.0468
24635W        W40104   2.619   3.116   3.775 -0.0999  0.1121  0.2800
24636W        W40105  18.451   3.410  10.866  0.0153 -0.2601  0.0453
24637W        W40106  11.611   5.883   5.340 -0.2693 -0.3189  0.0144
24638W        W40107  11.078   4.743  12.167 -0.0351  0.2825  0.0374
24639W        W40108   2.556   3.415  13.881 -0.2384 -0.0428  0.1448
24640W        W40109  12.530  14.796  12.526  0.1753 -0.0454 -0.0789
24641W        W40110   1.255   8.303  10.714 -0.0961 -0.2596  0.0481
24642W        W40111  17.815  14.516   3.543 -0.0100 -0.2090 -0.1406
24643W        W40112  10.455  13.035  13.880  0.2585  0.1276 -0.0154
24644W        W40113  10.163   1.024  11.536  0.2071 -0.0595 -0.1005
24645W        W40114  15.738  17.180  13.055 -0.2981  0.1654  0.2385
24646W        W40115   9.232   9.666   2.690  0.2165  0.1699  0.0016
24647W        W40116  10.618  11.185   2.227 -0.1925  0.1951  0.1315
24648W        W40117   4.278  13.767   2.473 -0.0617  0.1142  0.1696
24649W        W40118   2.020   2.659  10.963 -0.2128  0.2879  0.1974
24650W        W40119  17.923   5.287  13.174 -0.2673  0.0308  0.3925
24651W        W40120   9.825  13.238   1.893 -0.0415  0.2768  0.0827
24652W        W40121  11.728  13.629   3.567  0.0281  0.2721  0.1599
24653W        W40122  10.509  16.491  12.321 -0.1692 -0.0511 -0.1327
24654W        W40123  16.212  15.407   2.298  0.1191 -0.1573  0.1533
24655W        W40124   7.096   7.394  14.693  0.2871  0.2159  0.3219
24656W        W40125   9.389  17.865  13.353  0.1693  0.2087  0.2302
24657W        W40126   8.304   1.834   2.751  0.0363  0.0162 -0.0394
24658W        W40127  14.711   5.283   0.351  0.1212  0.2531 -0.0847
24659W        W40128  11.173  11.571  11.301 -0.0527  0.1512  0.0094
24660W        W40129  14.400  13.826   4.977  0.3100 -0.2013  0.2224
24661W        W40130  17.568   0.436   5.224  0.1492 -0.0381  0.0718
24662W        W40131  11.320   1.040  13.434 -0.0287 -0.3277 -0.4397
24663W        W40132   9.166  11.954  15.085  0.2585 -0.0645 -0.2353
24664W        W40133  17.889   5.345  15.442  0.0069 -0.0694 -0.0025
24665W        W40134  16.935   6.831   3.101 -0.2298 -0.3566  0.0181
24666W        W40135  13.401   1.512   1.049  0.1307  0.0446  0.0869
24667W        W40136   8.183  11.251   5.822  0.0213  0.1098  0.0004
24668W        W40137  14.840   3.702   1.425 -0.0913 -0.1445  0.0336
24669W        W40138  17.054  12.320  14.635  0.1322  0.3297 -0.0021
24670W        W40139   5.204   3.392  13.707 -0.2877  0.1893 -0.2158
24671W        W40140  16.713   5.153   5.066 -0.3302  0.0790 -0.1001
24672W        W40141   0.491   1.133  10.868  0.0687 -0.1453  0.0098
24673W        W40142   3.011  17.206  12.594  0.1501  0.1925  0.0916
24674W        W40143   6.251   8.358   5.488 -0.3824 -0.2768  0.0812
24675W        W40144   2.417   8.602   0.705  0.0794 -0.0367 -0.0068
24676W        W40145  14.564  10.531  15.153  0.1617 -0.0967 -0.0766
24677W        W40146  16.926   4.798   1.188  0.3029 -0.1974 -0.2660
24678W        W40147   3.949   7.023   1.426  0.1742 -0.2224 -0.1845
24679W        W40148  18.027   9.488   2.195  0.3349  0.1491  0.2920
24680W        W40149   5.443  14.716   5.032 -0.4156  0.0424 -0.0499
24681W        W40150  14.991  12.510  15.610  0.2751 -0.0153  0.2597
24682W        W40151   6.262   6.097  11.935 -0.0539 -0.2601  0.0575
24683W        W40152  11.017  15.700  14.302 -0.2160  0.3058  0.0174
24684W        W40153  16.480   5.133   2.251  0.2176  0.0323  0.2840
24685W        W40154   4.984  14.903   1.567  0.1326 -0.3366  0.3202
24686W        W40155   2.961   7.695  13.769  0.0778  0.4450  0.1252
24687W        W40156  14.756  12.375  10.519 -0.1767  0.0571 -0.0568
24688W        W40157  15.990   0.902   1.735 -0.2006 -0.1759  0.1591
24689W        W40158   4.995   7.448  11.664  0.0374 -0.0892 -0.1916
24690W        W40159   3.455   3.005  11.368 -0.0332  0.1288  0.0592
24691W        W40160   8.798  11.565  14.463 -0.2895 -0.1885 -0.1805
24692W        W40161   0.139  18.250  13.951  0.1552  0.0264 -0.2423
24693W        W40162  11.272  10.141  11.180  0.0814  0.0110  0.2805
24694W        W40163   4.705  16.198  11.891  0.0004  0.0819  0.2496
24695W        W40164   5.451   5.317   3.979 -0.1379  0.1392 -0.0417
24696W        W40165  13.232  10.868   3.270  0.1744 -0.3003 -0.0252
24697W        W40166  10.020   3.793   4.320  0.3739  0.2216 -0.0598
24698W        W40167   3.905  11.378  11.369  0.1703 -0.1063  0.4520
24699W        W40168   1.191  11.614  11.505  0.1178 -0.2410  0.3194
24700W        W40169   3.206   1.247   3.169 -0.1296 -0.3260 -0.1338
24701W        W40170   9.437  10.188  15.570  0.0456 -0.0504 -0.1131
24702W        W40171  10.237   3.661   0.933  0.1955  0.1316 -0.2938
24703W        W40172   2.962  16.984   2.931 -0.1055  0.2101  0.0244
24704W        W40173   2.429   1.341  14.750  0.3642  0.1025 -0.1808
24705W        W40174  18.445  17.344   1.794 -0.0405 -0.2574  0.0935
24706W        W40175   7.133  12.549   4.684  0.3511 -0.2334  0.0564
24707W        W40176  14.646  16.652  10.356  0.0028  0.0335  0.0273
24708W        W40177   9.980   8.683   0.464  0.2963 -0.2116 -0.1382
24709W        W40178  11.779   1.865   4.605  0.0482 -0.1012 -0.2737
24710W        W40179  13.397  15.516   2.246  0.1176 -0.0480 -0.2225
24711W        W40180  15.960  17.556   4.442  0.1985 -0.1231  0.0782
24712W        W40181   0.027   3.709   5.284  0.1186 -0.2797 -0.0836
24713W        W40182  12.038   8.154   2.554  0.0782 -0.2063  0.2119
24714W        W40183   4.641  11.609  12.744  0.0256 -0.1762  0.0824
24715W        W40184   9.199  13.297  11.859  0.6082  0.0257  0.0369
24716W        W40185  10.438  11.526   1.671  0.0689 -0.1020 -0.0593
24717W        W40186   0.380   7.337  14.857 -0.2339 -0.2643 -0.0946
24718W        W40187   4.795   1.843   4.785  0.0370  0.1405  0.1956
24719W        W40188  13.741  15.517   2.652 -0.3130  0.2772 -0.1797
24720W        W40189   4.435  12.124  13.724 -0.0801 -0.3020  0.1657
24721W        W40190   8.491   5.711  10.937  0.1188 -0.0044 -0.1159
24722W        W40191  15.146  10.425   3.067 -0.1842  0.0283  0.0076
24723W        W40192  12.321  15.425   1.270 -0.0756  0.1467 -0.1099
24724W        W40193   0.672   7.630  12.108  0.0543  0.0716  0.1045
24725W        W40194  10.958   7.265  13.038 -0.0362 -0.1502  0.0072
24726W        W40195   4.508   4.480  14.032 -0.1599 -0.2262  0.1367
24727W        W40196   2.921   5.470  12.108 -0.0904 -0.0108  0.3352
24728W        W40197  11.991   1.944  11.885  0.0450  0.0571  0.3537
24729W        W40198  14.423   6.759   4.664  0.3208 -0.1539  0.0755
24730W        W40199  17.102   1.079  11.892 -0.1043 -0.0565  0.1940
24731W        W40200  11.611  14.612  12.111  0.0385 -0.0647 -0.2882
24732W        W40201  13.599   0.221   2.773 -0.0036 -0.3622  0.1044
24733W        W40202  13.472   3.483  13.921 -0.0545  0.2712 -0.0793
24734W        W40203   6.396   1.945  11.591 -0.1021 -0.0062  0.0707
24735W        W40204  18.065   4.690  13.127  0.4796  0.0187  0.0737
24736W        W40205  15.022  14.123   3.895  0.1654  0.0273  0.0309
24737W        W40206   2.785   9.395  15.254  0.1578  0.0505 -0.0156
24738W        W40207   9.109   5.680   4.307 -0.2835  0.1359 -0.3719
24739W        W40208  15.317  14.094   1.234  0.0539 -0.2477  0.0771
24740W        W40209  14.966   3.866   4.891 -0.0944 -0.0510  0.1004
24741W        W40210   4.266  11.983   3.705  0.3966 -0.2799  0.0508
24742W        W40211  13.172   6.151  13.990 -0.1384  0.0346 -0.0066
24743W        W40212  17.346  13.341   0.951  0.2122  0.1439  0.1812
24744W        W40213  12.085   4.926   0.150  0.0184  0.0093  0.0717
24745W        W40214  13.393   1.979  13.521  0.0397 -0.0046  0.3109
24746W        W40215  12.800  12.998  15.247  0.3763 -0.0082  0.2917
24747W        W40216   1.290  17.767  12.689 -0.3209 -0.2095 -0.0478
24748W        W40217   9.870   8.620   4.575 -0.1584 -0.0577  0.2839
24749W        W40218   2.873  12.327   3.784  0.2672  0.1839  0.1948
24750W        W40219  11.916  15.885  14.488  0.0902 -0.4038 -0.0090
24751W        W40220   4.575   5.609  13.003 -0.1746 -0.1437 -0.0675
24752W        W40221  17.311  10.575   0.229  0.4242 -0.0484  0.2326
24753W        W40222   6.052   6.830   1.345 -0.0709 -0.1667  0.0399
24754W        W40223  14.879  13.344   4.238  0.1795  0.3744 -0.0987
24755W        W40224   6.040  10.181   1.404 -0.4778  0.1590  0.2274
24756W        W40225  14.683   0.129   1.007 -0.0309 -0.1726 -0.3911
24757W        W40226  16.744   9.565   1.457 -0.1399 -0.1021  0.2071
24758W        W40227  11.859  13.096   1.771 -0.0125 -0.1081 -0.1871
24759W        W40228   1.067  17.820  10.666  0.0298  0.1168 -0.2819
24760W        W40229  18.143   3.499   9.901 -0.1101  0.0110  0.0257
24761W        W40230   9.976  16.410  11.153 -0.1137  0.1120  0.3678
24762W        W40231   3.109  14.456  14.572 -0.1308 -0.1639 -0.0255
24763W        W40232   3.321  17.715   4.591 -0.1369 -0.1158 -0.2823
24764W        W40233   9.583   9.788   2.368  0.1195 -0.2935 -0.2167
24765W        W40234   7.913   8.976   4.610 -0.1345  0.0786  0.2192
24766W        W40235   6.638  16.624   0.533 -0.0873 -0.0221  0.0820
24767W        W40236  15.975   6.343  12.919  0.1548 -0.3259  0.0072
24768W        W40237  17.471  16.067   0.947 -0.0725 -0.2830 -0.1823
24769W        W40238   9.669  14.373   3.033 -0.1642 -0.0192 -0.2060
24770W        W40239  14.149   1.714   4.051 -0.2263  0.0898 -0.1660
24771W        W40240   0.238  10.774   0.149  0.0669  0.0857 -0.0188
24772W        W40241   9.475  16.676   3.518  0.1604  0.3066  0.3020
24773W        W40242  12.869   1.765   0.763 -0.1520 -0.1296 -0.1587
24774W        W40243   7.915   4.900  11.178  0.1960 -0.2934 -0.2536
24775W        W40244  14.804  17.995   4.623 -0.2788  0.0947 -0.3067
24776W        W40245   0.372   0.478  10.177  0.0042  0.1041 -0.2588
24777W        W40246   5.174   6.744   9.990 -0.0087 -0.0902  0.0396
24778W        W40247   3.342   8.236  15.282 -0.0796 -0.1462 -0.2069
24779W        W40248   8.722  14.991   3.284 -0.1051  0.1646  0.0113
24780W        W40249   6.042  15.880   1.875 -0.0871 -0.2401  0.1388
24781W        W40250  13.463   7.618  10.945 -0.0334 -0.1509  0.1626
24782W        W40251  13.085   5.226  12.152 -0.2555 -0.1233  0.2715
24783W        W40252  11.021   2.635   5.641  0.2452  0.2797 -0.0183
24784W        W40253  10.672   8.612   3.506  0.1685  0.1533 -0.1545
24785W        W40254   1.450   3.862   3.359 -0.2595 -0.0104 -0.0972
24786W        W40255   6.660  15.475   1.972 -0.3779 -0.0632  0.0026
24787W        W40256   0.824  11.115  14.697 -0.0915  0.3048 -0.1355
24788W        W40257   9.299   5.844   3.689 -0.0476 -0.1844 -0.0388
24789W        W40258  15.978   0.765   3.101 -0.0309 -0.0429 -0.0135
24790W        W40259  12.612   6.477   0.329 -0.1229  0.0349 -0.2241
24791W        W40260  13.866   4.306   4.894  0.2399  0.1555 -0.1295
24792W        W40261  13.859   2.524   1.105 -0.2175 -0.2792 -0.1329
24793W        W40262   9.608   6.088   4.682 -0.0052  0.0469 -0.0532
24794W        W40263   4.436  17.807   2.116  0.1424  0.1179 -0.3886
24795W        W40264   3.236  11.828  14.465  0.1026 -0.1003 -0.2098
24796W        W40265   3.016   2.469  12.038  0.0498 -0.1762  0.0857
24797W        W40266   4.306   7.537   0.785  0.1406  0.2370 -0.0017
24798W        W40267  14.287   3.520  12.331 -0.0974 -0.1206  0.3055
24799W        W40268   1.822   5.977   3.132 -0.0079 -0.0249 -0.0878
24800W        W40269   0.960  14.862  15.715  0.1821  0.0879 -0.0267
24801W        W40270  13.814  11.226   4.634 -0.0905  0.0065 -0.1380
24802W        W40271   2.157   5.090   5.258  0.1093 -0.0339 -0.3434
24803W        W40272  18.557   5.930   1.854  0.2243  0.0149  0.0562
24804W        W40273  10.511  17.426   2.436  0.0017  0.0734 -0.0175
24805W        W40274   0.877   4.777   3.520  0.2442  0.1496  0.2247
24806W        W40275   1.535  11.698   4.732  0.2041  0.2262  0.0090
24807W        W40276  12.624  12.663   5.148  0.1850 -0.0911  0.1476
24808W        W40277  16.218  14.339   4.776  0.0892 -0.3780 -0.2787
24809W        W40278   8.527   7.922   1.197  0.2558  0.0988 -0.4149
24810W        W40279   6.335   9.962  13.876 -0.4138 -0.1135  0.0076
24811W        W40280  16.828   3.727   3.955  0.1015  0.2955 -0.0550
24812W        W40281  18.393   0.022  13.110 -0.2219  0.1047  0.2314
24813W        W40282   6.509  10.309  13.526 -0.0568 -0.1112 -0.1540
24814W        W40283   8.618   7.962  15.333 -0.0730 -0.2363 -0.2775
24815W        W40284  14.016   8.543  10.969  0.3983  0.0327 -0.0001
24816W        W40285  16.768   3.676   4.465 -0.0843  0.2670  0.1537
24817W        W40286  12.348   0.356  13.571  0.0820  0.0492 -0.0094
24818W        W40287  13.539   4.181   3.864 -0.1246  0.2036  0.1092
24819W        W40288  16.687  18.065  10.570 -0.1155  0.0242  0.3269
24820W        W40289  11.855   0.049  12.746  0.2574 -0.0852 -0.0909
24821W        W40290   3.021  17.315   4.678  0.0131  0.1616  0.0357
24822W        W40291  15.099   7.571   0.866  0.2166  0.2606 -0.0396
24823W        W40292   1.900   9.612  14.811 -0.0776  0.1514 -0.2373
24824W        W40293   2.221   8.259   3.429  0.0547 -0.1335  0.1364
24825W        W40294   8.248   2.949   1.013 -0.2723  0.2965 -0.0666
24826W        W40295  15.981  18.583   4.665 -0.0730 -0.0794 -0.0546
24827W        W40296  12.056  13.215   5.430 -0.0942  0.1084 -0.3730
24828W        W40297   5.325   6.233   3.770 -0.0614  0.0990  0.1418
24829W        W40298  15.006   6.633   1.216  0.3872 -0.0207 -0.2051
24830W        W40299   8.086  11.790  13.393  0.0401 -0.0143 -0.0826
24831W        W40300  14.590  10.159  13.643 -0.3257 -0.1110  0.2326
24832W        W40301  12.004   8.619   3.601 -0.0557  0.2981 -0.2530
24833W        W40302   7.781   4.183  11.898  0.0912  0.0328 -0.2598
24834W        W40303   0.810   0.449  12.534  0.4103  0.1699  0.4063
24835W        W40304   2.170  13.828  12.095  0.1559  0.0029  0.0059
24836W        W40305   6.254   2.149   0.577  0.0082  0.1169  0.3993
24837W        W40306   5.238  14.740   5.785 -0.1284  0.0296 -0.2933
24838W        W40307   9.529   3.863  12.217  0.1061  0.2538  0.0498
24839W        W40308   6.191  12.991  13.569 -0.0238  0.2358 -0.1689
24840W        W40309   5.954  11.311  10.340  0.0651  0.0520 -0.1029
24841W        W40310  15.778   2.332   5.488  0.1927  0.0386  0.0870
24842W        W40311  17.212  11.387  10.093  0.1678  0.1705  0.1848
24843W        W40312   0.604   5.158  11.984  0.2456  0.1917 -0.2580
24844W        W40313   4.375   6.731  12.564  0.3156 -0.2446 -0.0372
24845W        W40314  12.106   0.674   1.905 -0.2225  0.1307  0.3073
24846W        W40315   1.422   2.344   4.831 -0.2030  0.1201  0.0990
24847W        W40316   2.661   3.212  13.014  0.0291 -0.1535 -0.1432
24848W        W40317   3.125   6.070   0.710 -0.1881  0.0359  0.1009
24849W        W40318  12.832   9.608   1.428  0.2887  0.1207 -0.0494
24850W        W40319  11.492   3.434   2.003  0.2628  0.0327 -0.1229
24851W        W40320   7.685   9.723   4.839 -0.1184  0.1223 -0.0256
24852W        W40321  11.901  11.326  12.283  0.2136  0.2374 -0.3452
24853W        W40322  11.111  10.073   5.533  0.1508 -0.1939 -0.1486
24854W        W40323  13.287   4.884  12.412 -0.0453  0.1494  0.0445
24855W        W40324   9.593   0.709  14.616  0.0477 -0.1685  0.1113
24856W        W40325   0.855   5.156  11.493  0.1297 -0.1382 -0.2964
24857W        W40326   6.031  14.224  12.177  0.1944 -0.1323 -0.1355
24858W        W40327  11.325  12.497   3.841 -0.0347 -0.0510 -0.0299
24859W        W40328  17.290  10.726   1.717 -0.1988 -0.0492  0.0772
24860W        W40329   2.611   1.047   3.535 -0.0986 -0.0775  0.1851
24861W        W40330   4.377  11.833  10.774 -0.0306 -0.0332  0.1041
24862W        W40331   7.371  16.200   0.532 -0.1726  0.0604  0.2805
24863W        W40332   5.290   7.502  14.417 -0.0158  0.1563 -0.0717
24864W        W40333  17.863   6.028  11.470 -0.0276  0.2390 -0.1474
24865W        W40334   7.868  16.936  11.330 -0.2580  0.0548 -0.0634
24866W        W40335   5.274  12.812  10.804 -0.2776 -0.3377 -0.1119
24867W        W40336  13.965  16.974   2.449 -0.0097  0.0530  0.0251
24868W        W40337  15.523  10.112   4.568  0.0740  0.1556 -0.0484
24869W        W40338  12.845   7.086  14.286 -0.1310 -0.0199 -0.1273
24870W        W40339  16.078  15.473  11.136 -0.3184 -0.0016  0.4062
24871W        W40340  12.433  12.024  15.768 -0.0079  0.0811 -0.3369
24872W        W40341   3.016   8.249  10.292 -0.0092 -0.0428  0.0380
24873W        W40342  14.313   8.531  15.000 -0.0840 -0.1597 -0.2614
24874W        W40343  17.230   4.963   1.527 -0.4316  0.0397  0.0201
24875W        W40344   5.766  11.003  15.445  0.1061 -0.0921  0.1758
24876W        W40345  12.427   7.850   2.670 -0.3531  0.2553  0.0352
24877W        W40346  13.235  10.981  14.712 -0.1507  0.0338  0.0775
24878W        W40347  16.708   3.977  15.771  0.2129 -0.1795 -0.0656
24879W        W40348  10.902   5.299   5.020 -0.0940  0.0196  0.3076
24880W        W40349   8.118  14.985   1.404  0.1134  0.3422  0.0479
24881W        W40350   8.335  18.130   5.294  0.1110 -0.1861  0.1485
24882W        W40351   4.697  16.967   1.659 -0.0599  0.1076 -0.1801
24883W        W40352   2.027   4.953  11.854  0.2712  0.0087  0.2691
24884W        W40353  12.400  14.796  13.302 -0.0620  0.0308 -0.0078
24885W        W40354   4.760   9.751   0.871  0.2682 -0.4092  0.2457
24886W        W40355   2.778   2.916  15.293 -0.4635 -0.0287  0.3459
24887W        W40356  15.912  13.421   3.291 -0.2226 -0.0667 -0.2863
24888W        W40357   9.393  12.717  11.942  0.2151  0.0700  0.2834
24889W        W40358  13.142   3.221  13.684 -0.0391  0.4080 -0.1486
24890W        W40359   2.176   1.780  13.019  0.3099  0.1143 -0.1901
24891W        W40360   7.046   8.697  15.434  0.0851 -0.2583  0.1026
24892W        W40361   1.445   5.906   1.869  0.0452  0.0976  0.0455
24893W        W40362  17.401  15.916   1.925 -0.1648 -0.1828 -0.2877
24894W        W40363   8.839  16.915   2.834  0.2542 -0.1495 -0.2091
24895W        W40364   0.472   3.465  12.112 -0.1031 -0.0439  0.2351
24896W        W40365  12.972   3.834   5.255  0.0308 -0.2413  0.2635
24897W        W40366   2.083  18.391   0.087 -0.0242 -0.2197  0.0015
24898W        W40367   3.249   3.904  10.192  0.2148 -0.1798  0.0177
24899W        W40368   3.996  10.566   2.556 -0.1163  0.2197  0.1908
24900W        W40369   8.027   3.520   6.055 -0.0874  0.2536 -0.3205
24901W        W40370  18.110   2.693  13.442 -0.0044 -0.0049 -0.0831
24902W        W40371  16.513  18.262  13.328  0.3980  0.2834 -0.0021
24903W        W40372   4.712  13.905  12.033 -0.3348 -0.0502  0.6874
24904W        W40373  13.821  13.268  14.952 -0.0856  0.0769  0.1183
24905W        W40374   7.908  15.365   5.599  0.1088 -0.1708 -0.0468
24906W        W40375   2.633   8.782  13.584 -0.0266  0.3264 -0.1064
24907W        W40376  17.401  13.903  14.384 -0.1257 -0.2453 -0.1899
24908W        W40377  12.998   5.098   2.000  0.0758  0.1015 -0.0540
24909W        W40378   4.817  17.479   1.484 -0.2515 -0.0131 -0.0512
24910W        W40379   6.954  11.877   3.027  0.1714 -0.3533 -0.1380
24911W        W40380  15.540   5.610   1.834  0.1995  0.2165 -0.0885
24912W        W40381   5.777  16.208  12.960 -0.0176 -0.3219  0.1283
24913W        W40382  16.575   5.169  15.246 -0.1307 -0.0375 -0.3991
24914W        W40383  15.688   8.322   3.635 -0.1854 -0.1242 -0.1674
24915W        W40384  10.091   3.544  15.262 -0.3313  0.2504  0.0012
24916W        W40385   5.802  11.465  15.689 -0.2805 -0.0259  0.0443
24917W        W40386   0.773   0.333  15.596 -0.3230 -0.0124  0.1244
24918W        W40387  11.742  15.292   5.731  0.6294  0.1831 -0.0423
24919W        W40388   2.505  10.862  13.095  0.0782  0.1130  0.2658
24920W        W40389  10.002  17.381   1.692 -0.3195 -0.0299  0.1114
24921W        W40390  10.826   7.120   0.083 -0.0746 -0.2527  0.0223
24922W        W40391   3.536   7.755   1.988  0.1513  0.2393 -0.0239
24923W        W40392  17.666  12.358   1.285  0.0418  0.2689 -0.0355
24924W        W40393   9.557   3.541  13.965 -0.0760  0.1502 -0.3718
24925W        W40394  17.727  18.188   0.296 -0.2028 -0.1329  0.2130
24926W        W40395   6.365  18.600  13.674 -0.1608  0.2852 -0.0462
24927W        W40396  15.161   3.156   0.579 -0.0795 -0.2399 -0.1644
24928W        W40397  12.684  10.887  11.469  0.2414 -0.1033 -0.1146
24929W        W40398  12.678   1.588   4.199  0.0531 -0.0231 -0.0747
24930W        W40399  15.740  11.693  14.433  0.0700  0.2087  0.0407
24931W        W40400   8.328  17.966   1.980 -0.0260  0.2493  0.0912
24932W        W40401   4.383  16.251  13.342  0.1984  0.1587 -0.1782
24933W        W40402   5.555   6.605   1.636 -0.1336 -0.0237  0.1284
24934W        W40403  11.857   5.962   4.290  0.0280 -0.0187 -0.1798
24935W        W40404  11.576   4.672   0.161 -0.0192 -0.3324  0.3208
24936W        W40405  11.804  12.598   1.601 -0.0102 -0.0376 -0.2103
24937W        W40406  15.270   9.381   0.522 -0.0350  0.3125  0.4440
24938W        W40407   9.328  10.792   5.149  0.2033 -0.0583 -0.1660
24939W        W40408  14.747  11.287  12.187 -0.0256 -0.2352 -0.4832
24940W        W40409  10.191   4.774  14.003 -0.2213  0.1468 -0.1370
24941W        W40410  15.467   2.685   0.517  0.1059 -0.2164 -0.1213
24942W        W40411   0.086  10.352  12.926 -0.2018  0.1788  0.0326
24943W        W40412  14.252  12.091   0.202  0.1621  0.3349  0.1222
24944W        W40413   9.585  12.352  15.321 -0.0728 -0.0380 -0.0537
24945W        W40414   0.298   1.119   1.940  0.0441 -0.3395 -0.2093
24946W        W40415  17.995  11.199  13.434  0.0852  0.1257  0.2129
24947W        W40416  15.714   5.942  13.468 -0.0223  0.2732  0.0267
24948W        W40417  16.474  11.150  13.773  0.1123  0.2063  0.1950
24949W        W40418  10.520   4.412  12.789 -0.4246  0.0976 -0.0929
24950W        W40419   7.674   5.576   5.560  0.1573 -0.0797 -0.1137
24951W        W40420   3.361  11.158  10.702  0.0191  0.0701  0.1896
24952W        W40421  13.211   7.935  10.000  0.0647 -0.0387  0.3310
24953W        W40422   5.831   3.858   2.208 -0.0964 -0.1880  0.1666
24954W        W40423  17.248  15.599  12.620  0.1318 -0.2935 -0.1182
24955W        W40424  16.087   1.427   0.649  0.0202 -0.2185 -0.2282
24956W        W40425   4.803   3.660  15.745  0.1236 -0.1400  0.2102
24957W        W40426  15.657   2.375  10.955 -0.2003 -0.0083 -0.1640
24958W        W40427   2.455   6.623  14.816 -0.1095 -0.1444 -0.1786
24959W        W40428   6.383  18.538   0.591  0.2167  0.2845 -0.0408
24960W        W40429  14.729   3.975   4.437 -0.2329 -0.3064 -0.0942
24961W        W40430   7.314  12.401  13.237 -0.1142 -0.1911  0.1878
24962W        W40431   7.040   3.914   5.902 -0.1945 -0.0230 -0.3679
24963W        W40432  14.633   0.990  15.485  0.1036  0.0723 -0.0575
24964W        W40433  14.206   1.157  15.209  0.0320 -0.0834 -0.0095
24965W        W40434   9.421   0.744   0.887 -0.1468 -0.0380  0.0200
24966W        W40435  12.690   7.238  12.552  0.0537 -0.2515 -0.0728
24967W        W40436  15.032   1.643   1.278  0.0436 -0.0811 -0.1095
24968W        W40437  17.067   0.180  11.061 -0.1590 -0.0633  0.0305
24969W        W40438   9.631  17.211  15.214 -0.0988  0.0097 -0.2448
24970W        W40439  10.428  14.539   2.191  0.0903 -0.1342  0.2520
24971W        W40440  15.566  12.266   1.438  0.2365 -0.3807 -0.1376
24972W        W40441   7.680   4.697  15.293  0.0726  0.0169  0.1090
24973W        W40442  13.136  15.030  13.658 -0.1892 -0.0099  0.0695
24974W        W40443  11.999   2.911  15.092 -0.2241 -0.0785 -0.3428
24975W        W40444   6.387  15.935   4.810 -0.2633  0.1428 -0.2527
24976W        W40445  10.686  14.670   0.405  0.0347 -0.0762 -0.1055
24977W        W40446   6.237   2.782  13.750 -0.3238 -0.1986  0.2808
24978W        W40447   9.710  16.208   4.326 -0.2738  0.0786 -0.0488
24979W        W40448   8.080   6.597   4.240 -0.0177  0.0514 -0.2323
24980W        W40449   1.040   0.733   2.476 -0.4337  0.0135 -0.0348
24981W        W40450  16.782  10.630   1.200 -0.2093  0.2382  0.4061
24982W        W40451  13.129   3.553   1.881  0.0371 -0.2839 -0.3558
24983W        W40452   2.364  13.330  14.497 -0.0861  0.0585 -0.0120
24984W        W40453   7.068   7.818  15.578 -0.5854 -0.0783  0.3413
24985W        W40454   6.456   9.957  15.543 -0.1112 -0.2530  0.2028
24986W        W40455   0.156   7.170  14.453  0.0943 -0.1186  0.0077
24987W        W40456  12.502   3.345  11.466 -0.1136  0.1429 -0.1761
24988W        W40457  15.828  12.225  14.515  0.1582 -0.0435  0.2274
24989W        W40458   3.756   9.494  15.704 -0.2525  0.0174  0.0706
24990W        W40459   0.723   4.955   5.298 -0.2112 -0.0191  0.1323
24991W        W40460   4.895  17.629   5.242 -0.1899 -0.1873  0.0695
24992W        W40461  10.215  13.123  12.609 -0.1362  0.0759  0.4200
24993W        W40462   2.443  15.091  14.635 -0.0588 -0.0959 -0.2877
24994W        W40463   2.390   7.745  15.212 -0.1544  0.0419 -0.2711
24995W        W40464  14.719   3.733   3.597 -0.2068  0.1964  0.2610
24996W        W40465  18.479  16.448  11.583 -0.1240 -0.1663 -0.2359
24997W        W40466   4.090   7.559  12.342 -0.1183 -0.0004  0.0135
24998W        W40467  17.575   5.220   2.749 -0.0168 -0.1133  0.0216
24999W        W40468   5.446  14.922   3.308 -0.0820 -0.0171 -0.1861
25000W        W40469  15.718   4.526   3.002 -0.1423 -0.3026  0.6124
25001W        W40470  15.510   6.731  10.862  0.0813  0.2107 -0.2868
25002W        W40471   1.328   8.787  11.290  0.1455 -0.1793 -0.0741
25003W        W40472   7.452  14.001   1.469  0.2677  0.1288 -0.0429
25004W        W40473  14.212  12.046  12.441  0.1953  0.2440  0.0081
25005W        W40474   9.623   2.333   3.258  0.0689  0.0893  0.2110
25006W        W40475   4.985   2.208   1.797 -0.0414 -0.3067 -0.2017
25007W        W40476  17.993   3.663  14.713 -0.1702 -0.1644  0.0529
25008W        W40477  12.207   5.057   5.222  0.2718 -0.0818 -0.1718
25009W        W40478  16.591  14.145   5.102  0.0701  0.4137  0.1971
25010W        W40479   2.301   8.083  14.904 -0.2248  0.0517 -0.0808
25011W        W40480  13.145  15.050   3.209 -0.1474  0.0350  0.3670
25012W        W40481  13.974  12.573   3.334  0.2093 -0.0424 -0.0928
25013W        W40482  15.721  17.168   1.299  0.1833 -0.0005 -0.2800
25014W        W40483   3.879   3.183   9.794 -0.3338 -0.0410 -0.1745
25015W        W40484   2.109   5.715   2.118 -0.4145  0.3161  0.0430
25016W        W40485  11.894  14.718   5.261 -0.4034 -0.1911  0.0137
25017W        W40486   9.413  12.410  13.084  0.1188 -0.0393 -0.3092
25018W        W40487  14.504  12.356  12.077  0.1654 -0.1311  0.1315
25019W        W40488  15.903   8.201   2.383 -0.1036 -0.1325  0.0771
25020W        W40489  15.259  12.549   3.378 -0.1890 -0.0179 -0.3995
25021W        W40490  16.364  17.579   2.692 -0.1567 -0.7190 -0.2226
25022W        W40491  11.525   7.949  13.149  0.0692 -0.1544  0.2655
25023W        W40492  16.606  10.064   2.401  0.4495  0.0980 -0.1379
25024W        W40493  15.094   9.031   2.906 -0.0825 -0.1705  0.0771
25025W        W40494   2.640  10.180   1.049 -0.0043  0.1078  0.2153
25026W        W40495   2.693  12.827   2.234 -0.0515 -0.0642  0.1915
25027W        W40496   9.964  14.581   0.069  0.1643  0.2327 -0.2544
25028W        W40497   7.797   5.737  13.303  0.2717 -0.2569  0.1486
25029W        W40498   4.496  12.112  12.411 -0.1010  0.2709  0.3480
25030W        W40499  18.237  18.294   0.353  0.4622  0.0085  0.2093
25031W        W40500  12.467   0.310  15.081 -0.1169 -0.0571 -0.0593
25032W        W40501  13.674   7.152  12.207 -0.6329 -0.0952  0.0711
25033W        W40502   6.735   8.275   4.257 -0.1028  0.0211 -0.1674
25034W        W40503   0.070  10.014  14.586 -0.0004 -0.2549  0.1046
25035W        W40504  17.883   9.279  13.086 -0.2346  0.0772 -0.3267
25036W        W40505   6.622   3.344  12.440  0.0993 -0.1659 -0.2461
25037W        W40506  10.029  17.843  15.649 -0.0110 -0.2278  0.4181
25038W        W40507  12.319  17.264  14.937  0.0429 -0.0657 -0.3520
25039W        W40508   2.608   2.914  10.759  0.1309 -0.2932 -0.1747
25040W        W40509  17.444  10.664   3.079  0.0001 -0.0508 -0.1954
25041W        W40510   1.617   6.363   0.236  0.1243  0.2406  0.1666
25042W        W40511   3.271   6.496  14.744 -0.2444  0.0280 -0.1432
25043W        W40512   3.530  11.503  11.073 -0.0808 -0.1294  0.0213
25044W        W40513   3.350  14.986   2.346 -0.3785 -0.1820 -0.1001
25045W        W40514   8.099  17.369  11.139  0.2416 -0.1070  0.2212
25046W        W40515  16.388   8.523   2.998  0.1272  0.1230  0.3794
25047W        W40516  12.721  16.404  12.244  0.0821 -0.2241  0.0528
25048W        W40517  12.691   8.737   1.041  0.1686  0.1816 -0.2520
25049W        W40518   1.342   7.807  12.996 -0.3668  0.2226 -0.1887
25050W        W40519  12.396   7.052   2.162 -0.0959  0.0525  0.2851
25051W        W40520   4.038  17.997   3.012  0.0447 -0.0937  0.3780
25052W        W40521   1.075  18.416   4.400  0.0011  0.1868  0.2139
25053W        W40522   2.193   3.619   2.694 -0.1796 -0.1328 -0.0907
25054W        W40523  12.796  17.885  11.716  0.3508 -0.1156  0.0263
25055W        W40524  15.930  17.456   2.338 -0.3141  0.0757  0.3065
25056W        W40525   3.712   0.793  11.623 -0.0335 -0.0800  0.1028
25057W        W40526  17.618   2.221  14.126  0.2695  0.0325  0.0616
25058W        W40527   7.046   4.896  10.640 -0.1958  0.1580  0.0796
25059W        W40528  10.476   3.155   1.046  0.0229 -0.1873  0.2377
25060W        W40529   9.646  10.263   3.951  0.2072 -0.0834  0.3901
25061W        W40530  12.256   6.505  15.670 -0.1838 -0.0713 -0.2797
25062W        W40531   1.202  15.839   1.480  0.1079  0.1601 -0.0387
25063W        W40532   7.528  13.515   3.200  0.0994  0.0011 -0.1331
25064W        W40533  13.684   5.027  12.692 -0.0582  0.3021 -0.3018
25065W        W40534  10.212   1.818   2.675  0.2023  0.1077 -0.1073
25066W        W40535  12.831  15.551   4.844  0.1237  0.0767 -0.1152
25067W        W40536   1.989   2.195  12.039 -0.1768 -0.2030 -0.1914
25068W        W40537  13.584   2.496   4.429 -0.0705  0.1239 -0.1611
25069W        W40538  17.397   2.565  14.792 -0.2550 -0.2182 -0.0865
25070W        W40539   0.812  17.497   3.897 -0.2547 -0.0864 -0.0489
25071W        W40540   3.595  18.256   4.747  0.0123  0.0201 -0.1568
25072W        W40541   6.226   2.352   0.005 -0.0171 -0.3268 -0.0445
25073W        W40542  14.488   0.684   3.411  0.1504 -0.3374  0.0697
25074W        W40543  16.485  15.768  13.691 -0.0145  0.1236 -0.0090
25075W        W40544  15.874   6.130  13.899 -0.0106 -0.2841  0.2047
25076W        W40545   9.170  10.594   1.163  0.0975  0.3134 -0.1621
25077W        W40546   5.303  11.602  12.759 -0.4333 -0.1003  0.0380
25078W        W40547   1.752  16.639   5.043  0.1117 -0.1052 -0.0717
25079W        W40548   7.837  17.104   1.274  0.2694 -0.1520 -0.0513
25080W        W40549  12.168   9.907   4.073  0.0671 -0.1911  0.1997
25081W        W40550  11.943  13.902  10.388  0.0028  0.2466 -0.1667
25082W        W40551  15.364   9.724  12.808  0.0143  0.1560  0.2287
25083W        W40552  12.320   2.152   2.285  0.2323 -0.2995  0.0760
25084W        W40553   0.269  15.902  11.777 -0.1424 -0.3619  0.0836
25085W        W40554   5.952  12.770  15.773  0.0486  0.0050  0.0721
25086W        W40555  18.159  16.750   0.635  0.1520 -0.1285  0.1703
25087W        W40556   8.891  11.268  14.928 -0.1278  0.2772  0.1174
25088W        W40557  13.306   9.853   4.176  0.1539  0.3265 -0.1923
25089W        W40558  15.534   9.420   2.182  0.3419 -0.1086  0.1276
25090W        W40559  14.917  15.154   3.021  0.2750  0.2148  0.0047
25091W        W40560   1.565   9.949  13.919  0.0514  0.2832 -0.0358
25092W        W40561  13.514   7.043   1.204  0.1040  0.0325  0.1818
25093W        W40562   6.268  10.949  15.415  0.1994 -0.0152  0.3743
25094W        W40563  13.439   2.737  10.990  0.0382 -0.3215 -0.0134
25095W        W40564  10.220   0.215   2.901  0.1464 -0.2235  0.2121
25096W        W40565  11.292   1.289   5.614  0.1393  0.4308 -0.0149
25097W        W40566   5.947   8.066   1.079 -0.2858 -0.0746 -0.0657
25098W        W40567  17.777   0.324  11.756 -0.0839 -0.0009 -0.1766
25099W        W40568  16.844  16.801  14.567  0.2408  0.2507  0.1663
25100W        W40569   1.861  11.739  14.915 -0.3684  0.4824  0.0636
25101W        W40570   8.767   9.856  13.335 -0.1624 -0.0533  0.0931
25102W        W40571   0.983   8.470  11.940 -0.0507  0.3705 -0.1577
25103W        W40572   8.526   5.942   3.076  0.2219  0.0654  0.0252
25104W        W40573  14.988  10.999   0.572 -0.1058  0.0536  0.0858
25105W        W40574   9.421  16.945   3.910 -0.1325  0.1016  0.3636
25106W        W40575   7.544   4.345   1.780  0.1964  0.1474 -0.3745
25107W        W40576   5.417   9.152   3.097  0.4483 -0.1328  0.0356
25108W        W40577  15.587  17.279   0.708 -0.3414 -0.1333 -0.2128
25109W        W40578   9.131  17.776   6.455  0.3901 -0.0331  0.2575
25110W        W40579   8.133   6.089  12.310  0.1099  0.1072  0.2284
25111W        W40580  17.885   3.871   1.145  0.3123 -0.0582  0.3625
25112W        W40581  12.857  17.156   4.273 -0.1070  0.0191  0.2048
25113W        W40582  13.364   0.621  14.998 -0.0300 -0.2549 -0.1376
25114W        W40583  14.563   4.893  10.849 -0.1243 -0.0122 -0.2799
25115W        W40584   2.622   5.663  12.592  0.0593  0.2117  0.0523
25116W        W40585  14.553   7.742   0.134 -0.0253 -0.0663 -0.1104
25117W        W40586  15.868   3.897  13.433 -0.1632  0.1294  0.1519
25118W        W40587   4.961   8.730  14.241 -0.0147 -0.2178 -0.0516
25119W        W40588  10.079  10.663   1.656  0.0513  0.1651  0.0779
25120W        W40589  13.998  11.208   5.161  0.0475 -0.3776  0.2307
25121W        W40590   4.562   5.415  14.339  0.0328  0.0790  0.2495
25122W        W40591   6.792   5.521  14.501  0.1580 -0.1325 -0.0508
25123W        W40592  16.363  10.440  12.576  0.1311  0.1492  0.0829
25124W        W40593  13.790   8.811   1.985  0.2126  0.2562  0.0573
25125W        W40594   1.370   2.273  15.701  0.1161 -0.1371  0.1568
25126W        W40595  17.495  15.516  11.758 -0.0012 -0.4028  0.3129
25127W        W40596   7.411  17.206   4.749  0.0576  0.0677 -0.1124
25128W        W40597  14.962   7.519  15.702  0.1295  0.1835 -0.0716
25129W        W40598   8.706   2.061  11.524  0.0383  0.2601 -0.1399
25130W        W40599   9.183  11.955   3.107 -0.0152 -0.2307  0.3334
25131W        W40600  18.276  12.113  14.487 -0.0507 -0.3936 -0.0447
25132W        W40601  17.375   3.750  12.370  0.0570  0.1929 -0.1895
25133W        W40602  12.590  10.518   4.645  0.0717 -0.0707 -0.2419
25134W        W40603  16.211  16.980  13.023  0.0091  0.1659  0.0362
25135W        W40604   8.795   5.920   0.026 -0.0097  0.1570  0.0772
25136W        W40605   5.399   2.151   0.348  0.0714  0.4543  0.0013
25137W        W40606   3.441   4.227  14.918  0.2748  0.1070  0.0471
25138W        W40607  15.521  11.959   5.368  0.1553  0.2276 -0.1958
25139W        W40608   0.591  15.936   4.136  0.1700  0.1604 -0.0492
25140W        W40609   0.233   1.691   3.371  0.1129 -0.0820 -0.3770
25141W        W40610  13.377   0.171   1.106 -0.0339  0.1968  0.1962
25142W        W40611  13.292   9.643   1.135  0.1443  0.2978 -0.2514
25143W        W40612  17.399  17.581   4.824 -0.2740 -0.1237  0.1186
25144W        W40613   7.347   5.961  10.213  0.0609  0.5423  0.1195
25145W        W40614   2.822   0.889   0.884  0.0604 -0.1861 -0.2031
25146W        W40615  16.789   0.804  12.280 -0.2187 -0.1242 -0.3867
25147W        W40616  17.788  11.119   0.839 -0.0767  0.0936  0.0485
25148W        W40617  16.676   0.081  15.552  0.1300  0.0871 -0.3725
25149W        W40618  17.555   0.629   1.421 -0.1496  0.2427 -0.0494
25150W        W40619   3.055  16.786  15.123  0.0593 -0.0910  0.1045
25151W        W40620  17.890   6.010  12.430  0.2591  0.1469 -0.1180
25152W        W40621   3.427   1.679   0.059  0.2360 -0.3103 -0.2172
25153W        W40622   4.200  12.673  15.483 -0.1198 -0.1804 -0.2418
25154W        W40623  12.255  13.408  12.148 -0.2480  0.2037  0.0136
25155W        W40624   0.817  14.469  12.070  0.1985 -0.1163  0.1466
25156W        W40625  18.003   0.557   0.612  0.2768  0.0374 -0.1444
25157W        W40626   7.892   3.238  11.458  0.2309 -0.3514 -0.1082
25158W        W40627  16.344   5.866  11.513  0.1689 -0.0909  0.1240
25159W        W40628   3.389   1.130  12.012 -0.1812 -0.0855 -0.0479
25160W        W40629  13.377   0.211   1.913  0.2030  0.0038  0.0829
25161W        W40630  15.110  17.557   2.997  0.0451 -0.0403 -0.0533
25162W        W40631  13.414   9.122  13.878 -0.2575  0.0277 -0.0900
25163W        W40632   6.956  13.032  11.429  0.4556  0.2043 -0.0189
25164W        W40633   1.045  15.160   5.056  0.1661  0.3679 -0.1356
25165W        W40634  11.433  18.191   3.801 -0.0161 -0.0811 -0.0557
25166W        W40635  15.974   1.900   0.812 -0.2455 -0.1410 -0.1940
25167W        W40636  15.905  18.010  10.174  0.1948  0.1672  0.4678
25168W        W40637   3.119   2.639  12.534 -0.0010 -0.2588  0.0109
25169W        W40638  14.563  10.325  11.195 -0.0602  0.1278  0.0300
25170W        W40639  16.436  11.768   3.793 -0.1114 -0.1708 -0.1202
25171W        W40640   6.332   2.217  13.066 -0.0577 -0.2746 -0.2620
25172W        W40641  12.245   2.325   4.136 -0.1135  0.0661 -0.0985
25173W        W40642  16.572  14.120   3.711 -0.2399  0.3441 -0.2361
25174W        W40643   3.516   3.096  10.906 -0.1164 -0.0507 -0.0818
25175W        W40644  16.736   6.123   0.563  0.2742  0.4040 -0.1209
25176W        W40645  17.112  12.710  13.671 -0.0894  0.0714 -0.0747
25177W        W40646   2.088   6.490  10.197  0.1930 -0.0576  0.0308
25178W        W40647   7.057   9.133  11.320 -0.2217 -0.2983  0.1016
25179W        W40648   4.126  18.274   4.749 -0.0962  0.0048  0.1080
25180W        W40649   9.325   6.159   2.797 -0.0134 -0.1410  0.0265
25181W        W40650  15.857  15.575  10.609  0.0347 -0.1484  0.0253
25182W        W40651   1.312   7.774   0.148  0.1168  0.0345  0.0807
25183W        W40652  16.491   8.263  15.360  0.0310 -0.2018 -0.2102
25184W        W40653  17.672   9.553   4.847  0.2528 -0.3397 -0.0765
25185W        W40654   9.567  17.576   1.544  0.1339 -0.3511  0.2935
25186W        W40655   0.442   1.457  12.890  0.1230 -0.0386  0.1216
25187W        W40656  13.877   1.030  11.473 -0.0055 -0.1876  0.1515
25188W        W40657   4.895   4.360  15.234  0.0708 -0.0022 -0.4400
25189W        W40658  16.154   1.581   4.131 -0.2222 -0.0409 -0.0532
25190W        W40659  17.167   7.510  11.169 -0.4779 -0.0393  0.0967
25191W        W40660  16.104   9.757   0.037  0.0633 -0.0602  0.1996
25192W        W40661   3.464   8.969  13.618 -0.0253 -0.0648 -0.2352
25193W        W40662  10.197  16.165   0.955  0.1772  0.0896 -0.0997
25194W        W40663  10.936   8.290   2.304 -0.2466  0.1673  0.0044
25195W        W40664  18.051   3.011   1.138 -0.0644 -0.3253 -0.1965
25196W        W40665  12.870  14.566  11.646  0.0112 -0.1218 -0.3320
25197W        W40666   5.091   5.842  15.362  0.1891 -0.1022  0.0148
25198W        W40667  13.028  13.925   2.857  0.0212 -0.3641  0.0464
25199W        W40668  13.015   1.574  11.487  0.0749  0.1326 -0.2621
25200W        W40669  15.992   5.386  12.729  0.1713  0.2611  0.0977
25201W        W40670  11.345   8.872   4.527  0.1324  0.0208 -0.1608
25202W        W40671  10.275   0.889  13.412  0.3271 -0.0073 -0.1725
25203W        W40672  14.112  17.957  14.092  0.1447 -0.0251 -0.1601
25204W        W40673   0.151  13.723   1.884 -0.3321 -0.1328  0.4447
25205W        W40674   7.495   8.154  13.167  0.1731 -0.1772 -0.1103
25206W        W40675  15.086   4.346   5.210 -0.1409  0.1965  0.0756
25207W        W40676   1.316   3.876   2.331  0.0821 -0.1123  0.1120
25208W        W40677   1.171  13.295   3.109  0.3108  0.3074  0.2273
25209W        W40678   3.071   9.785   0.505 -0.1029 -0.2290 -0.1896
25210W        W40679  14.581   6.886  14.650 -0.0664 -0.5569  0.1568
25211W        W40680   6.763  14.601   2.388  0.0220 -0.0638  0.2126
25212W        W40681   4.688  17.910  14.519  0.0509  0.0985 -0.1566
25213W        W40682   6.908   9.891  15.777  0.0805  0.2745  0.1609
25214W        W40683  18.519   8.512   2.858  0.1217 -0.1010  0.2337
25215W        W40684  11.944   2.957  12.251 -0.0050  0.2241 -0.0398
25216W        W40685   5.276   0.033  13.736 -0.3429 -0.0967 -0.2837
25217W        W40686  17.645  17.286  12.488  0.2154  0.0955  0.0654
25218W        W40687  17.312   6.859  13.410  0.2134  0.1442 -0.2202
25219W        W40688  11.359   9.262  13.102  0.0614  0.0753 -0.3799
25220W        W40689  15.562  18.360   3.188 -0.0766 -0.3261  0.4160
25221W        W40690  17.989   0.680  14.327  0.0916  0.1523  0.2226
25222W        W40691   8.426   0.487   3.933 -0.1325 -0.0960  0.0130
25223W        W40692   1.549  16.975   0.016 -0.0158 -0.5272  0.1405
25224W        W40693   2.139   7.264  13.790 -0.0573 -0.0116  0.0552
25225W        W40694   7.664  17.928   4.737  0.1417 -0.4681 -0.1013
25226W        W40695  14.802   4.132  12.119  0.1021 -0.1873  0.1628
25227W        W40696   9.101  10.544   3.841 -0.4434  0.3610 -0.1635
25228W        W40697   1.127  14.907   4.554  0.3118 -0.0006  0.1458
25229W        W40698   4.863  11.313   9.628  0.2107  0.2060 -0.1788
25230W        W40699  12.553   6.917   1.251  0.1306 -0.1645 -0.1081
25231W        W40700  18.429  16.772   3.327  0.0442  0.2149 -0.2955
25232W        W40701   4.150   1.947  13.386 -0.0343 -0.5598  0.3241
25233W        W40702  14.791   1.231   1.157 -0.0001  0.1662 -0.1883
25234W        W40703  15.148   1.307   6.051 -0.1169  0.3910 -0.1434
25235W        W40704   1.139  15.665  13.728 -0.1159  0.0361 -0.3333
25236W        W40705  11.632  12.059   2.008  0.0563  0.0012 -0.0262
25237W        W40706   3.223   5.762  13.258 -0.1723 -0.3015 -0.1066
25238W        W40707  16.341   0.462   5.618  0.0501  0.3071  0.1022
25239W        W40708   1.302   5.364  11.464  0.2060 -0.0087  0.0132
25240W        W40709   5.931   1.166   2.958  0.0180 -0.0051 -0.1681
25241W        W40710  14.228  10.892   3.320 -0.2422  0.1853  0.3623
25242W        W40711  18.209   7.170   3.418 -0.2780 -0.4214  0.0683
25243W        W40712   6.280  15.548  14.436 -0.0929  0.0869 -0.2394
25244W        W40713  12.760  10.830   4.110 -0.0900  0.1985  0.0170
25245W        W40714  12.649  13.293   0.622 -0.1728  0.1546 -0.1228
25246W        W40715  15.357  13.281  11.935 -0.0131 -0.2380 -0.1154
25247W        W40716  10.922  17.095  12.874  0.1056 -0.0065 -0.2028
25248W        W40717   5.385   0.300   1.047 -0.0216  0.0742 -0.1413
25249W        W40718   0.074   2.388  14.666  0.0294  0.2371 -0.0475
25250W        W40719  13.146  13.846   3.768  0.2925 -0.1941  0.2399
25251W        W40720   3.615  12.823  10.420 -0.1985  0.0507 -0.1264
25252W        W40721   5.674   0.478  12.321 -0.2286 -0.1391 -0.0647
25253W        W40722   5.121   8.894   1.606 -0.1350 -0.0993  0.0488
25254W        W40723   5.757   8.967   6.031  0.0178  0.1077  0.0101
25255W        W40724   6.544  18.449   1.575 -0.0984  0.1743 -0.1439
25256W        W40725  12.232  10.072  11.841 -0.3249 -0.2963 -0.0070
25257W        W40726  10.971   4.292  11.400  0.4646 -0.1355  0.0500
25258W        W40727   2.375  12.214   1.121 -0.4655 -0.2103  0.0181
25259W        W40728   5.745   8.869  15.395 -0.3470  0.1383  0.0635
25260W        W40729   4.505  13.151  11.034 -0.0928  0.0773  0.0976
25261W        W40730   6.060  13.561  13.316  0.0685  0.2109 -0.1435
25262W        W40731  15.395   7.952  15.525 -0.0588 -0.0373 -0.3590
25263W        W40732   8.701  15.811   2.795  0.2399  0.1791  0.1404
25264W        W40733  10.314   2.771   0.087  0.1182 -0.0273 -0.0863
25265W        W40734   7.320   1.773  15.056 -0.3080 -0.0435  0.2706
25266W        W40735   6.234  11.312   4.552  0.0088 -0.1301 -0.0539
25267W        W40736   0.049   5.387  15.459  0.0370 -0.1106  0.0563
25268W        W40737  18.081   1.519   0.748 -0.2036  0.0684 -0.1450
25269W        W40738  16.041   9.017   4.637  0.3661 -0.3128 -0.2310
25270W        W40739  11.235   7.284  11.782  0.4276  0.1528  0.1764
25271W        W40740  18.101   1.500   1.951  0.1328 -0.0454  0.1155
25272W        W40741  18.040   6.754   1.858  0.3047  0.0569 -0.0324
25273W        W40742  12.697  14.699   1.792  0.1893  0.2821  0.2264
25274W        W40743   9.018   0.382  13.674 -0.1974 -0.4124 -0.2464
25275W        W40744   7.938   8.732  13.303 -0.1771  0.1997 -0.0646
25276W        W40745   1.181   6.944  14.382 -0.0761  0.0291 -0.2520
25277W        W40746  11.079   7.739   1.137  0.0295  0.1010  0.2857
25278W        W40747   8.467   8.160   5.046  0.2709 -0.5505  0.2235
25279W        W40748  11.123  16.195   0.864  0.0457 -0.3683 -0.3437
25280W        W40749   3.620   0.862   1.322  0.0754 -0.0527 -0.2909
25281W        W40750  14.099   2.724  12.298  0.0148 -0.2490 -0.1323
25282W        W40751   3.873  11.790   2.724 -0.1328  0.0401  0.0800
25283W        W40752   9.310   3.889   1.503 -0.2118  0.1951 -0.0334
25284W        W40753   1.136   2.848  14.971  0.0717 -0.2617  0.2528
25285W        W40754  17.741  14.979  15.221 -0.2474  0.0378 -0.0728
25286W        W40755  17.290  13.366   3.269  0.1387 -0.1403 -0.2502
25287W        W40756  12.699  12.821  13.470  0.4957  0.0093  0.3166
25288W        W40757  14.507   1.192   4.280  0.0273  0.1679  0.2780
25289W        W40758   2.369  15.719   5.565  0.0431  0.0521  0.1574
25290W        W40759   5.114   4.537   2.164 -0.2350 -0.3282 -0.3290
25291W        W40760   5.950  17.719   2.367  0.0194 -0.1198 -0.0154
25292W        W40761   2.462   1.555  15.602 -0.1441  0.0893  0.3555
25293W        W40762  16.466   0.020  10.697 -0.0449  0.1986 -0.2397
25294W        W40763   2.697   2.841  12.312  0.3912 -0.0652 -0.0212
25295W        W40764   8.944  11.452   4.812 -0.2140 -0.1414 -0.2720
25296W        W40765   3.100  12.875   0.459  0.2751  0.0692  0.0067
25297W        W40766   3.012   9.235   1.761 -0.0370  0.1369 -0.0924
25298W        W40767  14.283   3.627   1.103  0.0504  0.1478 -0.0755
25299W        W40768   6.649  16.613  15.730 -0.1639  0.0606 -0.0308
25300W        W40769   0.169   4.640   3.673  0.3503 -0.1218  0.0693
25301W        W40770   3.127  14.010   4.217  0.1575  0.0395 -0.0284
25302W        W40771   8.049   1.160  13.445 -0.0617 -0.0902 -0.0662
25303W        W40772   3.604  16.040   4.111  0.1965 -0.2237 -0.1030
25304W        W40773  13.316   6.838  14.514  0.0146  0.0455 -0.0874
25305W        W40774   5.315   5.027   2.307  0.2733 -0.0640 -0.1303
25306W        W40775   2.805   6.248  14.933  0.1472 -0.0446 -0.0202
25307W        W40776   8.817   6.957  15.673 -0.1902 -0.0807  0.1581
25308W        W40777  15.209   2.121  13.626  0.2013  0.0736  0.2150
25309W        W40778  11.901  16.861   2.580  0.4109  0.3986 -0.0866
25310W        W40779   7.016   8.050  12.396 -0.2142  0.1930 -0.2183
25311W        W40780   9.943  13.248  14.045  0.2310 -0.1365  0.0732
25312W        W40781  10.220  16.649   0.099  0.1343 -0.0463 -0.0261
25313W        W40782   5.834  15.277  11.175 -0.2381  0.0700 -0.0162
25314W        W40783  12.429  11.327  12.291 -0.0721  0.1340 -0.2664
25315W        W40784   5.454  13.235  11.868 -0.1722  0.2427 -0.0535
25316W        W40785  13.338  13.319   4.710  0.0073 -0.0019  0.0864
25317W        W40786  15.395  14.077  14.741 -0.2483 -0.3773  0.3013
25318W        W40787  12.567   6.187   4.582 -0.0519  0.0591 -0.0387
25319W        W40788   5.850  17.186  15.689  0.0040 -0.1099  0.1965
25320W        W40789  15.509   6.933   0.398  0.0910  0.0183 -0.0518
25321W        W40790  12.938   1.465   1.321 -0.2384 -0.1042  0.1652
25322W        W40791  11.697   1.939   5.352 -0.2184 -0.1669 -0.1585
25323W        W40792   3.655   8.986   4.334  0.4145 -0.1325  0.0667
25324W        W40793  16.468   4.287   2.709  0.2753  0.1747 -0.2285
25325W        W40794   2.799  15.987   5.648  0.4299 -0.1996 -0.2415
25326W        W40795  16.598   5.279  14.749 -0.0728  0.1449  0.0796
25327W        W40796   6.744  12.705   2.393  0.0257 -0.0330 -0.0487
25328W        W40797  17.750   4.789  10.075  0.2718  0.2892 -0.0798
25329W        W40798  17.672   8.857  15.386  0.0253  0.0045  0.1785
25330W        W40799   1.169  18.045  12.315 -0.1407  0.2614  0.2061
25331W        W40800   6.802  12.958  14.885  0.2715 -0.0746  0.0666
25332W        W40801   3.239  10.825  10.345  0.0651 -0.3489 -0.0036
25333W        W40802   7.252   5.869  12.193 -0.0465 -0.0897 -0.4694
25334W        W40803   4.147   0.457  14.367 -0.0508 -0.0477  0.1293
25335W        W40804   4.504  14.029  13.938 -0.0172 -0.0549 -0.0991
25336W        W40805  10.195  11.164   1.939 -0.0104 -0.1445 -0.1499
25337W        W40806   5.286   4.177   1.705  0.2665 -0.3022  0.1325
25338W        W40807  14.547   4.944   0.728  0.1530  0.0790 -0.0651
25339W        W40808   2.790  12.130  15.306 -0.2040  0.3523 -0.1446
25340W        W40809   2.935   9.608   4.730  0.0958 -0.1719 -0.2540
25341W        W40810   9.661  18.595   4.589  0.2536  0.1417 -0.0958
25342W        W40811   0.512   9.641  10.806  0.2417  0.2154 -0.1946
25343W        W40812  17.031   3.814  15.472  0.4209  0.0358 -0.1060
25344W        W40813   9.787  12.742   4.233  0.1224  0.0848  0.2678
25345W        W40814  17.110  18.102   0.245 -0.0550 -0.0893  0.0912
25346W        W40815  10.525  12.726  11.649  0.1286  0.1880 -0.0639
25347W        W40816   2.151  15.283   2.197 -0.0174  0.0438 -0.2725
25348W        W40817   8.461   4.917  12.802  0.0122  0.1607 -0.2375
25349W        W40818  10.742  15.320   0.669  0.1042  0.1342 -0.1307
25350W        W40819  15.258   2.016  10.901  0.0429  0.0537 -0.0518
25351W        W40820   1.680   2.424   3.812  0.0243 -0.0172 -0.1750
25352W        W40821   7.393   4.753  14.044 -0.3925 -0.2470  0.2666
25353W        W40822  14.716   0.041  14.976 -0.1947 -0.0578 -0.0226
25354W        W40823   0.835   8.329   4.708 -0.2519 -0.0281 -0.1674
25355W        W40824   4.199  12.690   1.176  0.0811 -0.3157  0.0320
25356W        W40825   9.982  13.034   5.077 -0.0561  0.0064  0.1933
25357W        W40826   1.305   5.160   4.209  0.1335 -0.1678 -0.1421
25358W        W40827   8.518   3.107   2.404 -0.2306 -0.2221 -0.1071
25359W        W40828  18.555   0.214  12.482 -0.0191  0.1764  0.1120
25360W        W40829  14.051   8.444   1.751  0.0943 -0.1026  0.1958
25361W        W40830   7.818   1.835   0.192 -0.0502  0.1128  0.4915
25362W        W40831  15.549  14.196  12.638 -0.2480 -0.0137  0.3171
25363W        W40832  15.853   6.047  14.744  0.2917  0.0477  0.6726
25364W        W40833  12.941  13.437  14.974  0.1171 -0.0973  0.0394
25365W        W40834   2.432  10.637  10.685 -0.2436 -0.1588  0.2813
25366W        W40835   5.619   6.099   4.732  0.0051 -0.0903 -0.0762
25367W        W40836   4.125   4.489  15.592 -0.2520  0.1213 -0.0283
25368W        W40837  12.472   6.512   9.935 -0.1179 -0.0092  0.1543
25369W        W40838   3.467   6.412   4.347 -0.2315 -0.4156 -0.1929
25370W        W40839   9.666  14.582   3.496  0.1065  0.0124 -0.0175
25371W        W40840   3.236  18.233  14.704 -0.4509  0.0201 -0.1751
25372W        W40841  12.167   5.880  15.758 -0.1880  0.1730 -0.1995
25373W        W40842  12.625   8.419   5.052  0.2919  0.2019 -0.0527
25374W        W40843   8.589  18.328  11.882  0.0836  0.1045 -0.0074
25375W        W40844  12.456   3.970   2.525  0.0515 -0.1327  0.0005
25376W        W40845  17.322  12.007  14.281  0.4784 -0.2303  0.5024
25377W        W40846  11.012  14.560  12.048  0.2325  0.1792  0.1333
25378W        W40847   0.120   1.004   2.903 -0.0109 -0.0759  0.1239
25379W        W40848   4.295   6.569   5.053  0.0584 -0.0164 -0.1066
25380W        W40849   0.790  12.868   4.376 -0.0104 -0.1080 -0.0170
25381W        W40850   9.743   9.118   2.162  0.0637  0.0250  0.0223
25382W        W40851  15.503   1.524   2.115 -0.1575  0.0886 -0.0683
25383W        W40852   4.932   2.300  13.822  0.2207  0.3299  0.0918
25384W        W40853   0.636  14.721   1.226  0.3598 -0.1710 -0.1391
25385W        W40854   5.544   8.452   0.330 -0.0427  0.1432 -0.0694
25386W        W40855   4.021  12.764  12.367 -0.1575  0.4079 -0.1183
25387W        W40856  15.352   6.776   2.612  0.2434 -0.1002 -0.2399
25388W        W40857   0.086  16.090   3.980  0.3072  0.1382 -0.1481
25389W        W40858  10.920   3.943   5.528  0.3874  0.3054  0.0611
25390W        W40859  10.927   1.756   2.083 -0.1386  0.1488 -0.0004
25391W        W40860  15.773  15.844  11.110 -0.1184  0.1044  0.0597
25392W        W40861   2.714  14.452   3.256  0.3812 -0.0640 -0.3938
25393W        W40862  15.969   2.149  11.493 -0.1176  0.2248 -0.0266
25394W        W40863   5.745  11.430   4.429  0.1529  0.2450  0.2463
25395W        W40864   1.724   4.521  14.943  0.2220 -0.1092 -0.0197
25396W        W40865   0.750  15.608   2.879  0.0446  0.2786  0.0387
25397W        W40866   7.498  14.370   4.428 -0.2306 -0.0608  0.0638
25398W        W40867  17.567   6.469   3.156 -0.0714  0.0367  0.2414
25399W        W40868  11.512   0.938   0.217  0.0939  0.1682 -0.1609
25400W        W40869  12.839   9.952  15.298 -0.2310  0.0234 -0.1524
25401W        W40870   4.843  11.236   0.071  0.3367  0.0197 -0.1484
25402W        W40871   0.625   1.575  11.710  0.1216 -0.4431 -0.0792
25403W        W40872  13.109  13.815  15.193  0.0256 -0.0221  0.0003
25404W        W40873   5.856   5.971   2.491 -0.5002  0.0217  0.0707
25405W        W40874   9.101   1.435   5.247  0.2842  0.4108 -0.0243
25406W        W40875  12.415  14.901   2.138 -0.3056 -0.0266  0.3571
25407W        W40876  15.428   9.191   3.489 -0.1351  0.0669 -0.0303
25408W        W40877   5.569  17.325  12.995 -0.2425  0.1847  0.0078
25409W        W40878   3.645   5.411   3.540  0.1432 -0.3029 -0.0381
25410W        W40879   7.833  16.737   3.332 -0.0931 -0.0461  0.2565
25411W        W40880   0.798  17.755  14.914  0.0234  0.1389 -0.3029
25412W        W40881  17.970  17.396   2.005 -0.1895 -0.2451  0.1544
25413W        W40882  10.324  18.268   0.131  0.1613  0.0542  0.2613
25414W        W40883   1.127   7.111  10.954 -0.0674 -0.1655  0.0420
25415W        W40884   5.551  16.774   3.399  0.2035  0.0796  0.0690
25416W        W40885  12.329  13.712   4.065 -0.4136 -0.0369 -0.1445
25417W        W40886   1.066   1.001  13.102 -0.1167  0.0966  0.2342
25418W        W40887  17.149   5.603  10.386  0.0214 -0.3680  0.0086
25419W        W40888  17.070  12.841   4.727  0.2479  0.2866 -0.0311
25420W        W40889   9.073   7.092   1.204 -0.1562  0.0959  0.2570
25421W        W40890  14.233   4.197   4.596 -0.2356  0.4707  0.1409
25422W        W40891   2.718  14.305   9.912  0.4448  0.1932  0.2775
25423W        W40892   1.138   5.055   9.200 -0.1642  0.0767 -0.0536
25424W        W40893  14.521   4.457   0.457  0.0421  0.0614  0.2521
25425W        W40894  17.385   5.244  10.652  0.2549  0.0337 -0.1700
25426W        W40895   1.030   1.563   2.922  0.4982  0.1506  0.1836
25427W        W40896  12.543  13.461   0.151 -0.2068  0.5043 -0.0855
25428W        W40897   2.624  15.175  14.061  0.1485 -0.1156 -0.1114
25429W        W40898   0.609  15.787  13.803 -0.3520  0.1476 -0.1624
25430W        W40899   4.406  15.266   0.858 -0.0215 -0.2593  0.0847
25431W        W40900  10.699   1.814   4.616  0.0931  0.2924 -0.3145
25432W        W40901   0.576   3.885   0.529 -0.1116  0.2160 -0.2188
25433W        W40902  16.178  16.423  14.002 -0.2660  0.1840 -0.0960
25434W        W40903   6.250   4.748   3.702  0.3674  0.0894 -0.2339
25435W        W40904   3.043   1.499   2.802  0.1591 -0.2207  0.1403
25436W        W40905   5.105   9.042   4.722  0.0922  0.2253  0.3040
25437W        W40906   3.640   0.472  11.154  0.3429 -0.0216  0.1950
25438W        W40907  15.517   9.444   2.753  0.0050  0.2726 -0.1480
25439W        W40908  17.947   4.003  11.428  0.0784 -0.0857  0.0834
25440W        W40909  17.923  10.349   2.890  0.0616 -0.1310 -0.1953
25441W        W40910   9.011   2.620   1.333  0.0593  0.0929 -0.1364
25442W        W40911  14.938  13.356  12.521 -0.2380  0.0211 -0.0287
25443W        W40912   9.824  13.408  11.151  0.1198  0.3827  0.2051
25444W        W40913   8.143  10.222  15.687 -0.0159  0.0043  0.2287
25445W        W40914  14.723  15.407  12.525 -0.2090  0.1075  0.2568
25446W        W40915  11.144  17.580   5.761  0.3489 -0.1192  0.1356
25447W        W40916   3.287   4.984   2.596 -0.1087  0.0510 -0.0824
25448W        W40917  11.135   8.936  14.153  0.2423 -0.3539  0.0877
25449W        W40918   0.493  11.057  15.571 -0.1741  0.2694  0.1287
25450W        W40919  11.512  14.581   3.261  0.2609 -0.0313  0.1515
25451W        W40920   4.733  14.866   4.371 -0.2068  0.0035 -0.0850
25452W        W40921   4.805  16.185   2.446 -0.0742  0.0645 -0.0008
25453W        W40922  10.651   4.685  11.303 -0.0591 -0.3369  0.2468
25454W        W40923   8.924  15.534   0.370 -0.2511  0.1246 -0.1152
25455W        W40924   2.414  12.727  11.789  0.2089 -0.3617 -0.2828
25456W        W40925   4.705   9.954   3.771  0.0649  0.1776 -0.1453
25457W        W40926   0.657  12.067  12.229  0.1430  0.1183  0.1889
25458W        W40927   7.297   4.934   4.186  0.2613  0.2570 -0.2344
25459W        W40928  13.078   7.630   3.424 -0.1786  0.0755 -0.0820
25460W        W40929  10.243   7.712   3.311  0.3563 -0.1921 -0.3634
25461W        W40930   3.886   9.484   3.365 -0.1827  0.1232  0.0104
25462W        W40931  16.480   8.206   0.958  0.4230  0.0798 -0.1067
25463W        W40932   7.113   3.291   0.330  0.0263  0.0063  0.1251
25464W        W40933   2.530  17.189   4.783  0.0126  0.4033  0.0469
25465W        W40934   8.582   8.237   2.503 -0.0973 -0.1223 -0.0668
25466W        W40935   2.459   7.552   3.969  0.0998 -0.0956 -0.1413
25467W        W40936  14.409  10.274  14.106 -0.1281 -0.2799 -0.1057
25468W        W40937   7.089   2.853  11.908  0.3354 -0.0065  0.2372
25469W        W40938   5.364  16.778  11.129 -0.0237  0.1380 -0.1681
25470W        W40939   6.482   3.540   4.425 -0.1727  0.0814  0.0005
25471W        W40940   6.498   2.587   0.855  0.3399  0.3008 -0.2083
25472W        W40941  16.543  13.026  13.657 -0.1025  0.2176  0.0072
25473W        W40942   1.709   6.059  13.270  0.0331  0.1054 -0.0321
25474W        W40943   8.238  18.371  12.765 -0.3169  0.0670  0.1993
25475W        W40944   2.910   1.369  14.091  0.0639  0.1590 -0.0011
25476W        W40945  13.181   8.711  12.911  0.0592  0.0961 -0.2216
25477W        W40946   1.253  10.984   1.801  0.0100 -0.1999  0.1023
25478W        W40947  11.629   5.093   4.513 -0.4771 -0.0598 -0.2953
25479W        W40948   1.244  15.205  13.476 -0.2282 -0.4900  0.0628
25480W        W40949   4.434  14.975   0.523 -0.0700  0.1160  0.2621
25481W        W40950   3.547   9.971  12.571 -0.4022 -0.1076 -0.1431
25482W        W40951   2.005  16.066   1.694  0.1990  0.2744  0.0932
25483W        W40952  16.881   6.874   3.658 -0.1502  0.0852  0.0582
25484W        W40953  14.699  11.339  14.228  0.1696  0.0268 -0.1793
25485W        W40954   7.522  15.842  12.664  0.2209 -0.1321  0.1549
25486W        W40955  15.989  13.044  13.512 -0.2265 -0.4580  0.0978
25487W        W40956   5.264   8.816  13.555  0.4349  0.1133 -0.1406
25488W        W40957  14.698  14.456   0.450 -0.0880 -0.1202 -0.1563
25489W        W40958  16.515   9.660   2.162  0.3607  0.0394  0.3010
25490W        W40959  14.470  15.660  14.705 -0.0953 -0.0642  0.0504
25491W        W40960   4.647   2.726  14.724  0.0182  0.0054  0.0357
25492W        W40961  12.526  16.561   0.927 -0.0311 -0.0790  0.0288
25493W        W40962  18.454   2.727   3.694  0.3751 -0.1105 -0.0632
25494W        W40963   1.114  12.886   4.805  0.1172  0.0226  0.0774
25495W        W40964   6.100  11.962  15.701 -0.0387  0.0760 -0.2166
25496W        W40965   6.912  13.520   2.567  0.1645 -0.0701 -0.1739
25497W        W40966  18.512   5.956  15.425 -0.4156 -0.0861  0.0899
25498W        W40967  13.063   1.295   0.142 -0.0168 -0.0298 -0.3046
25499W        W40968   4.469   3.770   1.861  0.0721  0.0011  0.0843
25500W        W40969   4.629   2.303   4.743  0.2577 -0.2748 -0.3273
25501W        W40970   1.588  12.681   4.785 -0.1109  0.2331 -0.1170
25502W        W40971   7.638   8.365   1.600 -0.0987  0.1243  0.2282
25503W        W40972  17.577   7.928   5.317 -0.1945  0.0298  0.3307
25504W        W40973  11.988  12.743   1.120  0.1542 -0.0954  0.1958
25505W        W40974  11.866  13.395  15.429  0.0239 -0.0510  0.0632
25506W        W40975  18.535   0.651  15.553 -0.1344 -0.5102  0.0221
25507W        W40976   1.796  14.300  12.898  0.0405  0.0303 -0.0763
25508W        W40977  12.542  11.639  14.908  0.2596 -0.0613 -0.2470
25509W        W40978  10.385  18.415   4.074  0.0793  0.2726  0.1990
25510W        W40979   0.358   2.666  10.386  0.1086 -0.0976 -0.0338
25511W        W40980  15.432  13.460  12.555 -0.5011 -0.4703  0.0154
25512W        W40981  18.619   6.920   4.700 -0.0338 -0.0043 -0.0172
25513W        W40982  15.308  15.299   4.520 -0.1663 -0.1535  0.1520
25514W        W40983  13.551  14.036  11.264 -0.2048 -0.2039 -0.4292
25515W        W40984   0.545   1.636  13.502  0.1081  0.2365  0.0983
25516W        W40985   4.464  16.662  11.752  0.0299  0.0234  0.3487
25517W        W40986   9.824   9.041  12.794  0.0948  0.1369  0.3436
25518W        W40987   7.359  17.487   3.366 -0.2614  0.2298  0.2707
25519W        W40988  10.191   4.336  11.276 -0.1409  0.3405 -0.0557
25520W        W40989   1.720  16.328   3.075 -0.1417  0.1352 -0.1084
25521W        W40990   0.968  10.668  14.453  0.1597 -0.2915 -0.1655
25522W        W40991   2.369  17.397   3.114 -0.0738  0.0099  0.2201
25523W        W40992  14.946   2.386   9.995  0.0015 -0.0708 -0.0605
25524W        W40993   5.343  13.792  10.322 -0.3193  0.0774 -0.0328
25525W        W40994   9.026   8.841  15.247  0.3261  0.4467  0.3255
25526W        W40995   4.791   3.052   3.739 -0.1670 -0.0012  0.0590
25527W        W40996   6.802  15.821  11.927  0.1645 -0.0490  0.1673
25528W        W40997   6.878   5.621  12.776 -0.1554 -0.2165  0.3697
25529W        W40998  18.525  17.325  12.209 -0.1610 -0.1441  0.0930
25530W        W40999  12.308   0.944   5.310 -0.0664 -0.1076 -0.4377
25531W        W41000  12.130   6.810  10.566 -0.0943 -0.1541  0.3526
25532W        W41001  10.531   0.028   0.446  0.0766  0.0278 -0.1158
25533W        W41002  14.516  17.146   3.418 -0.0732 -0.0793 -0.0325
25534W        W41003  15.043  13.865  12.530 -0.3109  0.1825  0.1706
25535W        W41004  16.471  15.339   5.653 -0.0412  0.1592  0.2985
25536W        W41005  18.163   8.316  14.680  0.4094  0.1450  0.2045
25537W        W41006   7.226   1.696  13.226 -0.1456 -0.0227 -0.1410
25538W        W41007  18.150  16.218   4.160 -0.2480  0.0301 -0.1733
25539W        W41008   7.930   9.223  13.895 -0.0724 -0.2215 -0.1983
25540W        W41009   9.317   1.041  13.146  0.1897  0.0048 -0.4564
25541W        W41010   0.366   2.034   3.714  0.2386 -0.1447 -0.3875
25542W        W41011   1.390   0.448  11.528 -0.2698 -0.3345  0.2896
25543W        W41012   4.780  16.928  13.863 -0.3371 -0.0112 -0.1507
25544W        W41013  11.475  10.151  12.490 -0.1990  0.2343  0.2285
25545W        W41014  11.469   2.212   0.860 -0.0228 -0.0273 -0.1571
25546W        W41015   1.134   0.684  13.480 -0.0646  0.4003  0.0150
25547W        W41016  12.846   0.840   0.121 -0.1426  0.2609  0.2256
25548W        W41017   5.506   9.274   0.468 -0.1497  0.0002  0.0956
25549W        W41018  12.946  13.020  11.576  0.1006 -0.2084  0.0272
25550W        W41019   0.394   6.712  10.744  0.4449 -0.0425 -0.0809
25551W        W41020   7.756   4.409  12.920 -0.3454 -0.1883 -0.0499
25552W        W41021   9.234   8.460   4.504 -0.0409 -0.4615  0.0018
25553W        W41022   7.969  17.408   2.605  0.3358  0.1841  0.0163
25554W        W41023  12.408   4.138   1.454 -0.0874 -0.0259 -0.0855
25555W        W41024   0.414   2.055   1.597  0.0163  0.4350  0.0307
25556W        W41025   8.760  14.378   3.009 -0.0238 -0.2104  0.1159
25557W        W41026   4.411   2.696   1.200 -0.1248  0.2362 -0.1945
25558W        W41027   8.103   9.597  12.499  0.1010  0.1790  0.0075
25559W        W41028   0.481   4.011  12.353 -0.0558  0.0846  0.0783
25560W        W41029   3.994   9.746  10.298  0.2712 -0.2853 -0.0339
25561W        W41030  16.322  14.207   0.043  0.1754 -0.0574  0.0496
25562W        W41031   2.757   5.144   3.484  0.0688 -0.0104  0.0621
25563W        W41032  12.718  10.949   3.485  0.1620 -0.1389  0.0665
25564W        W41033   0.325  16.392   2.475 -0.0089  0.2038 -0.2218
25565W        W41034  10.479  13.864  10.989  0.3859 -0.0692  0.2515
25566W        W41035  11.352  15.356   4.872  0.0248 -0.4656  0.1500
25567W        W41036  13.971   1.841  14.257  0.3880  0.0682 -0.1364
25568W        W41037   9.995  13.703   0.379 -0.0609  0.0793 -0.2709
25569W        W41038  14.255   8.071  10.880 -0.0135  0.1520 -0.2285
25570W        W41039   5.132  15.578   3.929 -0.0503  0.1552  0.0578
25571W        W41040   4.814  18.403  10.922 -0.2548 -0.0505 -0.1704
25572W        W41041   4.812  13.319  11.414 -0.0705  0.1099  0.4828
25573W        W41042  13.148   1.839   4.675  0.0423  0.1771  0.1179
25574W        W41043  11.095   8.466  11.343  0.0474  0.1010  0.2502
25575W        W41044   2.271   8.957  12.219 -0.1412  0.1539 -0.0590
25576W        W41045   7.740  13.632   1.144  0.2669 -0.1385  0.1527
25577W        W41046  13.358  12.540  14.799 -0.0198  0.0215  0.0655
25578W        W41047  11.970   6.888   4.165  0.1353 -0.0467  0.1661
25579W        W41048   8.311   3.421   5.662  0.0652 -0.5464 -0.1446
25580W        W41049   0.706   1.520   3.361 -0.4894  0.2068 -0.1610
25581W        W41050   9.830  15.149   5.449  0.2661 -0.0133 -0.3209
25582W        W41051   7.355   1.679  11.299  0.1615 -0.0914  0.0219
25583W        W41052  16.978   4.237  11.364 -0.0269  0.0158 -0.1587
25584W        W41053  12.171  10.208  11.260  0.0863 -0.0998  0.0364
25585W        W41054  14.657  17.945  11.666 -0.1311  0.1432 -0.3925
25586W        W41055   4.698   1.558  11.521 -0.1835 -0.0194 -0.2361
25587W        W41056  13.200   4.014  11.951 -0.3400  0.1518  0.1745
25588W        W41057  14.045   5.752   1.331  0.2482  0.1334  0.0393
25589W        W41058   8.047  14.745   2.622  0.0180  0.0382 -0.0234
25590W        W41059   2.630   7.604   4.642  0.1480  0.1539  0.1117
25591W        W41060   3.854   9.492  15.245 -0.1045  0.1268 -0.0764
25592W        W41061   6.380  18.478   4.245  0.2122 -0.1125 -0.4268
25593W        W41062  16.475   1.587   3.594 -0.0447  0.0109 -0.3210
25594W        W41063  17.675  15.304   4.053 -0.0678  0.1789  0.1144
25595W        W41064  14.984  11.317   1.782 -0.2649 -0.1196  0.2873
25596W        W41065   3.068   2.367   3.289  0.2220  0.2913  0.1515
25597W        W41066   2.459  11.998   1.939  0.0503 -0.0051  0.1585
25598W        W41067   9.919   7.008   5.753  0.2202  0.1226  0.1391
25599W        W41068  10.014   2.520   5.435 -0.0636  0.0320 -0.1481
25600W        W41069   1.591   0.155  12.795  0.0604 -0.2068 -0.1922
25601W        W41070  13.914   0.542   1.815  0.2192  0.0649  0.1452
25602W        W41071  16.415   6.133  15.125  0.1811  0.3533  0.1320
25603W        W41072  10.597   9.464  14.685  0.0167  0.0108  0.4638
25604W        W41073   9.598   7.902  13.743 -0.0549  0.0617  0.1478
25605W        W41074   5.371   4.760   3.552 -0.0082  0.1793  0.0304
25606W        W41075  16.741   8.965  13.469 -0.0892 -0.0252 -0.1807
25607W        W41076   7.916  10.147  10.622  0.1865  0.1221 -0.0313
25608W        W41077  16.828   4.298  11.875 -0.0381 -0.1998  0.2351
25609W        W41078   5.850   9.491   3.242  0.1946 -0.0322 -0.0539
25610W        W41079   4.010   0.902   0.324  0.1328 -0.1488  0.3479
25611W        W41080  10.084   3.249   0.736 -0.0826  0.1247  0.0007
25612W        W41081  18.236  11.388  15.733  0.0429 -0.1158  0.3015
25613W        W41082  11.460  12.232  12.436  0.0926  0.1625 -0.0826
25614W        W41083  10.497  11.931  15.283 -0.1945  0.3929  0.1301
25615W        W41084   9.049  15.953   0.701  0.4058  0.1289 -0.2355
25616W        W41085  16.676  16.788  12.151 -0.1118  0.0950  0.2144
25617W        W41086  17.461   4.474   4.203 -0.1187  0.2759 -0.1522
25618W        W41087  12.841   3.285  14.101 -0.2494  0.0910 -0.0208
25619W        W41088   9.026   6.497  12.787 -0.2086  0.0592 -0.1880
25620W        W41089  17.658  17.852  13.121  0.0220 -0.1195 -0.0201
25621W        W41090  12.882  17.630   2.900  0.0754  0.0775  0.0147
25622W        W41091   0.922   0.748   1.989  0.0476 -0.2565  0.0094
25623W        W41092   6.240   6.641   4.119 -0.0862  0.1210  0.0689
25624W        W41093   1.037  14.610  14.561 -0.2812  0.1398 -0.1151
25625W        W41094   3.729  12.099   3.598  0.0022 -0.3531 -0.3022
25626W        W41095   8.283  11.719   3.549  0.1039  0.1219  0.1191
25627W        W41096  12.570  17.380   1.490  0.0695 -0.2487 -0.0994
25628W        W41097  16.718   7.946  14.974  0.0721  0.0348 -0.1384
25629W        W41098   9.834   6.498   1.153  0.0689 -0.0700  0.2790
25630W        W41099   1.372  11.783  12.639 -0.0343 -0.2401 -0.0528
25631W        W41100  16.593  11.967   3.391 -0.0949  0.1159  0.1474
25632W        W41101  18.157   1.725   5.394 -0.0992  0.1061 -0.1749
25633W        W41102  17.890  17.874   2.706  0.1222  0.1129 -0.1062
25634W        W41103   8.620   5.662  11.685  0.1551 -0.0891  0.0119
25635W        W41104  15.175  18.260   9.901 -0.1838  0.1181 -0.0652
25636W        W41105   4.815   8.283   2.279  0.1598  0.1606 -0.0545
25637W        W41106  15.492  18.556   0.435 -0.1505 -0.1275  0.1383
25638W        W41107   7.570   6.050   0.369 -0.2435  0.1874  0.0289
25639W        W41108  13.061  12.230  13.691  0.0234  0.3919 -0.0036
25640W        W41109   1.844  12.282  10.989 -0.0849  0.0238  0.0194
25641W        W41110   9.338  16.531  11.754 -0.2283  0.4181  0.2706
25642W        W41111   7.461  14.135  14.358 -0.0865 -0.2689 -0.2476
25643W        W41112   8.896  17.956  15.289 -0.2122  0.0118  0.0528
25644W        W41113   6.841   5.594   1.929  0.2803 -0.0355  0.0360
25645W        W41114   8.283  12.135   4.671 -0.1883 -0.2424  0.0261
25646W        W41115  12.155  12.202   1.844 -0.0124  0.2029 -0.0913
25647W        W41116   5.907  13.998  10.996 -0.0558  0.1960 -0.4129
25648W        W41117   0.902  13.412   3.633  0.2261 -0.0484  0.0909
25649W        W41118   7.075   0.714   3.365  0.0011  0.0491 -0.0273
25650W        W41119   9.708  16.621  13.195  0.2128 -0.2501  0.0644
25651W        W41120   1.295   4.515  12.082 -0.1160  0.0017  0.3578
25652W        W41121   7.928   0.085  10.734  0.3638 -0.2185 -0.2478
25653W        W41122   3.748   9.133  11.174 -0.0763  0.2651  0.2111
25654W        W41123  15.551  11.179  10.032  0.1283  0.1802 -0.1490
25655W        W41124  17.729   1.926  12.831  0.1333 -0.0856 -0.2496
25656W        W41125  14.066  13.580   1.417 -0.3424 -0.0154 -0.1210
25657W        W41126   5.119  11.695   2.029 -0.0992 -0.1124  0.1190
25658W        W41127  17.272  16.760   2.884  0.1125 -0.3366  0.0219
25659W        W41128  10.810   7.026  11.984 -0.1204 -0.0409 -0.1678
25660W        W41129  12.505   2.411  12.807 -0.2192 -0.1611  0.2375
25661W        W41130   7.400  18.112  12.750  0.1462  0.2806  0.1042
25662W        W41131  10.729   3.051  10.298 -0.2112 -0.0826 -0.0388
25663W        W41132   6.264   0.743   4.601  0.0254  0.2332 -0.1062
25664W        W41133  13.782  16.741   4.069  0.1458  0.2147  0.2669
25665W        W41134   6.135  11.396  13.454  0.2724 -0.0994 -0.0062
25666W        W41135   3.485   2.902  12.372 -0.2455  0.0644  0.2445
25667W        W41136   5.433  11.773  13.667 -0.1699 -0.1559  0.0106
25668W        W41137  17.410  14.091   0.581 -0.1176 -0.4023 -0.1344
25669W        W41138  10.289   9.565   0.140 -0.0185  0.1570  0.1658
25670W        W41139   4.322  14.462  14.118 -0.1761  0.4105  0.1206
25671W        W41140   5.691   4.802  11.906  0.0295  0.0263  0.0219
25672W        W41141  12.130  14.887  12.795 -0.0442 -0.3572 -0.1969
25673W        W41142  17.254   4.737  11.365 -0.1451  0.2174 -0.0194
25674W        W41143  10.725   0.816  15.530  0.1316  0.1613 -0.2031
25675W        W41144  16.449  11.279  12.955 -0.1146 -0.0459 -0.3392
25676W        W41145   4.955  11.509  13.113  0.2124 -0.0022 -0.1047
25677W        W41146  11.567  10.905  14.566 -0.0068 -0.0041 -0.4425
25678W        W41147   5.347   6.433  12.197 -0.2619  0.1549 -0.1892
25679W        W41148  11.759   0.787   4.577  0.1147  0.0924  0.3325
25680W        W41149   5.340   1.263   5.231  0.2532  0.3544  0.4581
25681W        W41150   2.362  18.577  15.327  0.1169  0.2959  0.0913
25682W        W41151  17.823   9.022   0.123  0.1853 -0.1767 -0.2612
25683W        W41152  11.199  17.503   3.492  0.3812  0.0570  0.1424
25684W        W41153   5.845  17.949  11.900  0.1690  0.2770  0.0047
25685W        W41154  17.017  14.079  14.083 -0.1526 -0.0576  0.1567
25686W        W41155   8.298   8.836   0.050 -0.0969  0.2986 -0.0087
25687W        W41156  15.194   8.075   0.923 -0.2500 -0.1765 -0.1216
25688W        W41157  14.836   2.006  11.971  0.0078  0.3538  0.2012
25689W        W41158   5.016  16.051  14.585  0.0394 -0.1843 -0.1177
25690W        W41159  12.867  17.649  13.555 -0.3484 -0.2416  0.1032
25691W        W41160  12.155   2.127   5.637  0.0042 -0.2449 -0.0871
25692W        W41161   8.880   0.615   0.039  0.0839  0.0144 -0.0990
25693W        W41162   2.552   4.726   3.653 -0.1323 -0.2204  0.1919
25694W        W41163   5.185   1.808   3.962 -0.0726 -0.0413  0.5951
25695W        W41164   9.073   4.304  12.151 -0.0492  0.1268 -0.0524
25696W        W41165   2.708   0.556  11.333 -0.0855 -0.1672 -0.0164
25697W        W41166   4.435  15.358   3.285  0.0338  0.0341  0.2116
25698W        W41167   4.849   3.181   1.120  0.2622  0.1328  0.2428
25699W        W41168  12.489  13.838   4.581 -0.2411 -0.1981 -0.1230
25700W        W41169   6.258  12.685  11.351  0.2717  0.2604  0.3506
25701W        W41170   6.213  13.326  12.709  0.1056  0.3457  0.0412
25702W        W41171   0.616   5.820  10.792  0.0634 -0.0829 -0.1621
25703W        W41172   9.561  14.939  12.387  0.3255  0.0173  0.0606
25704W        W41173   6.461  16.368   2.902  0.1487 -0.2812 -0.2955
25705W        W41174  10.261   1.760   5.925 -0.1687 -0.2869  0.0737
25706W        W41175   9.448   4.889  14.551 -0.4752 -0.1180 -0.0234
25707W        W41176  15.810   0.218  15.277  0.1282 -0.1576  0.1451
25708W        W41177   8.825  18.338   3.982 -0.0903  0.0515 -0.0674
25709W        W41178   1.082   6.500  13.645 -0.5020  0.0683  0.2591
25710W        W41179  12.343  16.387   1.752  0.2026 -0.2042  0.1662
25711W        W41180   5.186  12.022  15.773  0.4866 -0.0310  0.1195
25712W        W41181   6.029  12.483   2.817  0.1125 -0.3866 -0.1143
25713W        W41182   1.104  17.418  11.389 -0.3447 -0.3989  0.0762
25714W        W41183   4.770   3.468  15.044  0.0018 -0.0958 -0.0191
25715W        W41184   5.697  13.932  12.442 -0.0128  0.0677 -0.1268
25716W        W41185   4.027   2.541  10.959 -0.0142 -0.2662  0.1716
25717W        W41186  17.882   0.047   4.105 -0.3382  0.4498 -0.0771
25718W        W41187  15.349   7.979   5.784 -0.2455  0.0021  0.0396
25719W        W41188  17.736  13.687  13.648 -0.3585 -0.0011 -0.0373
25720W        W41189  18.353  12.162   4.959  0.0474 -0.1374 -0.2707
25721W        W41190   2.299  15.217   2.691  0.1946 -0.0820  0.1878
25722W        W41191  15.212   0.044   0.806  0.1546 -0.0599  0.0755
25723W        W41192  14.021  16.457  15.046 -0.0068  0.0380 -0.1230
25724W        W41193  17.320   5.258  12.160  0.0987  0.1766  0.2553
25725W        W41194   6.030  18.311  11.389  0.0706  0.5376 -0.1765
25726W        W41195  12.943   8.872   0.635 -0.1097  0.0504 -0.1641
25727W        W41196  14.592  15.420  14.285 -0.1510 -0.0145  0.3144
25728W        W41197  18.479  10.849   2.456  0.2498 -0.0392 -0.2510
25729W        W41198  15.700  12.225  13.576 -0.1449 -0.1142 -0.0523
25730W        W41199   6.532   0.069  12.695 -0.5715  0.3515 -0.1378
25731W        W41200  11.727   7.251  15.652  0.1910  0.2752  0.0546
25732W        W41201  13.828   6.467   3.298 -0.0770 -0.4139 -0.1875
25733W        W41202   5.635  17.101   5.325  0.0112 -0.1396  0.0648
25734W        W41203   6.038  12.166   3.207 -0.3508 -0.1497  0.1020
25735W        W41204  17.802   0.050  12.211 -0.0760 -0.1196  0.1832
25736W        W41205  16.385   7.035  12.383  0.0738  0.0119 -0.1503
25737W        W41206  15.690  11.895   4.412  0.0627  0.3413  0.2448
25738W        W41207   6.642   0.108  15.062  0.2017  0.0048 -0.1844
25739W        W41208  13.172   2.781   2.219  0.0232  0.2519  0.1505
25740W        W41209   4.147  15.959   0.171 -0.2301 -0.1936 -0.4773
25741W        W41210  17.967  16.848   3.195  0.0220 -0.3204  0.1135
25742W        W41211   2.657   7.306   2.085 -0.2231 -0.0598 -0.1417
25743W        W41212  13.053   0.632   2.174  0.1690 -0.2128 -0.2193
25744W        W41213   1.637   2.942   0.604 -0.1408  0.1478  0.3421
25745W        W41214   4.835  14.146   3.298 -0.1086  0.1848  0.0534
25746W        W41215  14.328  14.086  15.037 -0.2474  0.2434  0.1394
25747W        W41216  13.522   3.893  14.854 -0.0169  0.4026  0.4123
25748W        W41217  16.355  13.253  11.713 -0.0649  0.0127 -0.1609
25749W        W41218  10.310  17.337  11.724 -0.1310  0.0693  0.1534
25750W        W41219  12.692   6.614  11.338  0.0159  0.2135  0.0936
25751W        W41220  14.968  14.840   0.491 -0.2504 -0.1833  0.1640
25752W        W41221  13.114   9.051   4.284  0.1573 -0.1813  0.0363
25753W        W41222   4.167   6.900   0.577 -0.0186 -0.2383 -0.2514
25754W        W41223   5.300   6.614   4.454 -0.0311  0.0466 -0.1180
25755W        W41224   9.606  10.190  11.454  0.4205 -0.2067  0.1971
25756W        W41225  16.282  10.803  13.349 -0.1365 -0.2268  0.2707
25757W        W41226   0.552  12.493   1.097 -0.0866 -0.0959  0.0794
25758W        W41227   2.582  12.855   5.097 -0.2665  0.0673  0.0307
25759W        W41228   6.491  11.454  12.617  0.0667  0.0643  0.2348
25760W        W41229   4.837   7.031   0.088  0.1673  0.0717  0.0460
25761W        W41230   6.006   2.322   5.538  0.0730 -0.0411 -0.6309
25762W        W41231  12.491  16.460   3.565 -0.1099  0.0621  0.0637
25763W        W41232   7.964   2.268  12.984  0.0971 -0.2074  0.3895
25764W        W41233   3.286  14.403  10.806 -0.0623  0.1017  0.2430
25765W        W41234   3.146   9.717   3.868  0.2620 -0.2056 -0.0802
25766W        W41235   6.796   5.017   1.016  0.1909  0.0640 -0.1163
25767W        W41236   7.703   9.811   9.892  0.1217 -0.2858 -0.1436
25768W        W41237   8.974  11.306  11.720 -0.1778 -0.1917  0.0168
25769W        W41238   0.296  11.847  12.597  0.0013  0.0576  0.1783
25770W        W41239   0.817  11.796   0.278 -0.0842  0.1940  0.2683
25771W        W41240   2.630  17.167  13.949  0.0624  0.1231  0.0925
25772W        W41241  14.947  17.891   2.086  0.2142 -0.1200 -0.0595
25773W        W41242   4.346   1.406   6.092 -0.2449  0.0998  0.4057
25774W        W41243  15.606  15.315   0.372  0.0057  0.0501 -0.2241
25775W        W41244   5.428   9.825  14.836 -0.0929  0.1534 -0.1089
25776W        W41245  16.845   5.654   3.767 -0.0122  0.2266  0.1793
25777W        W41246  18.378   9.737   0.681 -0.1427  0.1378 -0.2890
25778W        W41247  16.796   5.207   1.504  0.2095  0.0489 -0.0321
25779W        W41248   5.022   4.970   1.818 -0.3338 -0.0603  0.0962
25780W        W41249   0.468   7.600   5.246  0.0930  0.0462 -0.0275
25781W        W41250  12.132   0.970   3.874  0.1953 -0.1804  0.0773
25782W        W41251   5.499   7.136   5.370  0.0127  0.1372 -0.1381
25783W        W41252  15.618   7.934  13.755 -0.0773  0.0261 -0.0686
25784W        W41253  10.045   9.804   3.336  0.2604  0.2147  0.2858
25785W        W41254  12.453  17.001   3.468 -0.2628  0.3885  0.2408
25786W        W41255   8.640   2.810  11.953 -0.2461 -0.0166 -0.4184
25787W        W41256  10.461   3.720   2.955  0.3421  0.0169  0.0614
25788W        W41257  16.026   1.951   5.354 -0.0280 -0.2274  0.0658
25789W        W41258   4.432   5.847   0.883 -0.1132 -0.0661  0.1528
25790W        W41259   6.878  16.254   0.236 -0.1494 -0.2624 -0.1938
25791W        W41260   3.153  15.950   1.214  0.3272 -0.1502 -0.1094
25792W        W41261   7.150  17.796   5.985 -0.2605  0.3029 -0.3898
25793W        W41262   9.547  13.743   1.801  0.1326 -0.0216  0.0635
25794W        W41263   5.958  15.894   5.279  0.1562  0.2318  0.2798
25795W        W41264   9.597  17.239   4.757  0.2262 -0.0067 -0.1648
25796W        W41265   0.768  10.755   5.474 -0.1001  0.2313  0.2487
25797W        W41266  14.290   5.454   5.208  0.1901  0.0815 -0.1243
25798W        W41267   1.266   0.496   3.793  0.0746 -0.0043 -0.1616
25799W        W41268   6.819   1.719   0.317 -0.2017  0.1015 -0.1073
25800W        W41269  12.750  14.828   3.936  0.2011  0.0600 -0.2378
25801W        W41270   9.041   8.763  10.983 -0.0892  0.2434  0.1716
25802W        W41271   0.834  15.765   1.110 -0.1967  0.0286 -0.2446
25803W        W41272   6.273  15.556  13.823 -0.1043 -0.1561 -0.0615
25804W        W41273  14.564  11.686  11.643 -0.0261 -0.0598  0.0049
25805W        W41274   3.482   2.373   3.019  0.0228  0.1682  0.0667
25806W        W41275   2.231   3.225  13.442  0.2190 -0.2293  0.0705
25807W        W41276   3.600  11.195   4.311 -0.0797  0.2920  0.0111
25808W        W41277  14.150   4.654   0.817  0.3530  0.0512  0.0321
25809W        W41278  14.710   5.945  14.653  0.0097  0.3585  0.0170
25810W        W41279   6.876   5.301  12.017 -0.0368  0.2761  0.0999
25811W        W41280  10.783   1.204  11.436  0.0586  0.2631  0.2305
25812W        W41281   0.319  10.110  10.866  0.1667 -0.0183 -0.0575
25813W        W41282   6.258   7.330  12.043 -0.1130 -0.1272 -0.3276
25814W        W41283  18.037  11.445   0.480  0.0508 -0.2683 -0.1173
25815W        W41284  14.793   2.538   4.372  0.2704 -0.0602 -0.2019
25816W        W41285  12.751  11.140  13.246 -0.0777  0.1294 -0.0388
25817W        W41286   0.947   8.031   4.296  0.1096 -0.2318 -0.0396
25818W        W41287   4.225   9.544   2.471 -0.1707  0.0146 -0.1730
25819W        W41288   2.176   8.812   3.402 -0.0572  0.0023 -0.3639
25820W        W41289   0.971   1.391  11.310  0.0173  0.2534 -0.2338
25821W        W41290  11.602  10.645  10.787  0.3476 -0.0907  0.3458
25822W        W41291  16.636   3.267  12.242 -0.0188 -0.4245 -0.0373
25823W        W41292  16.905   9.261  14.032  0.1540  0.1353  0.0358
25824W        W41293   4.174   2.105  14.268  0.2097 -0.1422 -0.0813
25825W        W41294   6.248   7.762   3.543  0.3608 -0.0026  0.1448
25826W        W41295  13.103   2.296   4.554  0.1041 -0.0725 -0.2665
25827W        W41296   1.056  12.121  11.449 -0.1682  0.0862 -0.3275
25828W        W41297   9.853   4.708  11.153 -0.2021  0.2490 -0.1593
25829W        W41298  13.817   7.207  11.079 -0.3766 -0.0933  0.0523
25830W        W41299  15.848   3.931   1.026 -0.2491  0.3246  0.0141
25831W        W41300   6.813  14.865   0.656 -0.0399 -0.0100  0.1320
25832W        W41301   7.365   8.202  15.765  0.0226 -0.1512 -0.0913
25833W        W41302   8.383  16.646  13.164  0.0659 -0.2099  0.2307
25834W        W41303   7.958   3.365  11.965 -0.1351 -0.1907  0.2269
25835W        W41304  16.510   8.162  13.701  0.2371  0.2162 -0.1692
25836W        W41305  10.622  18.400  13.596  0.1575  0.3288 -0.0935
25837W        W41306  17.037   0.850  14.857  0.2320  0.2206  0.0391
25838W        W41307   3.653   2.333   2.525 -0.1801 -0.0352  0.0975
25839W        W41308  13.641   0.572   0.373 -0.0275  0.1670 -0.0413
25840W        W41309   9.063  16.604   1.205  0.0260 -0.2068 -0.0128
25841W        W41310   3.384  13.133   0.161 -0.0032 -0.0683  0.3219
25842W        W41311  11.387  13.943   3.275  0.0217  0.0408 -0.4096
25843W        W41312   6.150   5.985  13.036  0.1111 -0.2433  0.0591
25844W        W41313   3.635   1.182  12.756 -0.0292  0.2848  0.1344
25845W        W41314  12.024  13.951   4.402 -0.2964 -0.1452 -0.0681
25846W        W41315  13.028  15.984   1.362  0.3121  0.0968 -0.0946
25847W        W41316  16.518   1.487  13.639  0.0974  0.1301 -0.2255
25848W        W41317  12.212  11.128  13.658 -0.0712  0.0463 -0.2016
25849W        W41318   7.060   4.552   1.063  0.2975  0.3181  0.1549
25850W        W41319   5.676   5.330  14.092  0.3249 -0.4377  0.1326
25851W        W41320   3.971  11.948  12.785 -0.0431  0.3712  0.1566
25852W        W41321   1.435   2.998  13.279  0.0337 -0.1529 -0.0460
25853W        W41322   8.490  17.196  12.002 -0.0162  0.2080  0.2628
25854W        W41323  15.719  18.366  14.412  0.2968 -0.1712 -0.3685
25855W        W41324   1.238   7.608   4.170 -0.1993 -0.1016 -0.2494
25856W        W41325   1.417   2.880  14.483  0.1333  0.3069  0.0946
25857W        W41326   0.768   5.044  15.033  0.2589 -0.3364 -0.0585
25858W        W41327  15.209   9.023   0.847 -0.2782  0.0238  0.5481
25859W        W41328  17.905   4.587   4.298 -0.0879  0.0804  0.0874
25860W        W41329  16.607   1.261   0.767 -0.0777 -0.0145  0.0116
25861W        W41330  14.336   7.622   2.403  0.2948 -0.0996  0.0073
25862W        W41331   7.444   7.521  15.489  0.1921 -0.3177  0.4663
25863W        W41332  18.091  17.987  14.656  0.1961  0.0704 -0.0228
25864W        W41333  15.212  12.529   2.915 -0.4379 -0.0130  0.0036
25865W        W41334   4.374   0.992  12.486  0.1286  0.0261 -0.2568
25866W        W41335   2.574  16.101  11.227 -0.0796 -0.1623 -0.0768
25867W        W41336   3.116   3.864  15.003 -0.2104 -0.1578 -0.1683
25868W        W41337   9.876  12.665  12.437 -0.0142 -0.0966 -0.2033
25869W        W41338   0.695  14.017  11.309  0.0546  0.1892  0.2937
25870W        W41339   9.457  13.381   3.072  0.0585 -0.0755  0.1075
25871W        W41340  16.009  15.279   5.615 -0.0941  0.2040  0.0700
25872W        W41341   7.970   2.631  11.303  0.1919  0.1009  0.0014
25873W        W41342   6.980  12.724  14.435  0.0816  0.0391 -0.0659
25874W        W41343  15.165   9.146  11.134  0.3048 -0.3189  0.0023
25875W        W41344   7.712  11.119   3.795  0.0740 -0.1646 -0.0893
25876W        W41345   0.480   9.585   3.607  0.0163 -0.3549 -0.1456
25877W        W41346  11.107  10.091   3.295 -0.1514 -0.1121 -0.1409
25878W        W41347  11.537  14.177   0.189  0.0610 -0.0065  0.0552
25879W        W41348   0.514   0.365   5.219  0.1475 -0.0276 -0.1254
25880W        W41349   9.640   9.281  14.565 -0.2657  0.1196  0.0379
25881W        W41350   5.901  10.993   5.420 -0.0242 -0.1726 -0.0158
25882W        W41351  16.688   1.618   2.642 -0.3081 -0.1866  0.1385
25883W        W41352  13.124  11.060   3.734 -0.1303  0.1280  0.2123
25884W        W41353   5.780  15.726   4.833  0.0263 -0.0866  0.3200
25885W        W41354   8.974  18.559  12.346  0.2407 -0.2133  0.0769
25886W        W41355  13.945   4.509  13.554 -0.0859  0.1392  0.3745
25887W        W41356   6.637  14.142   2.059 -0.1115  0.0191 -0.0904
25888W        W41357   5.746   2.037  10.824 -0.0267  0.0005 -0.2183
25889W        W41358   3.581  18.006   4.252 -0.0184 -0.0479  0.0636
25890W        W41359   4.672   0.470   3.314 -0.0712  0.2220  0.2273
25891W        W41360   7.120   8.134   3.890 -0.1538  0.1882 -0.0843
25892W        W41361  12.000  13.350   4.057 -0.2428  0.0648 -0.2746
25893W        W41362   3.594   9.322   1.214  0.2658  0.1031  0.1350
25894W        W41363   7.888  15.124  15.188 -0.3616 -0.1994 -0.2472
25895W        W41364  10.408  14.607  11.687  0.0082 -0.3080 -0.0684
25896W        W41365   2.435   3.709  12.516  0.1337 -0.0227 -0.1024
25897W        W41366   6.789   2.226   0.042 -0.1478 -0.1620 -0.2986
25898W        W41367  11.199  12.633   0.867  0.0298 -0.0679 -0.0309
25899W        W41368   8.683   2.413   3.826 -0.1495  0.3184  0.2290
25900W        W41369   6.632   2.011   1.521 -0.1083  0.3021  0.2317
25901W        W41370  16.857  15.206  14.848  0.0445 -0.0118 -0.2078
25902W        W41371  17.579   6.418  14.252 -0.1866  0.2159 -0.1255
25903W        W41372   9.514   4.748   0.446 -0.0216 -0.1379  0.2334
25904W        W41373   8.509  14.222   0.403  0.1346  0.1963 -0.2464
25905W        W41374  18.240   2.540   3.292 -0.1060 -0.1333  0.3776
25906W        W41375   9.306   5.096   5.023  0.1679 -0.0487 -0.0998
25907W        W41376  18.514   9.886   4.587 -0.0956  0.1535  0.1346
25908W        W41377   8.945   6.001   5.373 -0.3030  0.3452  0.2714
25909W        W41378  15.034   5.078   3.609  0.0540  0.0119  0.0277
25910W        W41379   6.199   5.164  12.445  0.1039 -0.1092 -0.0491
25911W        W41380   3.483  15.562  13.172 -0.3674 -0.2462  0.0599
25912W        W41381  10.710   6.317   4.181 -0.1276 -0.1488  0.0979
25913W        W41382   3.214   4.461   4.099  0.2218 -0.2205 -0.0316
25914W        W41383   5.285  18.039   2.630  0.0170  0.3614 -0.0870
25915W        W41384   0.128   7.791  15.703  0.2041  0.2002 -0.1009
25916W        W41385   3.914   1.279   1.654  0.1136  0.2954 -0.1784
25917W        W41386   5.456  10.762  14.404 -0.0508  0.0344  0.1584
25918W        W41387   2.891   0.155  13.450 -0.2733  0.3260  0.0073
25919W        W41388  11.560  11.206  11.788 -0.1033 -0.0400  0.1634
25920W        W41389   4.396  15.168  12.069 -0.0479 -0.3275 -0.0491
25921W        W41390  17.895  13.270  13.481 -0.0350 -0.1786  0.1309
25922W        W41391  16.667   8.035   2.308 -0.1575 -0.0584  0.0983
25923W        W41392  11.775   4.739   4.186 -0.0335 -0.1588 -0.1596
25924W        W41393  11.567  13.449  10.554  0.2722  0.1432  0.4538
25925W        W41394   8.796   9.081   2.145 -0.1572  0.1225 -0.2663
25926W        W41395   9.948  17.527  12.088  0.0339  0.2036  0.0710
25927W        W41396  13.452   5.740   0.582 -0.1011  0.0404  0.6706
25928W        W41397   3.736   9.318  13.437 -0.1114 -0.0020 -0.0380
25929W        W41398   9.366  14.147  11.496 -0.0025 -0.2855  0.2861
25930W        W41399   5.030   2.960   4.841  0.0321  0.0257 -0.2469
25931W        W41400   5.692   6.258   5.642  0.2382 -0.1200  0.1683
25932W        W41401  17.551   3.447  14.782 -0.0127  0.1057  0.2410
25933W        W41402   2.067  14.990   3.193  0.0934  0.1007  0.0748
25934W        W41403  15.013  16.036   0.704 -0.2011  0.1690 -0.0410
25935W        W41404   5.183  16.866   5.268 -0.0140  0.1765  0.1133
25936W        W41405   2.564   5.552   4.525  0.0161 -0.0822  0.2149
25937W        W41406   5.450   8.077   3.811  0.2061  0.2655  0.1920
25938W        W41407   8.747   1.177   2.119  0.2591  0.0595 -0.2906
25939W        W41408  12.485   3.340   2.165 -0.3509  0.0754  0.1516
25940W        W41409   3.025  17.142   0.547  0.0052  0.4212  0.0030
25941W        W41410   5.498  18.219   4.650 -0.0192 -0.2505 -0.0477
25942W        W41411   5.872  15.889   3.425 -0.0280 -0.1167  0.1339
25943W        W41412  13.424   1.969   4.282 -0.1417  0.1190  0.1117
25944W        W41413  14.262  13.127  14.677 -0.0565 -0.0966  0.1618
25945W        W41414   9.345  13.274   2.019  0.0606 -0.0572  0.0503
25946W        W41415  18.053   0.716  15.431  0.2309 -0.1262  0.1499
25947W        W41416  13.903  18.150   1.644  0.1639 -0.2994  0.0739
25948W        W41417  12.663   5.179   1.526  0.0325  0.2005 -0.0692
25949W        W41418  13.453   4.277   0.453 -0.1304  0.3975 -0.2420
25950W        W41419  14.267  15.091  10.183  0.1667  0.2413 -0.1393
25951W        W41420  15.119  12.310   1.455  0.3878  0.1117 -0.2123
25952W        W41421   9.227   6.887  12.973  0.0182  0.1329 -0.0293
25953W        W41422   4.368  16.758  13.594 -0.1714  0.3023  0.1967
25954W        W41423   1.543  15.950  13.875  0.3248 -0.0655  0.1071
25955W        W41424   4.117   7.703   2.030  0.0993 -0.0385 -0.2482
25956W        W41425   0.133   9.238   4.473 -0.1365  0.0195 -0.4323
25957W        W41426   6.194   3.898  10.823 -0.3684 -0.1171 -0.1062
25958W        W41427  11.415   6.041  13.617 -0.1369  0.0036 -0.1582
25959W        W41428   9.649   1.501   2.019 -0.1062 -0.1308  0.0002
25960W        W41429   5.882  18.392   4.859  0.0195  0.0580  0.1201
25961W        W41430  12.776  15.135   1.184  0.2221 -0.1605 -0.2777
25962W        W41431   7.807  13.134  11.335  0.3194  0.0434  0.0033
25963W        W41432   5.155   8.434   1.833  0.4433 -0.1718 -0.2694
25964W        W41433   4.766  12.263   0.312  0.0163 -0.0319 -0.2174
25965W        W41434   6.184   7.161  15.314 -0.0002  0.1289 -0.2042
25966W        W41435   0.178   3.413  13.142 -0.2684  0.3502  0.3361
25967W        W41436  10.798  11.740  10.841 -0.1524  0.0468 -0.3103
25968W        W41437  16.148   0.008   5.136  0.0091 -0.1956 -0.4272
25969W        W41438  13.374   8.634   2.383  0.1582 -0.1607 -0.1786
25970W        W41439  14.505  15.144  12.875  0.0923  0.2638  0.2566
25971W        W41440   5.391   6.680   3.491 -0.2456  0.0627 -0.1095
25972W        W41441  12.214   6.956   0.887 -0.1379 -0.0521 -0.2078
25973W        W41442  10.559  16.588   1.132  0.1180 -0.0676 -0.5730
25974W        W41443  18.473  11.725   2.777 -0.0283  0.3237  0.0841
25975W        W41444   7.617  14.628  15.244 -0.3643 -0.1101  0.1375
25976W        W41445  17.276  14.698  12.261  0.2524 -0.2314 -0.0777
25977W        W41446  15.389   2.271   1.323  0.2390 -0.1426  0.0026
25978W        W41447   3.495   9.083  10.629  0.0199 -0.2449 -0.2328
25979W        W41448  10.825  10.328   2.948 -0.3513  0.0901  0.1491
25980W        W41449   4.553   2.275  13.382  0.0873  0.1135 -0.4794
25981W        W41450  10.867   4.837  12.716  0.0847 -0.0183 -0.0180
25982W        W41451  17.792  11.940   4.322 -0.1046 -0.0554 -0.0329
25983W        W41452  14.315   8.511  14.485 -0.0017 -0.0649  0.0285
25984W        W41453   1.938  18.295   0.570 -0.0336  0.2488 -0.0144
25985W        W41454   8.655  16.278   0.781  0.0637 -0.0952  0.0464
25986W        W41455  15.509  17.405  13.492 -0.0711 -0.1344  0.0814
25987W        W41456  15.461  10.469  14.758 -0.1066 -0.0777 -0.0639
25988W        W41457   7.771   8.944   2.885 -0.0177  0.0774  0.0437
25989W        W41458  13.485  10.663   4.614 -0.0762  0.3667 -0.1978
25990W        W41459   8.633   5.482   5.109 -0.2067  0.0284  0.3003
25991W        W41460   2.655  18.565  13.979  0.0351  0.0034  0.3895
25992W        W41461  17.204   8.218  14.435 -0.0998  0.0437  0.3603
25993W        W41462  14.296  12.556  10.388  0.0995  0.0854 -0.0513
25994W        W41463   0.016  13.851   2.858  0.2020 -0.2470  0.2509
25995W        W41464  17.949  16.790   0.183 -0.1139  0.3472 -0.0537
25996W        W41465   8.786  15.218   3.962  0.0147 -0.4536 -0.1365
25997W        W41466   1.096   9.492   4.580  0.2573 -0.0025 -0.0829
25998W        W41467   1.104   5.724  14.017  0.0968 -0.0714 -0.0516
25999W        W41468  16.293  13.707  15.713  0.2383  0.4073 -0.0324
26000W        W41469   6.697   5.379   2.812  0.2008 -0.1287 -0.2021
26001W        W41470  17.623   2.123   4.239 -0.0005 -0.0473  0.0349
26002W        W41471  15.226   5.595   4.768  0.0354  0.1096  0.0225
26003W        W41472   2.468  14.678  12.961  0.1923 -0.2497  0.1107
26004W        W41473   2.034  17.520  10.572  0.2215  0.1996 -0.1357
26005W        W41474  18.234   6.422  10.465 -0.3337 -0.0388 -0.1259
26006W        W41475   5.133   1.602  15.545 -0.2321  0.2566 -0.0375
26007W        W41476  18.118   1.432  11.133  0.0334 -0.2091  0.1153
26008W        W41477  16.672   6.989  11.894 -0.0473 -0.1685 -0.2481
26009W        W41478   1.729   4.662  13.299 -0.2646  0.0845  0.1049
26010W        W41479  18.431  14.760   2.241  0.2322  0.1383 -0.0128
26011W        W41480  10.274   9.692  14.988 -0.1189 -0.3450  0.0593
26012W        W41481   3.996  13.606  10.374  0.0773  0.2851 -0.0059
26013W        W41482   3.383   1.953   1.657  0.0774 -0.3516  0.1302
26014W        W41483  16.019  18.341  13.615  0.3622 -0.2131  0.2209
26015W        W41484  11.531  17.692  14.748 -0.3891 -0.4265 -0.0427
26016W        W41485   8.375  13.547  13.043 -0.0846 -0.0918 -0.0163
26017W        W41486  15.521   6.933   0.912  0.2198 -0.1023  0.0299
26018W        W41487   7.322   2.289   0.266  0.1167 -0.1008  0.2110
26019W        W41488   4.204   7.630   0.188 -0.1033  0.0156 -0.0971
26020W        W41489   1.918   4.031  15.202  0.0302 -0.1421 -0.0857
26021W        W41490   0.393   3.688  10.784  0.1979 -0.0455  0.1889
26022W        W41491  10.397   4.775   0.707  0.0045 -0.0430  0.0159
26023W        W41492   8.893  14.942  13.437 -0.4084  0.0870  0.1306
26024W        W41493   3.816   7.692   0.707  0.0890  0.1299 -0.0290
26025W        W41494  16.544   8.034   4.741  0.0069 -0.0383 -0.2899
26026W        W41495   1.379  16.663  14.643  0.0595  0.2799 -0.0688
26027W        W41496   1.749   2.186  14.029 -0.1024 -0.1762 -0.0131
26028W        W41497   2.100  10.915   0.841  0.0796 -0.0017  0.0991
26029W        W41498  18.483  17.154   0.708  0.0570 -0.0675  0.2047
26030W        W41499  12.341   7.929   5.219 -0.0113  0.3179  0.0030
26031W        W41500   6.805   4.775   1.473 -0.0919  0.0743 -0.0438
26032W        W41501  17.999   1.820   3.840  0.0694  0.0231  0.3098
26033W        W41502  15.130  18.113   0.809 -0.0665 -0.2364  0.2318
26034W        W41503  18.178   3.492  11.609 -0.1273  0.1111  0.0346
26035W        W41504   8.700   5.563   2.112 -0.1261  0.5486 -0.2585
26036W        W41505   9.468   6.860  12.254  0.0034  0.1827 -0.0424
26037W        W41506  18.071  17.793   9.969 -0.3235 -0.0325  0.2150
26038W        W41507  10.985  11.449   4.068 -0.0104  0.1004 -0.0372
26039W        W41508   7.944   9.648  11.956  0.1556  0.0532  0.0377
26040W        W41509  14.942  13.936  15.086  0.1059  0.2185  0.3561
26041W        W41510   6.236   3.346   2.704 -0.1575 -0.0905 -0.0774
26042W        W41511  17.145  10.479  11.297 -0.0349  0.1455  0.0305
26043W        W41512  13.624   1.161   0.616  0.1064 -0.3657 -0.0050
26044W        W41513  15.955   9.172   1.331  0.0644  0.0044  0.0051
26045W        W41514   3.142   0.766   1.570 -0.3409 -0.3619  0.3783
26046W        W41515  14.002  10.387  15.615  0.1582  0.0031 -0.0439
26047W        W41516  17.124   6.526  10.636  0.1430  0.0529 -0.1470
26048W        W41517  13.223   3.756   0.247  0.0295  0.0459  0.3325
26049W        W41518   6.489  10.171   3.069 -0.1785  0.1162  0.6042
26050W        W41519  16.079  14.269  12.498  0.2124 -0.1738  0.1156
26051W        W41520  13.787   3.223  12.991 -0.0231 -0.1298 -0.1868
26052W        W41521  18.602   9.954   1.145 -0.1454  0.2101 -0.1959
26053W        W41522  16.641  18.500   2.208  0.0612  0.0609  0.1246
26054W        W41523   4.976   1.727   3.480  0.1952  0.1104  0.0554
26055W        W41524   8.220   9.859  15.200  0.1473  0.1469  0.0151
26056W        W41525   7.580   7.766   2.848 -0.4453  0.3008 -0.1928
26057W        W41526  14.705  17.195  10.458  0.1219  0.3340 -0.4349
26058W        W41527  17.958   7.145  11.510  0.3272 -0.0917  0.0039
26059W        W41528  12.745  18.189  15.466  0.0552 -0.0786 -0.0729
26060W        W41529  13.893   7.351  14.235 -0.0192 -0.0187 -0.0857
26061W        W41530  16.091  15.605   4.579 -0.0698  0.2214 -0.0835
26062W        W41531  15.477  17.222  12.587 -0.0146 -0.0278  0.0473
26063W        W41532   0.264   1.966  13.315  0.0702  0.1581 -0.0940
26064W        W41533  13.386  14.532   2.207  0.1978  0.2534 -0.1155
26065W        W41534   2.198  15.247  15.475 -0.0209  0.0467 -0.1526
26066W        W41535  18.512  17.573  11.748  0.0543 -0.0536 -0.1426
26067W        W41536   8.990  13.680  11.608 -0.0020  0.0438  0.1713
26068W        W41537  17.311  17.599  15.215 -0.1195  0.0176  0.2245
26069W        W41538   1.605   9.800   4.913  0.1058 -0.1352 -0.0222
26070W        W41539   5.759  12.420  10.201 -0.2371 -0.2698 -0.3292
26071W        W41540  10.250   3.937  10.977 -0.0448 -0.1905 -0.1954
26072W        W41541  17.629   6.183  11.041  0.1048  0.4796 -0.2248
26073W        W41542  11.545   6.626  10.860  0.0283  0.0063  0.1579
26074W        W41543  15.438   9.262  15.431  0.0427  0.0087 -0.0791
26075W        W41544   1.817   1.920   3.448 -0.0676  0.1609  0.2283
26076W        W41545   6.875   0.800   3.831 -0.6217 -0.0725 -0.1089
26077W        W41546  16.590  11.414  11.223  0.0386  0.2157  0.1868
26078W        W41547   0.662   3.596  15.244 -0.3370  0.0313 -0.0154
26079W        W41548  14.894  10.635   4.405 -0.1601  0.0853 -0.2282
26080W        W41549  12.462   9.631   0.961  0.1318 -0.2355  0.0017
26081W        W41550  11.845   6.016   1.123 -0.1252  0.0215 -0.0933
26082W        W41551   1.747  11.097   3.944 -0.1991  0.1784  0.2516
26083W        W41552   6.100   5.602   0.768 -0.2424 -0.0163  0.0659
26084W        W41553  10.635   4.338  15.202  0.1473  0.2301 -0.3243
26085W        W41554   4.797   8.935  12.668  0.0848  0.1378 -0.1429
26086W        W41555  18.249  15.014  15.613 -0.1473 -0.0882 -0.1094
26087W        W41556  12.256   8.853  15.661  0.1073  0.0855 -0.0326
26088W        W41557  14.726  11.950  13.314  0.2234  0.2905  0.3957
26089W        W41558  15.461   8.735   2.824 -0.1606 -0.1683 -0.0438
26090W        W41559   3.913   6.749  13.623 -0.1370  0.2721  0.3294
26091W        W41560  10.615   7.279   4.752  0.0450 -0.1099 -0.1602
26092W        W41561   5.102  15.862  15.069  0.2382 -0.0804  0.1224
26093W        W41562   9.757   7.405   5.046 -0.3558 -0.0574 -0.0508
26094W        W41563   8.736   5.232  14.067 -0.1476  0.2556  0.2527
26095W        W41564  15.929   4.710  10.719 -0.1773  0.0421  0.0419
26096W        W41565  15.467   6.680  15.225 -0.2069 -0.2874 -0.0085
26097W        W41566   5.532  18.519  15.398  0.4370  0.1269 -0.0931
26098W        W41567  11.780   7.231   3.750  0.0714  0.0234 -0.2029
26099W        W41568   2.684   3.422  15.671 -0.1556 -0.0866  0.0676
26100W        W41569   1.560  12.864   3.148  0.0360 -0.1241  0.1953
26101W        W41570   3.481   1.563   2.430 -0.0492  0.2594 -0.0478
26102W        W41571  14.328   0.122  14.073 -0.1599 -0.3243 -0.1328
26103W        W41572   6.788  13.910  13.020  0.1112  0.4345 -0.0097
26104W        W41573  12.128   4.826   2.910 -0.3871 -0.0359 -0.1188
26105W        W41574  17.119  14.296  15.412 -0.0903 -0.1451  0.0681
26106W        W41575   3.581  18.061  15.272 -0.0368 -0.0565 -0.0906
26107W        W41576  11.871  10.117   3.166 -0.0440  0.2996  0.0340
26108W        W41577  13.805   5.299   4.451 -0.0035 -0.3058  0.0525
26109W        W41578   5.254  15.678  12.980 -0.0908 -0.0131  0.2517
26110W        W41579  18.046   0.884   2.835 -0.1994  0.0640 -0.2271
26111W        W41580   3.005  14.884  12.414  0.2255  0.1712  0.2210
26112W        W41581  15.734  17.182   6.002 -0.0356  0.1111 -0.1351
26113W        W41582  17.936  12.004  10.226  0.2982  0.0005  0.1453
26114W        W41583  10.363   8.948   2.570 -0.1957  0.1219 -0.1058
26115W        W41584  16.942  10.233  10.781 -0.0271 -0.1144 -0.0439
26116W        W41585  11.659  17.087   5.305 -0.1760  0.0819 -0.1023
26117W        W41586   8.522  15.753  11.279  0.2149 -0.3159 -0.1151
26118W        W41587  14.858  15.313   4.681  0.0488 -0.5836 -0.0088
26119W        W41588  10.987  15.769   5.427 -0.1473 -0.0090  0.0637
26120W        W41589  16.733   2.344  12.098 -0.0749 -0.1323  0.2702
26121W        W41590   4.056  17.717  11.243  0.0687  0.3261  0.1748
26122W        W41591   3.836   6.669  12.460 -0.1906  0.1158  0.0428
26123W        W41592  10.581   9.666   1.164 -0.0367  0.1350  0.3817
26124W        W41593  16.023   8.810  10.592  0.4302 -0.1297 -0.0039
26125W        W41594   3.924  16.068   2.295  0.0878 -0.2713 -0.0422
26126W        W41595   7.837   8.007  12.153  0.0344  0.1587  0.1123
26127W        W41596   3.580   8.414   1.190 -0.1648  0.1247  0.0703
26128W        W41597  11.180   0.707   5.994  0.2737 -0.1235 -0.1937
26129W        W41598   3.891   2.369   3.375  0.0486 -0.3533  0.1281
26130W        W41599   5.959   4.712   0.195 -0.1647 -0.0526  0.2297
26131W        W41600  13.703  12.420  11.001 -0.0937  0.0010 -0.0331
26132W        W41601  17.492   3.606   9.521 -0.0344 -0.1301 -0.2186
26133W        W41602   8.151  11.633   5.559 -0.3480 -0.2094 -0.1436
26134W        W41603  16.326   9.653  15.343 -0.0625  0.2591 -0.1899
26135W        W41604   0.976  17.909  11.162  0.1500 -0.1316  0.1499
26136W        W41605  13.401   8.397  14.714 -0.0666  0.1007  0.3272
26137W        W41606  10.782   5.851   1.748  0.2011 -0.0439 -0.1044
26138W        W41607   0.810   3.975  14.889 -0.0524  0.0934  0.1720
26139W        W41608   1.349   1.699  11.304 -0.0551  0.4859  0.1317
26140W        W41609   6.889  15.483  10.609  0.1163 -0.2452  0.0096
26141W        W41610   2.559  10.190   2.909  0.0506  0.4082 -0.1666
26142W        W41611  15.567   1.429  13.144 -0.0514 -0.2926  0.1046
26143W        W41612   6.148  14.423  10.733 -0.1188  0.1730  0.1489
26144W        W41613  10.735   5.762  10.607  0.2873 -0.0960  0.1741
26145W        W41614  17.821   8.668   9.778 -0.1996 -0.1643  0.2487
26146W        W41615  13.316   7.375  13.005 -0.0537 -0.0340 -0.0989
26147W        W41616  10.203   3.450   4.697 -0.1209  0.0212 -0.1724
26148W        W41617  16.230   6.175   3.376 -0.1129 -0.0228  0.1002
26149W        W41618   1.649   3.480  12.918 -0.1974  0.1019 -0.1213
26150W        W41619   0.435   6.249  13.302 -0.0422  0.1067 -0.0466
26151W        W41620  14.674  18.297  11.351  0.3593  0.1160  0.1104
26152W        W41621  16.569   4.866   1.834 -0.0394 -0.0930 -0.3956
26153W        W41622  14.135   8.837  11.359  0.3206  0.0794  0.0490
26154W        W41623   0.518  12.335   4.354 -0.0378  0.1595  0.3919
26155W        W41624  16.293  12.671   0.652  0.0161 -0.2042  0.0772
26156W        W41625  15.524  13.530  13.085  0.0730 -0.3104 -0.4503
26157W        W41626   0.274   8.471  11.078  0.2519  0.1991 -0.0466
26158W        W41627  14.457   8.677   3.587 -0.0883 -0.2184 -0.0343
26159W        W41628   9.513  17.571   2.508 -0.1317 -0.1522  0.1239
26160W        W41629   3.439   4.094   2.336 -0.0143  0.1324 -0.0313
26161W        W41630   9.416  13.986   2.484  0.0276 -0.2875 -0.0151
26162W        W41631  12.431   1.636  15.453  0.1724 -0.0619 -0.2166
26163W        W41632  17.982  16.626  13.419 -0.1887  0.0160  0.2990
26164W        W41633   3.896  18.083  14.009  0.0612 -0.1473 -0.1864
26165W        W41634  11.995  12.250   0.882  0.0086  0.1052 -0.0566
26166W        W41635  15.961   6.654   3.945  0.0575 -0.1319 -0.0861
26167W        W41636   5.707  15.483   3.756  0.2072  0.3712 -0.1349
26168W        W41637  10.875   8.933   0.297  0.1869 -0.2302 -0.0850
26169W        W41638  10.700   1.166  15.071 -0.2068 -0.0789  0.1527
26170W        W41639   4.398  15.271  13.252 -0.1006  0.0393  0.2117
26171W        W41640   5.795   9.663   1.563 -0.0463  0.3226  0.3746
26172W        W41641  15.072   1.626  15.242 -0.0971 -0.0636  0.2982
26173W        W41642   7.841   0.633   2.307 -0.3039  0.0091  0.1898
26174W        W41643   8.959   2.324   0.334  0.0221 -0.1263  0.1732
26175W        W41644   0.563  15.851  11.296 -0.0627 -0.1366 -0.0218
26176W        W41645   5.716   2.775  15.594 -0.0175 -0.3276  0.1354
26177W        W41646  14.930  10.292   4.787  0.0294  0.1051 -0.1888
26178W        W41647  17.588  10.357   3.580  0.1967 -0.3508 -0.0465
26179W        W41648  18.073  17.239   0.424 -0.3352  0.1955 -0.2002
26180W        W41649  10.413   5.307   0.775 -0.3271  0.0381 -0.3268
26181W        W41650  16.903   6.109   2.436  0.2664 -0.0960 -0.1174
26182W        W41651  10.531   0.009   4.841  0.1120 -0.0564 -0.0240
26183W        W41652   9.408   7.772  13.277 -0.0131 -0.2440 -0.2207
26184W        W41653  14.575   0.481  15.393  0.0524  0.1308  0.2091
26185W        W41654   9.510   9.472  13.259 -0.1071  0.2467 -0.2580
26186W        W41655   1.568   1.488   2.239  0.1946 -0.1857  0.0121
26187W        W41656   2.122  12.372  11.585  0.0034 -0.1782 -0.0730
26188W        W41657  11.997  14.510   2.214 -0.1372  0.1558  0.1663
26189W        W41658  10.443  11.222   4.117  0.1442  0.0608  0.1228
26190W        W41659   6.143   3.573   3.956 -0.0985 -0.2784  0.1082
26191W        W41660   0.218  13.396   1.010  0.0524 -0.0747 -0.2027
26192W        W41661  11.700  10.741   4.429 -0.0586  0.0710  0.2007
26193W        W41662  16.852   8.270  14.068  0.0063 -0.1078  0.1554
26194W        W41663   0.546  11.234   3.419 -0.1915 -0.0698 -0.3133
26195W        W41664   4.201   7.776   2.577 -0.0902  0.4303 -0.0399
26196W        W41665   1.759  14.112  13.394 -0.1151  0.0384 -0.1608
26197W        W41666   1.459   5.546  12.359 -0.0651  0.0727  0.1193
26198W        W41667   0.025   3.999  13.729  0.1177  0.0650 -0.0230
26199W        W41668  16.280   5.504   3.965  0.0038 -0.5623 -0.0711
26200W        W41669   2.690  16.820  14.331  0.0652 -0.3015 -0.0096
26201W        W41670   8.703  11.371   3.480 -0.4773 -0.2474  0.1656
26202W        W41671   1.310   0.071  13.593  0.1717 -0.0812  0.1674
26203W        W41672   8.590   1.113   3.937  0.2569  0.0959 -0.2223
26204W        W41673   5.082  13.434  12.820  0.1257 -0.1425 -0.0010
26205W        W41674  16.152   9.604   1.367 -0.1481 -0.3046 -0.1821
26206W        W41675  12.171   5.934   5.492  0.0644  0.1436 -0.0331
26207W        W41676   1.720   8.599   3.278  0.0660  0.0776 -0.0803
26208W        W41677  15.695  16.808   0.865  0.0687 -0.5045  0.3972
26209W        W41678   8.624  15.754  12.997  0.0876  0.0079 -0.1132
26210W        W41679  17.953   7.498  12.954  0.3747 -0.1419 -0.1883
26211W        W41680   3.116  18.506   1.070 -0.2535  0.0062 -0.0143
26212W        W41681  16.583   5.352  11.704 -0.1696 -0.2271 -0.0481
26213W        W41682   5.157   0.049   5.849 -0.3230 -0.2247  0.0360
26214W        W41683  18.487   2.276   4.864 -0.2084 -0.1292 -0.0611
26215W        W41684  16.448  17.799   2.156 -0.1167  0.1587 -0.0982
26216W        W41685   5.276  13.272  15.217 -0.0275 -0.0368  0.1695
26217W        W41686  12.479   2.573   2.593 -0.1868 -0.1795  0.1467
26218W        W41687  10.628   1.246   2.911 -0.0083  0.0166  0.1039
26219W        W41688   0.475  17.329  14.912  0.1334  0.3213  0.1462
26220W        W41689   9.557  14.725   5.519  0.0605 -0.0849 -0.1582
26221W        W41690  12.535   9.767  14.883 -0.1914 -0.0457  0.1370
26222W        W41691  14.998  13.824   2.275 -0.0178  0.4940  0.0011
26223W        W41692  14.059   1.454   3.098  0.0755 -0.0128  0.0496
26224W        W41693  11.175   8.992   1.902  0.0668  0.5016 -0.2356
26225W        W41694   2.143   1.644   3.163  0.0759  0.0138 -0.0915
26226W        W41695   1.238   6.283  14.549 -0.0776  0.4634 -0.1775
26227W        W41696   5.826   7.090  15.720  0.0501 -0.0161  0.0301
26228W        W41697  13.791   2.420  15.151 -0.0304  0.0333  0.0333
26229W        W41698   3.799   1.021   2.975  0.2127  0.0940  0.2037
26230W        W41699  10.172   5.277   3.324 -0.1661 -0.1024 -0.2002
26231W        W41700  14.105   4.491  14.084  0.0468  0.1125  0.0396
26232W        W41701   7.666  13.553  13.893 -0.3721 -0.1497 -0.1624
26233W        W41702   4.001  17.660  15.631 -0.0054 -0.3414 -0.1152
26234W        W41703   8.327   0.870   3.603  0.1707 -0.1184  0.0958
26235W        W41704  10.770   3.342  11.314 -0.0744  0.0657  0.1088
26236W        W41705  17.014   3.060   1.793  0.1089 -0.0967  0.2666
26237W        W41706   1.401   9.805   3.089  0.2603  0.0319 -0.1040
26238W        W41707   2.431  11.658   3.085  0.0190 -0.0885  0.1363
26239W        W41708  11.667   0.258   2.718  0.0432  0.1637 -0.1061
26240W        W41709  14.538   9.225  13.744 -0.3117  0.1647 -0.3267
26241W        W41710   7.355  14.342  12.256 -0.1073  0.1016 -0.1131
26242W        W41711  14.418  15.457  11.881 -0.0989 -0.1020  0.1429
26243W        W41712  10.209   2.688  14.861  0.1273  0.1558  0.1034
26244W        W41713  12.581  15.977   4.915  0.1386 -0.0828 -0.0593
26245W        W41714  11.677   1.242   0.651  0.1792 -0.4193 -0.2096
26246W        W41715   3.552  15.195  12.363 -0.1158 -0.1133 -0.1042
26247W        W41716   9.226  15.195  14.801  0.1512 -0.0934 -0.0028
26248W        W41717  12.824   4.576  10.858 -0.1519  0.2179  0.3852
26249W        W41718   4.510  13.051   3.250  0.0527 -0.1302  0.0404
26250W        W41719   7.628  18.568  10.328 -0.1277  0.3199  0.1192
26251W        W41720   8.902  14.141   4.587 -0.2396 -0.2490 -0.0165
26252W        W41721  13.283   7.443  15.516 -0.0724  0.2904  0.1183
26253W        W41722   3.888   6.233  12.124  0.1620 -0.1242 -0.0413
26254W        W41723   3.638  18.484   2.768 -0.1484  0.1305 -0.0244
26255W        W41724  11.175   8.137   3.903  0.4060 -0.1711 -0.4305
26256W        W41725  12.813  15.446   0.159  0.3101  0.0722 -0.1810
26257W        W41726   0.979   9.335   9.570 -0.0752 -0.0925  0.1399
26258W        W41727   9.906   5.501   2.351 -0.2188  0.1471  0.3771
26259W        W41728  10.810  16.638   2.900  0.4696 -0.0110  0.1597
26260W        W41729  16.459  11.675  13.744 -0.0439 -0.1709 -0.0947
26261W        W41730   9.679  15.446   3.242 -0.0821  0.0423 -0.3210
26262W        W41731  13.700   2.044   4.746 -0.2828 -0.2001  0.3644
26263W        W41732  10.371   4.134   0.727  0.2661 -0.2642  0.0695
26264W        W41733  15.952   1.429  13.542  0.1188  0.1590  0.1488
26265W        W41734   5.130  16.289  12.150 -0.0398  0.0180  0.1008
26266W        W41735  12.636  13.437  10.022 -0.1036 -0.5485  0.1734
26267W        W41736   5.973   5.020   1.861 -0.3435 -0.0606 -0.0917
26268W        W41737  18.358   3.453  12.381 -0.1830 -0.0814 -0.2785
26269W        W41738   3.256  18.229   2.575 -0.0276 -0.0035  0.2080
26270W        W41739   6.503  10.485   1.274  0.2231 -0.1779 -0.1436
26271W        W41740  14.403   3.331   5.740  0.4079  0.0395  0.0705
26272W        W41741  14.167   1.538   3.602 -0.2819 -0.3344  0.0835
26273W        W41742  15.998  11.467  15.240  0.1208  0.0303 -0.2362
26274W        W41743  15.939   6.374  15.103 -0.0755  0.1173  0.0271
26275W        W41744   6.738   7.489   1.510  0.1226  0.2178  0.3241
26276W        W41745   7.247  13.885   3.417 -0.0014 -0.1146 -0.0518
26277W        W41746   2.816   2.614  11.202  0.4029  0.0796  0.0795
26278W        W41747  15.261   4.750  15.012 -0.0331  0.0756  0.1269
26279W        W41748   9.314   0.679  15.492 -0.1500  0.1811 -0.3653
26280W        W41749  15.253   4.174  15.541  0.0629 -0.2682 -0.0100
26281W        W41750  17.587   9.158  13.575  0.0868  0.1052 -0.1897
26282W        W41751  15.536   7.056  11.322 -0.3675 -0.1255  0.1110
26283W        W41752   9.656  17.775  12.522 -0.1758  0.2530  0.1143
26284W        W41753   3.575  11.435  14.345  0.2411 -0.0384  0.0020
26285W        W41754  16.538   4.584   1.419  0.2461 -0.2240  0.0811
26286W        W41755   1.512  13.983   2.402 -0.0511  0.1878 -0.1367
26287W        W41756   3.300  15.577  11.594 -0.0158 -0.0121 -0.1210
26288W        W41757  17.045   5.790   0.081  0.3396 -0.1136 -0.2748
26289W        W41758   9.400   5.513   4.713 -0.0276  0.1361  0.1422
26290W        W41759   9.086  12.145   0.114 -0.1189 -0.0405  0.0244
26291W        W41760   2.391  14.436  15.214  0.1545  0.0941  0.1093
26292W        W41761  12.054   4.255   4.950  0.1947  0.0923 -0.0973
26293W        W41762  14.751   3.645  10.955  0.0238  0.1937  0.0261
26294W        W41763  13.453   9.402   9.944  0.3615  0.1829 -0.0365
26295W        W41764   8.162  12.409   2.682 -0.1106  0.1791  0.0685
26296W        W41765   7.832   4.284   5.449  0.0093  0.2498  0.0655
26297W        W41766  16.322   9.819   2.775  0.1081  0.2402 -0.0363
26298W        W41767   4.767  13.550   2.127  0.2441 -0.0369  0.5060
26299W        W41768  17.245   8.766  15.035  0.0463 -0.0807  0.0933
26300W        W41769  10.966  14.540   5.117  0.0411  0.1777 -0.3043
26301W        W41770   7.128  10.840   3.330  0.0555 -0.0685  0.0856
26302W        W41771   7.666   7.881   1.730  0.1212 -0.1685  0.0096
26303W        W41772   7.471   9.947   2.849  0.0264  0.3664 -0.2466
26304W        W41773  16.693   4.137   0.550 -0.2286  0.0651 -0.1353
26305W        W41774   5.920   8.334  13.009  0.0463 -0.1721 -0.2365
26306W        W41775  13.898   3.223   1.899 -0.2481  0.0140 -0.0094
26307W        W41776   8.491   2.572   1.203 -0.0473  0.1573 -0.0660
26308W        W41777   4.109  13.642  13.316  0.0893  0.1197  0.3049
26309W        W41778  18.109  10.194  11.531 -0.0068 -0.1616  0.3425
26310W        W41779   0.190  12.937  13.666 -0.0887  0.0347  0.1379
26311W        W41780  17.211  17.146   4.168  0.0267  0.0711  0.3054
26312W        W41781  13.471  15.133  11.210 -0.0845 -0.1505 -0.0031
26313W        W41782  13.637   6.641   0.458  0.0737  0.0621  0.2765
26314W        W41783  11.014   9.155  15.524  0.0916  0.1152  0.4245
26315W        W41784  14.935  10.135  12.824 -0.0726  0.2106 -0.0638
26316W        W41785  15.214   5.249  11.410 -0.2972  0.2079  0.1652
26317W        W41786   5.218   9.170  14.033  0.0842  0.1403 -0.0328
26318W        W41787   8.635   2.046   0.604 -0.1178 -0.1800  0.0409
26319W        W41788  12.512  14.492  14.822  0.0309  0.1000  0.1361
26320W        W41789   0.106   5.866  14.291  0.3330  0.0174 -0.0993
26321W        W41790  12.853  11.753  11.002 -0.1890  0.1422  0.1456
26322W        W41791   0.672  13.235  11.473 -0.3504 -0.0154 -0.0585
26323W        W41792  10.571  14.533   9.827  0.0785  0.0737 -0.0141
26324W        W41793  10.609  13.205  11.762 -0.1301  0.1406  0.1486
26325W        W41794  16.187   6.980   1.014 -0.2322  0.1899 -0.0269
26326W        W41795  13.327   3.133  14.313  0.2465 -0.1882  0.1017
26327W        W41796   3.337   4.996  12.328 -0.3581  0.0560 -0.1343
26328W        W41797   8.028   1.270  14.434 -0.2211  0.1342 -0.0014
26329W        W41798   6.718   9.862   4.290 -0.1717 -0.0540  0.1754
26330W        W41799  15.755   4.662  14.773 -0.2883  0.4106 -0.0703
26331W        W41800  18.439   5.949   4.508  0.0439 -0.0811  0.3432
26332W        W41801  16.274   2.138   4.314 -0.2197  0.0521 -0.0900
26333W        W41802  12.622  11.467  11.335 -0.2640 -0.0162  0.4024
26334W        W41803  15.870   7.301  12.421  0.3630 -0.1150  0.3223
26335W        W41804   7.400   3.513  11.321 -0.0931 -0.0601 -0.0749
26336W        W41805   7.508  10.430   3.306 -0.2193 -0.0299  0.1034
26337W        W41806   4.013   2.810  12.426  0.0245 -0.0138 -0.1069
26338W        W41807   0.610  17.069  11.222 -0.1612  0.2282 -0.1000
26339W        W41808   5.123   0.154  15.593  0.0741  0.1230 -0.1147
26340W        W41809   8.422   3.553  12.367 -0.0189 -0.4237 -0.0515
26341W        W41810  17.448   9.026   9.399 -0.0239  0.0496 -0.1883
26342W        W41811   3.216  12.358  13.009  0.1853  0.1191 -0.1200
26343W        W41812  15.181   2.235   0.090  0.1370  0.1071  0.0749
26344W        W41813  12.174  17.770  14.307 -0.0718  0.0579  0.1227
26345W        W41814  13.208  11.166  12.801 -0.1461  0.2886 -0.2418
26346W        W41815   3.152  15.558   1.988 -0.1380  0.0254  0.3573
26347W        W41816   2.344   8.074  13.899  0.3225  0.1172  0.0789
26348W        W41817   0.947   2.405  15.252 -0.3751 -0.2738 -0.2547
26349W        W41818  15.080  18.099  13.847 -0.2553 -0.1941 -0.4693
26350W        W41819  18.111   1.515  12.672 -0.2480  0.1396 -0.3051
26351W        W41820   2.968  17.109  10.544 -0.0973 -0.0540  0.0475
26352W        W41821   4.794   8.426   3.040 -0.0243  0.2223  0.1482
26353W        W41822  16.271  13.686   2.221 -0.1563 -0.0259 -0.0458
26354W        W41823  15.513   7.733  14.200  0.0350 -0.3447  0.2718
26355W        W41824   3.051   6.124  10.581 -0.2501  0.0387 -0.0762
26356W        W41825   6.878  18.220   5.314  0.1162 -0.2137 -0.0183
26357W        W41826  16.030  18.001   0.009  0.0447  0.2882 -0.0893
26358W        W41827   8.888  17.834  14.724 -0.0467  0.0266  0.1468
26359W        W41828  12.808   0.218   3.397 -0.3324 -0.4202 -0.1100
26360W        W41829  11.400   6.082  11.080 -0.1854 -0.0283  0.3275
26361W        W41830   3.172  12.057   0.053  0.2332 -0.2003 -0.0714
26362W        W41831   1.028   7.241  14.758  0.0771 -0.4066 -0.1222
26363W        W41832  10.473  12.990   3.747  0.2953 -0.0555 -0.1302
26364W        W41833   4.831   4.958   1.147 -0.2149  0.1399  0.0305
26365W        W41834  15.826   9.547  15.439 -0.2177 -0.4414 -0.0342
26366W        W41835   7.199   7.976  13.518 -0.3870  0.0924 -0.0845
26367W        W41836   0.776   2.377   4.237  0.1245 -0.1627  0.0712
26368W        W41837   1.382   2.539   1.278 -0.0971  0.2484  0.0046
26369W        W41838  14.371   8.313   0.755  0.2430 -0.1904  0.0277
26370W        W41839  17.424   6.162  12.613  0.0548 -0.0094  0.1757
26371W        W41840   5.299  17.694   3.054  0.5826  0.3537 -0.1484
26372W        W41841   8.042   0.142   4.785  0.1437 -0.1439  0.0608
26373W        W41842  16.600  10.743  12.837  0.0188  0.2318 -0.5197
26374W        W41843   0.116  16.746   5.412 -0.1210 -0.2408  0.0533
26375W        W41844  10.907   0.391   4.042  0.1300 -0.1014  0.1176
26376W        W41845  11.751   4.614   0.718 -0.1074 -0.2503 -0.2850
26377W        W41846   5.861   1.337   2.143 -0.1202 -0.1376  0.0905
26378W        W41847   5.292  17.478  15.135 -0.1729 -0.0295  0.2815
26379W        W41848  11.942  15.300   3.600 -0.4193  0.2918 -0.0193
26380W        W41849   3.533   1.617   5.048  0.0316 -0.2387 -0.0989
26381W        W41850   4.254   0.969   2.015 -0.2916 -0.4509 -0.0411
26382W        W41851  11.304   8.197   0.969  0.2250  0.0578  0.1241
26383W        W41852   0.589  13.406  12.477  0.1511  0.1325  0.1430
26384W        W41853   3.090  14.575   4.680  0.3145  0.1006  0.3132
26385W        W41854   4.407   8.863  11.058  0.2580 -0.0441  0.2142
26386W        W41855  10.871   6.199  14.535 -0.0896  0.1212  0.2624
26387W        W41856   5.954   8.071  12.549  0.0586  0.0814 -0.0403
26388W        W41857  14.787  11.196   4.500 -0.0293  0.2412 -0.2950
26389W        W41858  13.670  16.152   2.754 -0.0228  0.2035 -0.0040
26390W        W41859   4.790   9.680  11.669 -0.1400  0.1703 -0.1808
26391W        W41860   1.534   0.675   4.342 -0.0458  0.0566 -0.2550
26392W        W41861  13.929  17.099  11.458 -0.1064 -0.2236  0.2254
26393W        W41862   6.097   5.992   1.523 -0.0677  0.0534 -0.1367
26394W        W41863  17.110  17.885  14.493  0.1023  0.0290 -0.1387
26395W        W41864  16.240   4.313   9.860  0.1525 -0.1547 -0.3100
26396W        W41865   4.306   1.941   4.813  0.0602  0.0175 -0.1603
26397W        W41866   6.909  18.173  13.106 -0.0052  0.1729 -0.0636
26398W        W41867   2.496   7.125   1.319 -0.0626  0.1705 -0.1351
26399W        W41868   2.789   2.287   2.893  0.0964  0.2037  0.0272
26400W        W41869   1.877  12.707   4.398  0.2407  0.0775 -0.3597
26401W        W41870   1.040  12.590   1.225 -0.3040 -0.0223 -0.1223
26402W        W41871  15.095  14.373   4.639  0.2353  0.0589 -0.5074
26403W        W41872  16.498   9.707   3.655 -0.1152  0.1474  0.0062
26404W        W41873  16.429  13.665  11.250 -0.0377  0.3445  0.0754
26405W        W41874  15.874   3.047   3.927 -0.3924 -0.1759 -0.1163
26406W        W41875   0.908   9.146  11.925 -0.1488  0.0136  0.1487
26407W        W41876  17.273   1.188   4.207 -0.1513  0.1288 -0.0317
26408W        W41877  10.818  10.707   4.805 -0.1648  0.2120  0.3051
26409W        W41878   4.856   6.549  13.863  0.0988  0.2202  0.1107
26410W        W41879  12.953  11.738   1.427  0.0073  0.2379  0.1526
26411W        W41880  13.073  14.719   3.562  0.0225  0.1979  0.0036
26412W        W41881   9.258   9.473   4.978  0.0786  0.1455 -0.0935
26413W        W41882   0.355   7.602  13.972  0.0308  0.2980  0.2446
26414W        W41883  13.200   9.594   3.323  0.0024 -0.1899 -0.0539
26415W        W41884   8.427   9.998   3.769  0.2949 -0.1396  0.3102
26416W        W41885   5.551  13.357   1.505 -0.0407  0.0226 -0.0450
26417W        W41886  13.881  17.841  11.933 -0.2963  0.0587  0.0956
26418W        W41887   0.215   5.609   4.602 -0.0741 -0.3872 -0.1848
26419W        W41888  13.106  11.706  12.755  0.4013  0.3628  0.0896
26420W        W41889  17.719  15.709  14.546  0.0026 -0.2846 -0.1529
26421W        W41890   7.375  15.016   3.817  0.3269 -0.0824 -0.0423
26422W        W41891  10.259  18.377   2.093  0.0682  0.3434  0.1225
26423W        W41892   2.487  17.817  12.294  0.1332  0.1825 -0.0387
26424W        W41893  17.975   0.219   4.905 -0.0509 -0.4198  0.0422
26425W        W41894   5.622  11.290  13.628 -0.1003  0.2665 -0.0315
26426W        W41895  14.920  16.729  11.269 -0.1399 -0.0854  0.0879
26427W        W41896  12.378   5.758   0.452  0.0422 -0.0134 -0.0325
26428W        W41897   6.126  12.503   5.003  0.1066 -0.2135 -0.0897
26429W        W41898   7.239   0.622  13.272  0.0532  0.2392  0.0806
26430W        W41899   2.423  16.358   4.896 -0.0490  0.0686 -0.0868
26431W        W41900  17.149  11.050  12.327  0.1121 -0.1853  0.0260
26432W        W41901   4.527  12.407  11.939 -0.0961 -0.0911  0.0801
26433W        W41902   3.704   2.788   1.821 -0.1529  0.2288  0.2380
26434W        W41903   8.651  11.131  11.349 -0.0257 -0.1988  0.1273
26435W        W41904  13.462   5.003   4.213 -0.0761 -0.2665  0.0621
26436W        W41905   8.865   5.365  12.064  0.0814  0.5812 -0.2199
26437W        W41906   5.682   2.362   2.119 -0.2496 -0.0049 -0.2177
26438W        W41907   4.109   4.115  13.824 -0.1492 -0.1992 -0.0091
26439W        W41908   4.430  13.533  10.697  0.2399 -0.3573 -0.3909
26440W        W41909   9.485  15.030   5.117 -0.0218 -0.1232  0.1889
26441W        W41910  18.611  18.120  13.065  0.1631  0.1525  0.3916
26442W        W41911   1.101   2.969  12.718  0.1251  0.2698  0.2959
26443W        W41912  14.828  15.242  15.562  0.4004 -0.2845 -0.0431
26444W        W41913  12.490  13.815   3.236  0.1917 -0.0963  0.1211
26445W        W41914  10.930   6.707   3.504  0.1498 -0.1458 -0.0776
26446W        W41915  11.421   4.692   1.718 -0.2791 -0.0982  0.0398
26447W        W41916   5.822   3.575  12.929 -0.0869  0.5104  0.3509
26448W        W41917   8.491   0.029  14.349  0.0707 -0.1490 -0.0117
26449W        W41918   1.652  18.538  14.369 -0.1975 -0.5935 -0.0656
26450W        W41919   2.640   6.375   3.149  0.4680 -0.4509  0.1128
26451W        W41920   5.285  15.696   4.828  0.0217 -0.0020  0.3101
26452W        W41921   0.213   1.795   4.884 -0.4330  0.0237  0.3557
26453W        W41922   3.578  14.107   3.300 -0.2282  0.0720  0.0668
26454W        W41923  11.052   3.669  13.428  0.2685  0.0754  0.0066
26455W        W41924   5.991   1.647  11.224  0.0784  0.0516 -0.0157
26456W        W41925   3.726   1.249   0.019  0.0511 -0.1716  0.0125
26457W        W41926  12.413  13.797  15.489 -0.1647  0.0616 -0.2083
26458W        W41927   4.762  18.489   0.164 -0.0224 -0.2006  0.1328
26459W        W41928   7.694  15.779   1.793  0.0876 -0.1616  0.1089
26460W        W41929  16.429  14.963   2.134 -0.2200 -0.0251  0.0465
26461W        W41930   1.622   3.766  12.272 -0.0861 -0.0608  0.2754
26462W        W41931   7.758  18.494  12.690 -0.1659 -0.2282  0.0232
26463W        W41932  12.756  12.153   4.264  0.1091  0.0152  0.0917
26464W        W41933  15.447  15.546   0.776 -0.0649 -0.0939  0.2087
26465W        W41934  13.670   0.495   1.327 -0.3323  0.0484  0.0820
26466W        W41935  16.293   5.074  13.836  0.0978 -0.0069  0.0433
26467W        W41936   5.131   2.760  14.483  0.0006  0.1123  0.2024
26468W        W41937  18.388   2.628  15.638 -0.1975 -0.1895 -0.3522
26469W        W41938  15.636   6.522   2.065 -0.4043 -0.1937 -0.3880
26470W        W41939   0.593   2.649   2.430 -0.0504 -0.0486 -0.1593
26471W        W41940   0.956   4.980  15.559 -0.0358 -0.4178 -0.2024
26472W        W41941   1.370   8.730   2.861 -0.0048 -0.0127 -0.0609
26473W        W41942   2.336   5.892   4.184 -0.0402  0.0135 -0.0748
26474W        W41943  10.058  13.709   1.659  0.1609 -0.3011 -0.1295
26475W        W41944   5.838   0.020  12.960 -0.0741  0.2989 -0.0926
26476W        W41945  17.712  14.740   4.351  0.0149 -0.2858 -0.1683
26477W        W41946  11.750   3.112   1.040  0.2012 -0.2643 -0.1946
26478W        W41947   3.399  10.851   4.577  0.0478 -0.0566 -0.2000
26479W        W41948   0.981   6.140   2.147  0.3669 -0.2481 -0.3609
26480W        W41949   5.377   4.788  12.325 -0.2125  0.0052  0.1973
26481W        W41950   7.660   2.480   3.884 -0.1752  0.1004 -0.0960
26482W        W41951   2.689   3.936  11.300  0.0810 -0.1345 -0.0801
26483W        W41952  18.043   2.379   3.828  0.0938  0.0986  0.2282
26484W        W41953   2.747  15.067   4.851  0.0050  0.3588  0.0816
26485W        W41954  17.859  15.014   3.446 -0.0643  0.3726  0.3337
26486W        W41955  16.276   9.113   0.782  0.0081 -0.2213  0.2160
26487W        W41956   4.799  15.606  12.738 -0.0757 -0.1566 -0.2197
26488W        W41957   5.140  12.794  12.766  0.2202  0.1239 -0.1831
26489W        W41958  12.958   6.420   2.561 -0.1208 -0.2725  0.1974
26490W        W41959   8.574   6.065  14.975  0.2417 -0.0791 -0.1561
26491W        W41960  12.118  11.567  11.317 -0.1047  0.0823  0.0067
26492W        W41961   4.350  16.962   3.081  0.1572  0.2874 -0.2767
26493W        W41962   9.396   5.323  12.261 -0.2433 -0.0878 -0.2326
26494W        W41963   9.379   1.386   5.722  0.1959  0.1978  0.2116
26495W        W41964  13.765  13.842   0.158  0.1887  0.3081  0.0546
26496W        W41965  10.594   3.850   1.834  0.2947  0.1883  0.0154
26497W        W41966  13.390  16.828   0.574 -0.2430  0.2322  0.1404
26498W        W41967  11.352  13.613  12.324 -0.0805  0.1044 -0.3054
26499W        W41968   5.921   5.629  13.344  0.3103  0.0373  0.2075
26500W        W41969   7.627  12.501   4.766 -0.1416 -0.2227  0.5001
26501W        W41970  13.164  16.313   2.863  0.0798  0.1307  0.2142
26502W        W41971   6.094   8.091   3.949  0.3433 -0.3554  0.0076
26503W        W41972   0.863  18.438   5.791 -0.0012 -0.0528 -0.1747
26504W        W41973  10.162  11.044   3.530 -0.1501 -0.1266  0.4018
26505W        W41974   1.290   7.890   3.339 -0.2114  0.0804  0.1761
26506W        W41975   4.620   4.404  13.079  0.1115 -0.1956 -0.0078
26507W        W41976  13.770   4.121  12.192  0.2444  0.0794 -0.2003
26508W        W41977  16.485   7.207   9.805 -0.1709 -0.0379  0.0220
26509W        W41978  12.961  11.837   0.919 -0.3079  0.1259 -0.3463
26510W        W41979   5.679   7.105  13.706  0.0080 -0.1465  0.1295
26511W        W41980  16.847  13.654   3.090 -0.0419 -0.4744 -0.0228
26512W        W41981   2.932   0.413   0.952 -0.0157  0.4542  0.0606
26513W        W41982  11.888  12.495   3.032 -0.0029 -0.1619  0.1180
26514W        W41983  10.331   7.202   3.180 -0.0757  0.0742  0.0590
26515W        W41984   6.210  16.596  13.556  0.2135 -0.2432 -0.0189
26516W        W41985   3.862  15.784  11.674 -0.1451 -0.0882 -0.3176
26517W        W41986   0.777  17.069   1.193 -0.0147  0.0795  0.0868
26518W        W41987   3.438  18.066   0.393 -0.2038 -0.3401 -0.0153
26519W        W41988   6.010   8.308  10.600  0.1310 -0.0295 -0.0208
26520W        W41989  17.102   9.298  11.775 -0.1307 -0.1261 -0.0674
26521W        W41990   7.034   8.585  12.425  0.2310 -0.1437 -0.1015
26522W        W41991   6.888  13.518  10.576  0.0287 -0.1433  0.1575
26523W        W41992  10.668   9.806  12.242 -0.1246  0.0759 -0.1107
26524W        W41993   9.224   6.160  13.832 -0.0403 -0.1755  0.0994
26525W        W41994  13.367  18.116   5.112  0.0762  0.2914 -0.1697
26526W        W41995   5.888   7.856  13.089 -0.1557 -0.2023 -0.1808
26527W        W41996  13.846   7.653  12.372 -0.2927  0.0303  0.0446
26528W        W41997   6.942  10.001  11.456  0.1072 -0.1542  0.2572
26529W        W41998   5.537  11.376   1.195 -0.1194  0.0058  0.0918
26530W        W41999   1.647  12.389   2.855  0.1241 -0.2875  0.0391
26531W        W42000  16.245   9.436   4.413  0.1669  0.1492  0.1904
26532W        W42001   3.062  15.981  12.938 -0.1004 -0.3730 -0.0309
26533W        W42002   5.389   2.662  13.055  0.0188  0.3366  0.1205
26534W        W42003   2.306  16.010  15.549  0.3475 -0.2810 -0.1079
26535W        W42004  14.408  16.905  15.463 -0.0095 -0.2016  0.4039
26536W        W42005  13.384   3.564   4.927  0.2539 -0.1448 -0.0293
26537W        W42006  17.436  15.770   1.388  0.1563  0.0687 -0.0304
26538W        W42007  16.376  11.891   5.115  0.2406  0.0047  0.0324
26539W        W42008   5.101   9.267  12.553  0.1942  0.2279  0.1868
26540W        W42009   7.827   1.723  11.493  0.0184  0.0561  0.0955
26541W        W42010  18.100  11.723  13.306 -0.1342  0.1976  0.0403
26542W        W42011  14.305  13.763   0.299 -0.2799 -0.2874  0.0356
26543W        W42012   1.340   6.660  15.661  0.0084  0.2347  0.2805
26544W        W42013  12.380   4.552   2.537  0.0315  0.1379 -0.1588
26545W        W42014  15.733  15.272   1.177 -0.1361 -0.0819 -0.1270
26546W        W42015  13.062   1.826  14.401  0.1223  0.0823 -0.1985
26547W        W42016   3.258   6.230   5.780 -0.1137  0.0331  0.2443
26548W        W42017   8.991   2.480   2.496 -0.0304 -0.2759 -0.1649
26549W        W42018   0.863   7.767  15.597  0.0763 -0.3575  0.1752
26550W        W42019   0.404   8.580   5.554  0.1718 -0.0001 -0.0774
26551W        W42020   9.622  12.898   3.279 -0.0911 -0.1769  0.1213
26552W        W42021  13.287  16.884   4.121  0.0372 -0.0195  0.0704
26553W        W42022  17.484   8.990   1.436 -0.0831 -0.3066 -0.0976
26554W        W42023   1.518  17.212   3.292  0.1301 -0.5286  0.2816
26555W        W42024   1.245  12.599  11.663  0.2396 -0.2748  0.4248
26556W        W42025   4.141  12.262  10.818  0.2302 -0.0951 -0.2994
26557W        W42026   5.743  18.472   1.776 -0.0581 -0.1718  0.0975
26558W        W42027   9.065   2.234  11.132  0.1004 -0.0534  0.1649
26559W        W42028   2.947  18.248  14.283 -0.1917 -0.0749 -0.2718
26560W        W42029   3.717   0.333  13.514 -0.0247 -0.0512 -0.0606
26561W        W42030   6.476   5.987   3.373  0.2833 -0.1229 -0.3230
26562W        W42031   2.079   5.179  13.702 -0.2141 -0.2084 -0.4397
26563W        W42032  11.571  16.351   4.248 -0.2047 -0.1344  0.2616
26564W        W42033   5.830  13.501  14.792  0.0903 -0.0174  0.0903
26565W        W42034  13.893   5.963   2.124  0.4340 -0.1228 -0.0503
26566W        W42035  17.422   9.741  15.118  0.1486 -0.0120 -0.3244
26567W        W42036   3.569   7.373  14.978  0.2392 -0.2293  0.0373
26568W        W42037  12.874  11.727  15.695  0.2856 -0.2860 -0.4932
26569W        W42038   3.001   3.927  13.299  0.2185 -0.2451 -0.1677
26570W        W42039  14.148  10.835  10.999 -0.2356  0.0035 -0.0405
26571W        W42040   6.369   3.288  10.192  0.1456 -0.0966  0.3045
26572W        W42041   2.666   3.603  14.951  0.0698  0.0346  0.0477
26573W        W42042  10.518   3.023  13.914  0.0204 -0.0667  0.1214
26574W        W42043   5.240   9.774  13.270  0.4476 -0.0201  0.1983
26575W        W42044  14.104   0.308  11.447 -0.0977 -0.2035 -0.0126
26576W        W42045   3.018  16.334   3.573 -0.2227  0.2133  0.2622
26577W        W42046   8.635  14.258   2.479 -0.1726  0.1967 -0.2178
26578W        W42047  15.337  13.673   6.118 -0.0788  0.0019  0.1000
26579W        W42048   9.441  13.405  13.109  0.2342  0.0441 -0.0569
26580W        W42049   5.144   3.938  12.451  0.1469  0.1506  0.3378
26581W        W42050   1.195   6.057  13.232 -0.1536 -0.0766 -0.1569
26582W        W42051  14.918  18.106   4.059  0.2853  0.0064  0.1726
26583W        W42052  17.606  17.394  12.967 -0.0990 -0.3557  0.1126
26584W        W42053   7.088  16.978  11.187 -0.1271 -0.3292 -0.0512
26585W        W42054  14.584  16.596  14.582 -0.1599 -0.2129  0.1033
26586W        W42055  12.361   9.931  15.368 -0.0478  0.0340 -0.2849
26587W        W42056  16.024   0.527   1.060  0.1956 -0.2358  0.1211
26588W        W42057  17.665  13.068   3.529 -0.1311 -0.3069  0.1591
26589W        W42058   7.594   2.229   3.469 -0.1009 -0.1604 -0.3686
26590W        W42059   3.068   5.500   3.323 -0.1802  0.0754  0.3880
26591W        W42060  12.891  14.093   3.336  0.0452  0.1327 -0.1958
26592W        W42061   9.979  15.721   3.587  0.0925  0.1002  0.1667
26593W        W42062  11.274   5.163  12.721 -0.1603 -0.2358 -0.0824
26594W        W42063   7.115  18.587   4.481  0.4129  0.2063 -0.2928
26595W        W42064  17.496   6.463   4.046 -0.2431  0.0593  0.0192
26596W        W42065  12.136  14.759  12.188  0.0262  0.1421  0.1961
26597W        W42066  15.013  18.465  12.249 -0.1654 -0.0406 -0.2070
26598W        W42067   1.694  12.173   1.200 -0.2038  0.2074  0.0787
26599W        W42068  17.234  14.789  15.136  0.2710 -0.0008 -0.0066
26600W        W42069  11.937  16.909   3.831  0.2164 -0.0113 -0.1086
26601W        W42070  15.412   1.081   3.687  0.1425 -0.1923 -0.2685
26602W        W42071  17.287   3.801  11.363 -0.1644 -0.0637 -0.0274
26603W        W42072   2.724  11.576   1.840 -0.0381  0.2714 -0.1286
26604W        W42073   4.814  11.630  14.944  0.1398 -0.0540 -0.2696
26605W        W42074  14.495   9.870   5.116  0.0445  0.0460  0.0237
26606W        W42075   0.878  16.707   1.481  0.0713  0.4055  0.1400
26607W        W42076  14.956  17.578  14.295  0.3028  0.1957 -0.2182
26608W        W42077   8.530   8.220  10.375 -0.1321 -0.4808 -0.0705
26609W        W42078  16.172   3.467   0.211  0.0832 -0.2247 -0.1039
26610W        W42079  13.330   3.719  15.313  0.0076  0.2168  0.2346
26611W        W42080  12.791  18.444  11.653 -0.0995 -0.0787 -0.0914
26612W        W42081  17.366   2.649  12.796  0.1681 -0.2390 -0.1292
26613W        W42082  13.915  16.528  13.695  0.1387 -0.2251 -0.0320
26614W        W42083  10.632   0.152   3.258 -0.2534 -0.0605  0.0799
26615W        W42084   1.506   6.457  15.005  0.1156 -0.2919  0.0962
26616W        W42085  15.000   9.274  14.806 -0.2560  0.3138  0.0681
26617W        W42086  17.445   2.283   5.445 -0.4008  0.0661  0.0805
26618W        W42087  17.956   5.969  10.606 -0.0467 -0.1753 -0.1102
26619W        W42088   3.601   2.933   2.350 -0.0989  0.2828  0.0738
26620W        W42089  10.145  11.511   4.747  0.1944 -0.2221 -0.0660
26621W        W42090  10.805   8.161   3.522  0.0045  0.3149  0.4522
26622W        W42091   9.200   5.608  13.756 -0.2205 -0.0194 -0.2116
26623W        W42092   8.959   5.152  15.489 -0.0892 -0.0454 -0.2669
26624W        W42093  18.382   3.253   3.811 -0.1996 -0.0845  0.0681
26625W        W42094   9.052   9.372   4.460  0.0587  0.1733  0.1408
26626W        W42095   2.528   1.566  13.296  0.2900 -0.1287  0.3458
26627W        W42096   8.962  18.489   2.413 -0.3945 -0.0313 -0.0528
26628W        W42097  15.459   4.283  11.314  0.1437 -0.0189  0.4787
26629W        W42098   7.118  12.139  11.118 -0.4157 -0.2094 -0.0730
26630W        W42099   4.018   9.794  14.275  0.2068 -0.0223 -0.2322
26631W        W42100  14.141   6.285  14.968  0.0824 -0.0373  0.2846
26632W        W42101   9.420  12.204   5.280 -0.3156 -0.0026  0.0667
26633W        W42102   3.163   7.489   3.372 -0.0283  0.2906  0.1227
26634W        W42103   0.170   9.881  15.570  0.0532  0.1293 -0.2196
26635W        W42104   2.461   0.171  11.536  0.3158  0.1171  0.1034
26636W        W42105  10.621  16.804   0.293  0.3268 -0.2550  0.2990
26637W        W42106  13.048   4.691   5.245 -0.2022  0.1661 -0.1319
26638W        W42107   9.998  11.259   0.128 -0.0648 -0.0274 -0.1873
26639W        W42108  15.459   4.708   1.586 -0.0413  0.1875 -0.2137
26640W        W42109   5.360   1.870  14.696  0.1186  0.0812 -0.0964
26641W        W42110   2.107   5.254  14.650  0.3552  0.0067  0.0267
26642W        W42111  14.854   4.509   1.904  0.2846 -0.2192 -0.0048
26643W        W42112   7.093  16.411   2.763 -0.1468 -0.0003 -0.1194
26644W        W42113  13.180   5.882   3.543 -0.0683  0.1475  0.0422
26645W        W42114   1.743   4.318  12.909  0.0073 -0.0750  0.3503
26646W        W42115   8.679  18.189  13.319 -0.0951  0.0167  0.0121
26647W        W42116   0.562  14.848  11.678  0.0126  0.3004 -0.1726
26648W        W42117   6.535   2.990   3.927 -0.2602  0.0007  0.3370
26649W        W42118  11.196   5.785   4.794 -0.0221  0.2049 -0.2311
26650W        W42119   0.496  11.203   1.071  0.3700 -0.3151  0.2266
26651W        W42120   1.822  10.613  10.647  0.0156  0.1199 -0.0260
26652W        W42121   8.847  15.555   1.601 -0.2837 -0.3967  0.3221
26653W        W42122   2.875  11.639   2.394  0.0499 -0.2884  0.1843
26654W        W42123   9.082   8.632   5.308  0.0814 -0.0694 -0.2309
26655W        W42124   9.821  12.770   4.695  0.1951 -0.2136 -0.1596
26656W        W42125   2.754   9.362  11.179 -0.0493 -0.4277  0.1034
26657W        W42126   6.773  14.066   1.242  0.0077  0.0953 -0.0441
26658W        W42127   6.409   0.808   0.105  0.0761 -0.1786 -0.4021
26659W        W42128   4.813  15.626   1.857 -0.1247  0.0860 -0.1271
26660W        W42129  15.300  18.128   0.336  0.3473  0.0936  0.1334
26661W        W42130   4.690   8.825  14.929  0.2198  0.0226  0.2089
26662W        W42131   8.829   7.394   1.801 -0.2415  0.1660 -0.0164
26663W        W42132  11.198  16.135  15.118 -0.1837  0.1024  0.2180
26664W        W42133  13.459   5.026   1.768  0.0134  0.1978 -0.4485
26665W        W42134   3.330   9.627   2.596  0.0235  0.1718 -0.0492
26666W        W42135  10.255  15.141  15.044 -0.0611  0.1233  0.0721
26667W        W42136   4.807   7.769   0.546 -0.1113 -0.0556 -0.1564
26668W        W42137   8.187  16.591   0.714  0.0003  0.1989 -0.0183
26669W        W42138  12.232   1.457   0.587  0.1725 -0.0254 -0.1071
26670W        W42139  15.454   4.372   2.402  0.1843 -0.2529 -0.2641
26671W        W42140  17.429   2.538   3.845 -0.0289 -0.0010  0.0123
26672W        W42141   6.762   8.266  15.300  0.0455  0.2499 -0.0029
26673W        W42142   8.947   4.719   1.792 -0.0982 -0.0538 -0.2358
26674W        W42143   4.905  18.615  14.148 -0.0972  0.1362  0.1604
26675W        W42144  18.035  12.307  15.121 -0.0612  0.0536  0.0944
26676W        W42145  18.591   7.321  13.881  0.1365  0.0896  0.1980
26677W        W42146   9.323  18.503   0.923  0.2443 -0.1761  0.1257
26678W        W42147   5.458  18.513   0.701  0.1913 -0.1534  0.0331
26679W        W42148  14.264  15.559   2.529  0.0238 -0.0160  0.0609
26680W        W42149  16.265  13.063  12.176  0.2041  0.0304 -0.3717
26681W        W42150   1.784   4.681  12.202 -0.0681 -0.0003  0.0633
26682W        W42151   2.077   6.793  12.682  0.1078 -0.2115 -0.0605
26683W        W42152   1.795   3.091   1.995  0.2878 -0.3979 -0.0132
26684W        W42153   2.149  17.436   4.312  0.1922 -0.0421 -0.0047
26685W        W42154   9.628  10.322   2.349  0.2083 -0.1446  0.0707
26686W        W42155  10.152   4.560   4.649 -0.1062 -0.1944  0.1475
26687W        W42156   9.370  10.287   0.805  0.1405  0.2656 -0.0131
26688W        W42157   8.271  18.474  11.563 -0.0156  0.2805  0.2979
26689W        W42158   9.693   2.492  13.235  0.2051 -0.1027 -0.1451
26690W        W42159  18.522   4.192  11.015  0.1913  0.2161 -0.2848
26691W        W42160   1.103   0.228   0.254  0.4265 -0.0498  0.3032
26692W        W42161   4.891   9.186  14.616 -0.2480  0.1225  0.0475
26693W        W42162  10.351  11.047   0.873  0.2676  0.2925 -0.1973
26694W        W42163  11.579   5.459   5.624 -0.0143  0.2120 -0.2567
26695W        W42164   3.051   1.287   2.344  0.0361  0.1206 -0.0594
26696W        W42165   0.343  13.343   2.730  0.1224  0.2358 -0.1219
26697W        W42166   8.377  17.587   3.654  0.2495  0.0261  0.5597
26698W        W42167   1.310  15.184   0.629 -0.0730 -0.1329 -0.4439
26699W        W42168  15.390   6.128  13.770  0.1701  0.4035  0.1564
26700W        W42169   7.754  12.468   3.886 -0.4122  0.1875 -0.1953
26701W        W42170  18.412  13.237  14.275 -0.1261 -0.3362  0.2867
26702W        W42171  10.865   5.837   4.389  0.2785  0.1560  0.1645
26703W        W42172   1.748  10.827   3.111 -0.3655 -0.0431 -0.0386
26704W        W42173  16.436  17.638   0.863 -0.0407 -0.1585  0.0670
26705W        W42174  14.728   9.859  11.493 -0.0664 -0.3696 -0.0584
26706W        W42175  10.491  17.756  12.933 -0.1129 -0.2441 -0.0743
26707W        W42176   8.109   4.350   4.853 -0.2965 -0.2875 -0.1299
26708W        W42177  10.115   2.993   5.367  0.1842  0.0924 -0.3045
26709W        W42178  16.292  10.185  15.102  0.0163 -0.1113 -0.4798
26710W        W42179  18.259   1.399  13.702  0.0484 -0.0562  0.1782
26711W        W42180   2.181  18.410  13.920 -0.4118 -0.0612  0.2360
26712W        W42181   6.845   6.444   4.876 -0.1908 -0.1016 -0.1568
26713W        W42182  16.705   8.377   1.832  0.0651 -0.0465 -0.0345
26714W        W42183   1.747  13.403   0.247 -0.1266  0.0863  0.1347
26715W        W42184   7.190   7.075   2.198  0.0438 -0.3447  0.1216
26716W        W42185   1.476   3.447   1.724  0.2081  0.0932  0.1770
26717W        W42186   3.802  10.908  10.639  0.0168 -0.3312 -0.0897
26718W        W42187  16.740  18.219  11.684 -0.3108  0.1987  0.1370
26719W        W42188   4.800  13.767   5.005 -0.1707  0.1801  0.1523
26720W        W42189  15.595   7.547  11.144  0.1452  0.0552  0.4996
26721W        W42190  15.552   4.900  13.752  0.0338  0.1846  0.1386
26722W        W42191   9.903   1.054  14.577  0.0813  0.2716 -0.0049
26723W        W42192  17.457   7.657   2.606 -0.4198 -0.0467 -0.0742
26724W        W42193   4.323   0.601   1.654  0.0608 -0.0618  0.2551
26725W        W42194  17.502  14.173   3.668 -0.0101  0.0342 -0.0969
26726W        W42195  15.106  15.640  14.028 -0.0713 -0.4176  0.2562
26727W        W42196  12.541   3.694   1.255  0.0839  0.4413  0.0174
26728W        W42197   8.296   4.536   0.616 -0.3236  0.1339  0.2247
26729W        W42198  13.859  11.032  11.975  0.1064 -0.3826 -0.1258
26730W        W42199   0.578   8.981   0.045  0.1183 -0.1021 -0.1798
26731W        W42200   7.183   0.461   4.256  0.1268 -0.1141  0.0194
26732W        W42201  14.380   8.993  12.782  0.0604  0.0811 -0.4362
26733W        W42202   5.838   7.844   1.525  0.1879 -0.1110 -0.1317
26734W        W42203  15.102  13.482   3.649  0.0709  0.0056  0.4905
26735W        W42204  13.031  16.314   5.073  0.0866  0.2727 -0.2023
26736W        W42205   5.839  17.781   0.269  0.0893  0.1899  0.2187
26737W        W42206   0.604   9.960  12.477 -0.2900  0.0119 -0.2546
26738W        W42207   0.266  15.277  11.995 -0.3656 -0.1668  0.3130
26739W        W42208   1.035   2.321   3.812  0.0941 -0.1331  0.1011
26740W        W42209  12.763   8.408  12.011 -0.1394 -0.1418 -0.0479
26741W        W42210  10.670  11.945   5.385 -0.3079  0.2839  0.1473
26742W        W42211   9.229   9.172   0.726  0.2319 -0.0660  0.2759
26743W        W42212   2.772   7.125   3.780  0.2914  0.1330 -0.2029
26744W        W42213  14.898   8.326  13.169 -0.3091  0.1374  0.2282
26745W        W42214   3.711  12.142   9.150 -0.1803  0.2376 -0.0725
26746W        W42215   9.144   6.630   2.600  0.0110 -0.0457  0.0326
26747W        W42216  10.537  14.700  14.962  0.2414 -0.1045  0.0852
26748W        W42217  17.142   6.402   4.853  0.4491  0.0004  0.0492
26749W        W42218   2.307  13.443   3.280  0.2472 -0.0832  0.4397
26750W        W42219   2.955   2.730   3.027  0.2445  0.1195 -0.0738
26751W        W42220  13.486   8.077   4.658 -0.0179 -0.0319 -0.0342
26752W        W42221  14.781  14.728  10.960  0.0186 -0.1988  0.1960
26753W        W42222   8.526   7.388   0.667 -0.3903 -0.2185 -0.0004
26754W        W42223   1.031  15.723  15.515  0.1293  0.0197  0.3638
26755W        W42224   5.407   1.478   4.610  0.3619  0.1795 -0.2123
26756W        W42225  16.022   3.887  15.074  0.0634  0.0624  0.3713
26757W        W42226  17.809  14.196   0.991  0.2115 -0.3319 -0.2226
26758W        W42227  13.477   8.867   3.996  0.0489 -0.0323  0.0752
26759W        W42228  10.960   7.530  12.197  0.2354 -0.0435  0.0239
26760W        W42229   3.930  15.478   0.635 -0.0559  0.1047  0.3540
26761W        W42230  16.940   8.519   3.084 -0.2119 -0.1981 -0.1948
26762W        W42231  13.431   0.077  14.163  0.2110 -0.1285  0.1983
26763W        W42232   0.604  12.369   3.366  0.5499  0.1329 -0.1004
26764W        W42233  15.815   8.807  14.945 -0.0452  0.0810 -0.0253
26765W        W42234  13.405  11.748   1.096 -0.1945  0.1588 -0.1337
26766W        W42235   2.593   6.645   3.627 -0.0268  0.0546 -0.0503
26767W        W42236   7.522   5.071   2.232  0.2097  0.1582  0.2060
26768W        W42237   1.858   0.164  13.608 -0.3874  0.0127  0.0132
26769W        W42238   2.900  14.361  11.107 -0.1842 -0.1720  0.4594
26770W        W42239  14.831  15.677   5.320  0.0115 -0.0395 -0.1783
26771W        W42240   4.067  11.976  14.697  0.0868  0.1953 -0.2327
26772W        W42241   4.245   1.731  11.446  0.0634 -0.1579  0.1888
26773W        W42242   2.515  17.422   5.739  0.0288 -0.0033 -0.0722
26774W        W42243   5.662   4.730   2.149  0.4203 -0.0721 -0.2126
26775W        W42244   8.071   7.060   5.272 -0.0492  0.1024  0.0195
26776W        W42245  18.188   3.351   2.537  0.0134 -0.1237 -0.1480
26777W        W42246  12.292   8.843   0.518 -0.4017  0.0979  0.2252
26778W        W42247   1.677  12.999  10.353  0.2088  0.2510 -0.2762
26779W        W42248   4.618   4.609  14.862 -0.0678  0.1036  0.0162
26780W        W42249  11.541   2.305  13.181 -0.2084  0.2378 -0.1492
26781W        W42250   0.786   3.986  10.627  0.0054 -0.0224 -0.0755
26782W        W42251   0.775   6.095   3.048 -0.2358 -0.2955 -0.4120
26783W        W42252   7.276   7.071   3.999  0.0537  0.1181 -0.1063
26784W        W42253  11.343   2.314  14.968  0.2376 -0.2468  0.1020
26785W        W42254   3.325   8.648   0.692 -0.0050  0.2394 -0.0834
26786W        W42255   0.760   8.719  13.849  0.1417  0.0210 -0.0507
26787W        W42256  11.965  10.555  14.468 -0.0618  0.2545  0.3011
26788W        W42257   3.262  10.466   4.876  0.0429  0.0444 -0.0587
26789W        W42258   7.571  12.600  13.670 -0.1404  0.1001  0.0259
26790W        W42259   8.159  17.794   4.838  0.0953  0.2596 -0.2875
26791W        W42260   9.085  12.386  15.460  0.0420  0.0911  0.2367
26792W        W42261   7.003   2.899   3.753  0.0966 -0.1388  0.0169
26793W        W42262  14.186  16.806  14.041 -0.1520  0.2729  0.0257
26794W        W42263   8.315  17.723   0.508 -0.0210 -0.0010 -0.0406
26795W        W42264  16.765   1.069  11.502 -0.0644 -0.2764  0.0027
26796W        W42265   1.706   0.892  14.661 -0.0270  0.2226  0.3055
26797W        W42266   7.356   1.440  11.733 -0.2947  0.0708 -0.2929
26798W        W42267   7.591   9.804   0.747  0.1658  0.0863  0.0841
26799W        W42268  13.152   2.751   4.399  0.1047 -0.1166 -0.0435
26800W        W42269  13.140  13.367   0.722  0.1417  0.1073  0.3093
26801W        W42270   6.314  13.336  11.400  0.1519  0.3084 -0.1075
26802W        W42271   8.932   7.069   6.627  0.0137 -0.2241  0.0874
26803W        W42272  15.774   7.732   2.656 -0.0005 -0.0442  0.0629
26804W        W42273  12.943  13.131  13.983 -0.0946 -0.0660 -0.1832
26805W        W42274  14.803  11.081   4.010  0.3755 -0.1738 -0.2466
26806W        W42275   0.466  13.262  14.087  0.0153 -0.2884 -0.3652
26807W        W42276   1.080  12.018   2.056 -0.0475 -0.1758 -0.0977
26808W        W42277  16.400   8.479  10.631  0.3650 -0.0141  0.1384
26809W        W42278   0.629   5.531  11.648  0.1853  0.1197 -0.1194
26810W        W42279   6.332  15.479   4.477 -0.0761  0.2566 -0.1436
26811W        W42280  11.964  17.043   1.213 -0.1499  0.1178  0.3591
26812W        W42281   4.551   4.629   1.391  0.1503  0.2689  0.1997
26813W        W42282  14.423  10.069  12.705 -0.1254 -0.3835 -0.1001
26814W        W42283  17.351   4.324  13.714 -0.0629 -0.3019  0.1733
26815W        W42284   1.844   6.622   0.749 -0.1085  0.3406  0.2572
26816W        W42285  16.508  15.174  13.945 -0.2735 -0.1422  0.0152
26817W        W42286  14.142   4.938  12.257  0.2111 -0.3137  0.1576
26818W        W42287   0.132   6.837   2.575  0.1205 -0.0898  0.0310
26819W        W42288   7.730   6.292   4.017 -0.0713 -0.0635 -0.3127
26820W        W42289  10.490  12.246   4.839  0.0793 -0.1128  0.1826
26821W        W42290  14.690   1.438   5.171  0.0131 -0.0353  0.3097
26822W        W42291   6.887  12.543   4.190 -0.3264 -0.1285 -0.0939
26823W        W42292  12.634  18.472   2.077 -0.1395 -0.0686 -0.1082
26824W        W42293   9.073  16.177   1.502  0.1049  0.2758  0.0881
26825W        W42294  18.487  11.343  13.526 -0.0328  0.1287 -0.2085
26826W        W42295   5.501   4.057  14.063  0.1629 -0.0407  0.2314
26827W        W42296  13.208   4.457  11.184  0.0660 -0.1168 -0.1022
26828W        W42297   3.269  16.997   1.997 -0.0594 -0.0323  0.2075
26829W        W42298  11.063  14.418   1.076 -0.2552 -0.0129 -0.1683
26830W        W42299  15.281   2.668   1.014  0.3576  0.2016 -0.2403
26831W        W42300   8.390  11.084   4.871 -0.0412  0.0769  0.3184
26832W        W42301   6.988   8.406  11.951 -0.3359 -0.1399 -0.2560
26833W        W42302  12.907   7.740  14.793 -0.2202 -0.1610  0.1586
26834W        W42303   5.548   5.694   4.407 -0.2004 -0.1514  0.0068
26835W        W42304  16.357  11.991   2.908  0.0691 -0.1854  0.1534
26836W        W42305  10.109   1.216   2.787  0.0777 -0.0647  0.2756
26837W        W42306  14.636   0.031  12.479  0.3876 -0.1934  0.2354
26838W        W42307   4.294  11.989   5.631  0.0813  0.0946 -0.1245
26839W        W42308  17.049  11.871   9.925  0.0015  0.2004 -0.2351
26840W        W42309  17.460   5.922   3.272  0.1407 -0.1550 -0.3852
26841W        W42310  16.444   6.842  10.218 -0.1747 -0.2272 -0.0432
26842W        W42311  11.147   5.573  13.397  0.2717  0.3501 -0.1257
26843W        W42312  16.461  10.902   0.352 -0.2066 -0.2743  0.1018
26844W        W42313   1.703   1.112  12.850  0.0607  0.1767  0.2151
26845W        W42314   7.905   7.580  15.230  0.2397 -0.0079 -0.2775
26846W        W42315   8.259  17.051   0.420  0.1263  0.2851 -0.0470
26847W        W42316   4.853  13.537  14.619 -0.0238  0.1258 -0.4392
26848W        W42317   3.881   5.355   4.782 -0.4386 -0.0028 -0.2458
26849W        W42318   3.233   5.978  15.039  0.2053  0.1355  0.3775
26850W        W42319   9.856  14.646   1.905  0.0948 -0.3227 -0.1390
26851W        W42320  15.733   2.918  15.389  0.0395 -0.0434 -0.1303
26852W        W42321   4.087  11.044   0.196  0.0793  0.0975  0.1009
26853W        W42322  12.126   9.224  11.628 -0.2839  0.0402 -0.0545
26854W        W42323   3.342   0.734  10.796 -0.2844  0.1467  0.3968
26855W        W42324   1.294  15.908   4.640  0.0649 -0.1375 -0.0162
26856W        W42325  12.403  17.000   2.522  0.1301 -0.1697  0.0336
26857W        W42326   3.898  16.968   4.397  0.1380 -0.2514  0.3332
26858W        W42327   6.975   4.978   2.941  0.0762  0.0058 -0.0168
26859W        W42328   8.114  16.028  10.983 -0.2893 -0.2128  0.3793
26860W        W42329   0.146  18.135  12.594 -0.3621  0.2909  0.1422
26861W        W42330   3.368  18.506  15.206 -0.1049  0.2345  0.3726
26862W        W42331  18.220   7.341   9.281  0.1189 -0.0959 -0.1994
26863W        W42332   7.030  14.828   2.725 -0.2266  0.1306  0.3424
26864W        W42333   8.743  17.383   5.328  0.1584 -0.3783  0.2808
26865W        W42334   1.289  15.872   0.944 -0.0126  0.2444  0.1536
26866W        W42335   8.974  14.997   0.460  0.2906 -0.0181 -0.0818
26867W        W42336   1.266  11.476  10.903  0.0186  0.0949 -0.0315
26868W        W42337   7.352   3.278  15.128  0.0798  0.0876 -0.1375
26869W        W42338  11.550   7.547  12.153 -0.2883  0.0611  0.0825
26870W        W42339  14.943   3.744  15.326  0.1390  0.0401 -0.0326
26871W        W42340   0.392   3.276   4.568 -0.2190 -0.0196  0.0721
26872W        W42341   3.924   8.998  14.396  0.2245  0.0596  0.0795
26873W        W42342  12.413  16.665  13.669  0.0890  0.0707 -0.2422
26874W        W42343   1.867   8.405   9.074 -0.0494 -0.1467  0.1901
26875W        W42344  11.005   5.831   3.132 -0.0785 -0.0269 -0.0493
26876W        W42345   8.269  16.544   5.223  0.1022 -0.4018  0.0912
26877W        W42346   1.719  12.494  14.117 -0.4176 -0.2951  0.1052
26878W        W42347  14.332   7.203  12.624  0.0668  0.1399  0.1197
26879W        W42348   6.885   6.732   0.774 -0.0874 -0.1593 -0.1008
26880W        W42349   3.854   0.429   1.523  0.0574 -0.3301  0.2875
26881W        W42350   6.234  13.789   1.216 -0.1529  0.1044 -0.1918
26882W        W42351  11.020   2.926  12.145  0.1098  0.2376 -0.1699
26883W        W42352   9.394  11.148  14.630  0.1714  0.1808  0.0611
26884W        W42353   6.555   7.486   0.551  0.1699 -0.1161  0.3803
26885W        W42354  15.200  17.799  11.711 -0.0777  0.0713  0.1354
26886W        W42355  12.502   7.626   4.117 -0.0063 -0.1021  0.1292
26887W        W42356  13.906  14.156   3.953  0.1134 -0.1864 -0.1142
26888W        W42357  10.942   4.758   2.622 -0.2432 -0.2239  0.4099
26889W        W42358   7.711   2.592  14.793  0.0181 -0.1257  0.0874
26890W        W42359   4.588   9.677   4.149 -0.1083 -0.0085 -0.1125
26891W        W42360   2.943  18.235   5.783 -0.2371 -0.0342 -0.1848
26892W        W42361  10.879   1.016   5.757  0.2007  0.0957  0.2657
26893W        W42362  13.895  13.284  12.818  0.1056 -0.1563  0.1658
26894W        W42363  17.719   1.443  14.804 -0.2494 -0.3374  0.2018
26895W        W42364  10.155   3.242  13.558 -0.0432  0.2089  0.0892
26896W        W42365   9.773  12.141  10.834  0.0139  0.0420 -0.0766
26897W        W42366   6.249  14.542  14.443 -0.2247  0.2325  0.1068
26898W        W42367   5.056   9.259   1.296  0.2415 -0.0921 -0.0580
26899W        W42368   9.966  12.173  12.308  0.0619 -0.0073  0.0080
26900W        W42369  15.942   3.583   2.460  0.0555  0.1096  0.0956
26901W        W42370   8.031   8.590   3.699 -0.0128 -0.2794  0.0320
26902W        W42371  16.851  17.998   1.190  0.3610  0.0135 -0.0408
26903W        W42372  16.907   2.052  10.959  0.0382  0.0666 -0.0515
26904W        W42373   0.519  16.671  11.869 -0.3485  0.3758  0.2270
26905W        W42374   5.213   5.623  11.707  0.0714  0.1275 -0.1585
26906W        W42375  13.059  14.013   4.668 -0.0319  0.0567 -0.2490
26907W        W42376   8.296  10.876  15.440  0.0049  0.0518 -0.1392
26908W        W42377  15.224  15.565  11.732 -0.2215 -0.1095  0.1712
26909W        W42378  15.815   8.179   0.243  0.1058 -0.3301 -0.0333
26910W        W42379  16.758   2.748  12.461 -0.4146 -0.2292 -0.2065
26911W        W42380  12.837  13.723   0.581  0.0275 -0.1215  0.1575
26912W        W42381   6.371   8.288  15.647 -0.1651 -0.1075 -0.0264
26913W        W42382  12.357   2.284   1.457  0.0348  0.0792  0.2426
26914W        W42383   3.555   3.474  13.169 -0.0156 -0.0251  0.2502
26915W        W42384   1.915  13.828  10.098  0.0907  0.1112  0.0817
26916W        W42385   9.786   4.598  15.283 -0.2764  0.0607 -0.2279
26917W        W42386   8.439   9.283   5.576  0.0587 -0.1665 -0.1061
26918W        W42387   2.237   4.891   1.037 -0.0284 -0.0556 -0.1117
26919W        W42388   0.085   9.138  12.984 -0.1105 -0.1259 -0.0522
26920W        W42389  12.968  10.467  12.181  0.2032 -0.1448 -0.1540
26921W        W42390  14.485   0.644   0.092  0.0582 -0.1799 -0.0585
26922W        W42391  13.483   4.754   5.498  0.1678 -0.0175 -0.2011
26923W        W42392   5.558   9.285   5.577 -0.0851  0.4727 -0.0117
26924W        W42393   4.291  17.471  12.070  0.0862 -0.0151  0.0546
26925W        W42394  14.294  15.426  13.503 -0.3546 -0.0667  0.1253
26926W        W42395  17.690  12.998  14.719  0.3811  0.0509 -0.2315
26927W        W42396  10.137  17.796  14.720  0.1367  0.2402 -0.0456
26928W        W42397  16.860   3.694  12.253 -0.0136 -0.0918  0.0142
26929W        W42398   8.951  14.205  12.817  0.1509 -0.0996  0.2214
26930W        W42399   3.432   7.082   1.553 -0.1383 -0.0026 -0.2091
26931W        W42400   7.340   2.774   2.310 -0.0762 -0.0486  0.1027
26932W        W42401   5.705  16.748   2.432  0.0156 -0.2770 -0.1796
26933W        W42402  15.063   1.626  13.169 -0.1746 -0.3789  0.4586
26934W        W42403  12.228   4.096  12.259  0.0420  0.1203  0.0718
26935W        W42404   7.559  15.007   1.898  0.2228 -0.1646 -0.1073
26936W        W42405   0.688  15.850   1.785  0.0620  0.0036 -0.3250
26937W        W42406  14.197   0.217   1.326 -0.0259 -0.2148  0.0662
26938W        W42407   3.045   9.707  10.900 -0.1125  0.0378  0.1019
26939W        W42408   9.357   3.421  11.054 -0.3436 -0.2148  0.0935
26940W        W42409   0.913   6.624   2.365  0.0185  0.1469  0.2800
26941W        W42410  13.111   5.433   3.799 -0.0225  0.0700  0.3025
26942W        W42411   7.480  17.014  11.646  0.1544  0.1357  0.0595
26943W        W42412  16.451   6.845  15.730 -0.0060  0.2034  0.0495
26944W        W42413  17.603  16.403   3.557 -0.0603 -0.0637 -0.0789
26945W        W42414  10.846  10.515   1.208 -0.1913  0.0496 -0.0033
26946W        W42415  17.944  15.808  15.529  0.3765  0.0180  0.1526
26947W        W42416   5.189  13.316  13.684 -0.2670 -0.2530  0.1550
26948W        W42417   3.040   5.209   1.811 -0.1304 -0.1229  0.0861
26949W        W42418   2.982   0.705   0.044  0.1145 -0.0465 -0.0266
26950W        W42419  18.576   8.547  12.854 -0.0108 -0.1055 -0.1319
26951W        W42420   9.069   8.114  15.172 -0.3425  0.1436 -0.1074
26952W        W42421   8.667   8.961  13.230  0.0295  0.2181 -0.1709
26953W        W42422  12.843  14.279   5.601  0.1966 -0.0596  0.0833
26954W        W42423   7.004  11.275  14.007 -0.0412 -0.0893 -0.0610
26955W        W42424  18.289  17.632  15.555  0.0118 -0.4339 -0.1272
26956W        W42425  13.374  12.655   1.299 -0.0062  0.3387 -0.2843
26957W        W42426  14.624   4.741   2.861 -0.1614 -0.1379  0.3514
26958W        W42427   0.490  10.394  10.284 -0.1339 -0.1666 -0.0224
26959W        W42428  18.212   2.983  15.346  0.1161  0.0682 -0.2126
26960W        W42429   6.426  11.462  11.420 -0.0572 -0.1435 -0.4502
26961W        W42430   7.702  13.381  10.920 -0.3626  0.0662 -0.0879
26962W        W42431   7.595   1.313   5.122  0.3167 -0.0232  0.0667
26963W        W42432   8.498   0.456   5.138  0.2308  0.1476 -0.3996
26964W        W42433  17.104   7.147  15.026 -0.0975  0.2123  0.3882
26965W        W42434   8.964  14.214   5.122 -0.0966  0.0563 -0.2304
26966W        W42435   0.727  15.574   5.074 -0.0937 -0.0124  0.0929
26967W        W42436  15.233  14.646  14.309 -0.1533  0.1805  0.0518
26968W        W42437  15.311   9.673  10.978  0.2677 -0.0988 -0.0606
26969W        W42438  15.736   3.825  12.988 -0.1798  0.1582 -0.1720
26970W        W42439   7.391  10.295   0.766 -0.2149  0.2073 -0.0978
26971W        W42440  18.557  12.922   3.263 -0.0180 -0.1684  0.0636
26972W        W42441   6.065   0.650  14.560 -0.0351 -0.0043 -0.3269
26973W        W42442   2.012   7.538   1.289  0.0853 -0.1162  0.0118
26974W        W42443  11.452  12.421  10.823  0.0577 -0.1972  0.1277
26975W        W42444   5.564  13.482   2.027  0.1454  0.1969 -0.1555
26976W        W42445   1.016   7.903  11.029  0.0694 -0.0735 -0.4218
26977W        W42446  14.457   8.710   1.342 -0.0603 -0.1114  0.1986
26978W        W42447  13.680  10.187  11.354 -0.1195  0.1854 -0.0246
26979W        W42448  16.009   2.544   4.105 -0.1246 -0.0789  0.0986
26980W        W42449   3.331  12.049  10.989  0.0734 -0.0553 -0.2050
26981W        W42450  11.507   5.856   3.932  0.0746 -0.3880 -0.1414
26982W        W42451  17.272   6.984   3.979  0.2732  0.0041  0.0444
26983W        W42452  17.968  13.917   3.745  0.0202 -0.3936 -0.0698
26984W        W42453  12.405  10.227   0.263  0.2463  0.3536  0.0630
26985W        W42454  11.116  10.030   1.042 -0.0748 -0.1996  0.1004
26986W        W42455   2.927   4.419  10.830  0.1033 -0.3144  0.1434
26987W        W42456  10.681   8.456   2.742  0.2790  0.0655  0.3077
26988W        W42457  13.650   1.250  14.176 -0.1735 -0.0694 -0.0366
26989W        W42458   7.871   9.146   1.706 -0.0779 -0.2859 -0.0176
26990W        W42459  13.852  16.596   5.366 -0.1567  0.0554 -0.0116
26991W        W42460   5.649  14.156  10.569 -0.3226  0.3349 -0.0841
26992W        W42461   7.352  10.618  12.111  0.0396  0.2277  0.2875
26993W        W42462   0.571   9.115   1.939  0.0934 -0.2075  0.1201
26994W        W42463   5.624  17.697   5.285 -0.1043 -0.0507 -0.0955
26995W        W42464   6.053   2.582  12.304 -0.0469 -0.2714 -0.0151
26996W        W42465   0.163   4.896  12.117  0.5204 -0.1957 -0.2776
26997W        W42466   8.965   4.053  15.513  0.0451 -0.1072 -0.0302
26998W        W42467  10.034  17.651   5.573 -0.5268  0.0727  0.0298
26999W        W42468   3.059   3.308  15.240  0.0406 -0.0861  0.1396
27000W        W42469   5.462   5.797   3.920  0.2015 -0.0436 -0.1685
27001W        W42470  10.318   7.620   1.887  0.0766 -0.0499  0.1350
27002W        W42471   0.496  16.995  15.327 -0.1224 -0.0652  0.0536
27003W        W42472   0.951  11.250   3.764 -0.2209 -0.1252  0.0768
27004W        W42473   0.324   9.293  11.171 -0.5377 -0.2250  0.2525
27005W        W42474  17.692  14.335  12.395  0.1871  0.0142 -0.0058
27006W        W42475   7.477  11.359   2.083 -0.1297 -0.2117 -0.0114
27007W        W42476  17.017   6.059   4.233  0.3639  0.0643  0.0977
27008W        W42477   9.798   2.567  12.316 -0.1674 -0.2913  0.1346
27009W        W42478   1.389  13.040   2.716  0.1535 -0.0322  0.0435
27010W        W42479   2.391   8.365  12.216  0.0174 -0.3201 -0.2665
27011W        W42480   5.069   8.996   0.309 -0.1635  0.0417  0.0361
27012W        W42481   6.267   4.569  14.928  0.0380  0.2703  0.2366
27013W        W42482  11.094  11.376  12.069 -0.1698  0.2808  0.0332
27014W        W42483   8.532   1.937  13.027 -0.1865 -0.1778 -0.0348
27015W        W42484   6.790  12.381   0.326  0.1654 -0.1435 -0.1353
27016W        W42485   9.996   8.361  13.921  0.3474 -0.1002  0.2773
27017W        W42486   1.112   4.003   0.521 -0.1119 -0.3174  0.0640
27018W        W42487   3.732  16.715  14.727  0.0114 -0.2663  0.3753
27019W        W42488  11.165   2.388  13.608  0.0815 -0.3412 -0.1293
27020W        W42489  12.008   8.710   4.473 -0.0745  0.3146  0.1240
27021W        W42490   8.149   5.320   0.236  0.0356  0.3199 -0.1180
27022W        W42491   2.448   4.952  14.501 -0.0865 -0.1397  0.0947
27023W        W42492   2.293   5.674  15.608 -0.3311  0.1435 -0.0769
27024W        W42493  15.259   2.740   4.776  0.2467  0.2988 -0.1015
27025W        W42494   4.135   0.817  11.933 -0.1678  0.1293  0.1375
27026W        W42495   8.891   4.359   2.629 -0.1560  0.2558 -0.0664
27027W        W42496   3.759   4.834   2.860  0.0950  0.0698  0.1345
27028W        W42497   1.914  15.605  12.535 -0.1071  0.1226  0.0505
27029W        W42498  14.223   1.363  13.239  0.2135  0.2809 -0.1324
27030W        W42499  14.290   1.317   2.629  0.1811  0.2295 -0.0341
27031W        W42500  17.260  17.025  14.641 -0.2027  0.2457 -0.0252
27032W        W42501   8.611  15.562   5.344 -0.1538  0.0040  0.2630
27033W        W42502  17.364  18.471   0.431 -0.1716  0.2709 -0.4121
27034W        W42503   3.262   0.791   3.905  0.0655 -0.1539 -0.2013
27035W        W42504   7.518  15.983   3.869 -0.2471  0.3436 -0.2618
27036W        W42505   9.331  10.436  10.995  0.0532 -0.0044 -0.3755
27037W        W42506  11.198   9.606  15.435  0.2118  0.0792  0.1818
27038W        W42507   9.070   5.096   1.523  0.5154  0.0774  0.1407
27039W        W42508   4.818   8.733  11.780  0.0336  0.0233  0.1406
27040W        W42509   5.362   6.274  15.137  0.0857 -0.2324  0.2207
27041W        W42510   4.596  12.639   2.168  0.2145  0.3483  0.0287
27042W        W42511   7.918   2.612   2.298  0.0210 -0.0356  0.4920
27043W        W42512   8.822  14.970  11.928 -0.0681 -0.3027 -0.3548
27044W        W42513   9.953   0.796   1.544 -0.2901  0.2329  0.0469
27045W        W42514   5.888  15.743  14.043 -0.0459  0.1397 -0.1683
27046W        W42515   4.924   5.995  13.711 -0.0905 -0.1795 -0.1429
27047W        W42516   4.374   6.489   0.812 -0.1175  0.1229  0.0435
27048W        W42517   6.982   6.843   4.453 -0.2758 -0.4937  0.2072
27049W        W42518   2.069   7.573  13.335 -0.0225  0.1057  0.1992
27050W        W42519   3.098  10.821  12.425 -0.1045 -0.1932  0.1695
27051W        W42520   3.888   0.490   5.135 -0.0625  0.0849 -0.0082
27052W        W42521   6.074  12.011   5.239  0.0057 -0.4041 -0.0191
27053W        W42522   5.929  16.192   4.839 -0.0804 -0.3003  0.1954
27054W        W42523   5.191   2.652   4.356  0.0491  0.0052 -0.1826
27055W        W42524  14.162  13.271   3.488  0.2291  0.0665 -0.2694
27056W        W42525   7.233   0.622  12.756  0.1297  0.0486 -0.2393
27057W        W42526   5.855   7.091  14.166 -0.0681 -0.1821  0.1414
27058W        W42527  15.972   1.638  11.365 -0.3123  0.0300 -0.0421
27059W        W42528   9.331   5.781   1.775  0.0973  0.0983 -0.0403
27060W        W42529   6.848  10.254  15.346 -0.1734  0.2166 -0.3206
27061W        W42530   5.243  11.297  14.877  0.0304 -0.3100 -0.0183
27062W        W42531   6.332  17.096   3.648  0.2595  0.2131 -0.0999
27063W        W42532  12.319   4.633  12.323  0.1324  0.3742  0.2405
27064W        W42533   2.326   1.394   0.720  0.0576  0.2065  0.1273
27065W        W42534   5.915  11.725  11.133  0.1883  0.1711  0.0056
27066W        W42535  13.551  12.157  13.763 -0.0710  0.3317 -0.3167
27067W        W42536  13.002  10.958  13.747  0.0759 -0.2151 -0.0089
27068W        W42537  12.621  14.468   3.462  0.3045 -0.3008 -0.0018
27069W        W42538  18.581   1.975   5.317  0.1439 -0.4470 -0.0781
27070W        W42539   9.273   5.076  11.811  0.2238  0.4482  0.1185
27071W        W42540   6.778  12.460  10.147  0.2170  0.2642 -0.2942
27072W        W42541   2.413  10.375  11.923  0.3861  0.1742  0.0778
27073W        W42542   3.663  10.821  12.986 -0.1425 -0.0747  0.1288
27074W        W42543   1.374   8.128  14.197 -0.0278 -0.0644 -0.0393
27075W        W42544  16.056  16.682  15.287 -0.1760 -0.3075 -0.3530
27076W        W42545  14.238  17.819   1.876  0.0855 -0.3006 -0.0460
27077W        W42546   2.589  17.016  14.781 -0.0916  0.1402 -0.0815
27078W        W42547  11.140   2.605  12.627  0.2822 -0.1051 -0.0883
27079W        W42548  14.493  16.817  13.138 -0.4282  0.0586 -0.1789
27080W        W42549  12.153  15.669   3.249  0.2811 -0.0848  0.3072
27081W        W42550  10.054   0.228  12.058 -0.2228  0.0947 -0.0375
27082W        W42551  12.542   3.938  12.619 -0.0841  0.3012 -0.2645
27083W        W42552   4.102  14.899   3.300  0.0243 -0.0959 -0.0526
27084W        W42553   3.454   0.185   3.140  0.4959  0.1984 -0.2683
27085W        W42554   4.476  13.725  14.308  0.0609  0.1087 -0.1678
27086W        W42555   8.575   4.282   1.031  0.0067  0.0998  0.0414
27087W        W42556  16.360   1.422  11.534  0.0637  0.0151  0.1251
27088W        W42557  17.826  12.840  10.543  0.2104 -0.0777 -0.0125
27089W        W42558   5.875  16.613   2.864 -0.0501 -0.3023 -0.2361
27090W        W42559   4.847   1.334   3.267  0.0380  0.0439  0.0706
27091W        W42560   7.992   1.047   1.657  0.1639  0.0873 -0.0476
27092W        W42561  10.513   7.465  10.136 -0.1055  0.0177 -0.0387
27093W        W42562   4.820   1.324  10.026 -0.1843 -0.5317 -0.0613
27094W        W42563   5.797  13.691   3.456 -0.0866  0.2012 -0.1927
27095W        W42564  17.115   0.850   2.139  0.1096 -0.0214  0.0850
27096W        W42565   6.928  18.175  13.768 -0.0626 -0.1194 -0.0267
27097W        W42566  14.041   2.550  11.467 -0.0981 -0.0952  0.3310
27098W        W42567   0.233   8.964  11.637  0.0836  0.0698  0.0769
27099W        W42568  15.608  15.449  11.369  0.0074  0.1997 -0.0033
27100W        W42569  16.877  18.569   3.753  0.3010  0.1549 -0.2657
27101W        W42570  13.146   9.551  13.747 -0.0045 -0.0210  0.1356
27102W        W42571  15.813  11.166   4.923 -0.0693  0.0182 -0.1800
27103W        W42572  17.934  17.522  10.442 -0.0684  0.2719  0.0404
27104W        W42573   9.709   8.837  15.346  0.2041  0.2210  0.0256
27105W        W42574  13.340   7.893   3.061  0.1125  0.0290 -0.2970
27106W        W42575   1.954  13.341  14.867  0.0093  0.0828  0.3142
27107W        W42576  17.924  16.935  13.024 -0.0768  0.0450  0.4575
27108W        W42577   0.383  14.287   2.847 -0.1020  0.0963  0.2564
27109W        W42578   2.758  17.054   2.307  0.1868 -0.0731 -0.0795
27110W        W42579   2.045   0.711   0.350  0.2669  0.0107 -0.1462
27111W        W42580  12.490   5.709  13.376  0.0681  0.1852  0.0666
27112W        W42581   7.235   4.675   2.032 -0.1439  0.1611 -0.0722
27113W        W42582  14.710   8.118  12.715 -0.0329 -0.0342  0.0834
27114W        W42583   0.988   4.077   5.097  0.2010 -0.0269 -0.3496
27115W        W42584   9.636   0.969  15.012 -0.3821 -0.1084  0.4505
27116W        W42585   9.548  12.579  10.901  0.0445  0.3296  0.1072
27117W        W42586   0.709   2.412  13.885  0.0538  0.1731  0.0838
27118W        W42587  16.959  17.350  12.278  0.2158  0.2315  0.5180
27119W        W42588   1.579  14.657  10.053  0.1692  0.1228 -0.1126
27120W        W42589  12.895  10.983  12.442  0.1301 -0.0496 -0.0746
27121W        W42590   5.025  10.126   0.659 -0.1057  0.0701  0.1482
27122W        W42591  11.400  13.371  13.031  0.0353 -0.1574 -0.2851
27123W        W42592   7.257   5.940   3.135 -0.0421  0.2653  0.2227
27124W        W42593  17.304   7.968   3.527 -0.2429 -0.1170  0.2338
27125W        W42594   2.725   2.845  14.037 -0.2588 -0.0797 -0.1903
27126W        W42595  14.175  11.953  11.902 -0.1236  0.0714  0.1586
27127W        W42596   0.278   6.806   1.070  0.0787 -0.1499  0.1652
27128W        W42597   4.453   6.031  12.651 -0.1328 -0.0701 -0.0502
27129W        W42598  14.111   7.649  13.866 -0.0924  0.0442  0.0349
27130W        W42599  10.045  14.970  15.510 -0.2420 -0.0159  0.3550
27131W        W42600   0.559   2.334   0.425 -0.3006 -0.0286  0.0039
27132W        W42601   3.219  13.109  10.221 -0.2120 -0.0725 -0.2633
27133W        W42602  14.261  17.693   0.736  0.2344 -0.1227  0.0441
27134W        W42603   1.280  13.323  12.810 -0.1589  0.2419 -0.0408
27135W        W42604  11.741   5.913   2.204 -0.2509  0.0650 -0.0006
27136W        W42605   8.117   0.201  11.154  0.1846 -0.0835 -0.1481
27137W        W42606   1.832  12.469   0.717  0.0455 -0.0305  0.1256
27138W        W42607  15.609  13.703  14.390  0.1657  0.2950 -0.0262
27139W        W42608   4.199  14.956   5.356 -0.0354 -0.0112 -0.2333
27140W        W42609  11.947   8.425   4.081 -0.0506  0.0586 -0.2111
27141W        W42610   0.597   9.558  12.833  0.0070  0.0687 -0.0731
27142W        W42611   4.123   6.082  14.796 -0.1317  0.0462 -0.1086
27143W        W42612   8.921   7.799   4.059 -0.2787 -0.0076  0.1045
27144W        W42613   1.540  11.517  12.974  0.0296 -0.2897 -0.7385
27145W        W42614  14.911  10.511  13.504  0.3207 -0.0044  0.0831
27146W        W42615   2.387  13.556   2.228 -0.1824  0.0681  0.0170
27147W        W42616   1.284  11.795   2.448  0.2241  0.2320  0.1880
27148W        W42617   5.783  10.909  13.335  0.1022  0.0420 -0.0224
27149W        W42618  16.387   0.458   5.033 -0.1984 -0.1402 -0.0165
27150W        W42619  14.432   0.654  14.923 -0.2740 -0.2612  0.2084
27151W        W42620  14.965  14.852  12.794  0.0396  0.1461 -0.0956
27152W        W42621  13.074   1.980   5.627  0.1503 -0.0787 -0.0837
27153W        W42622   7.795   7.935  11.084 -0.0223  0.0330 -0.1293
27154W        W42623  10.813  10.339  13.677 -0.2911 -0.2061  0.0593
27155W        W42624  10.693   0.610   5.451  0.1484  0.1728  0.0531
27156W        W42625  13.269  17.330   0.684 -0.2994 -0.3859 -0.1082
27157W        W42626  12.699   2.110   2.685  0.2568  0.1012 -0.0797
27158W        W42627   9.842   4.370  14.066  0.0955  0.0877  0.3024
27159W        W42628   5.535   4.231   3.792  0.2068  0.2059  0.1072
27160W        W42629   5.934   9.877  14.729 -0.2245 -0.1543  0.1369
27161W        W42630  16.377   1.441  14.595  0.1762 -0.0128  0.2465
27162W        W42631  17.143   0.176   0.959 -0.0183  0.0814  0.1147
27163W        W42632  12.136   7.260  10.800 -0.3701  0.1484  0.3724
27164W        W42633   7.492   8.680  14.103 -0.2539 -0.0922  0.0156
27165W        W42634   1.658   4.521  10.567  0.3522 -0.0505 -0.0369
27166W        W42635   9.331  12.409   1.827  0.0787 -0.0135  0.1491
27167W        W42636   5.634  18.081   1.224 -0.0503  0.1510 -0.0215
27168W        W42637   7.059   9.034  12.185  0.0981 -0.0209  0.0605
27169W        W42638  16.623   3.352  14.798 -0.0217  0.0661 -0.0107
27170W        W42639   2.515  15.970  10.612 -0.0486  0.0489 -0.0428
27171W        W42640  15.932   1.162  12.540  0.1113 -0.0150 -0.0068
27172W        W42641   3.297   4.525   0.584  0.3556  0.1024 -0.0748
27173W        W42642   7.493  14.189  10.784  0.0620 -0.1430  0.3636
27174W        W42643   0.817   3.014  14.573 -0.1014  0.3565 -0.0578
27175W        W42644   3.604   9.042   0.170 -0.0909  0.1066 -0.2046
27176W        W42645   6.014   0.845   2.271 -0.2388 -0.1333 -0.1145
27177W        W42646  15.257   2.346   5.477 -0.2298  0.2769 -0.0730
27178W        W42647   4.655  11.900   4.063 -0.2515 -0.1104 -0.0429
27179W        W42648   1.488  16.319   0.878  0.0687 -0.0817  0.3168
27180W        W42649  16.060   8.566  13.066  0.0741  0.2381  0.1614
27181W        W42650   3.813  17.350  12.187 -0.0453 -0.0380 -0.0631
27182W        W42651   1.502   1.152   4.226  0.0017 -0.0088 -0.0300
27183W        W42652   8.431  11.092  12.052  0.0316  0.0391 -0.1190
27184W        W42653  14.949  16.994   3.034  0.1922  0.3299  0.1352
27185W        W42654  12.048  14.972  14.848  0.0444  0.0231 -0.4839
27186W        W42655   6.326   7.809  12.308 -0.2839 -0.1136  0.1724
27187W        W42656  14.683  16.855   5.345 -0.5961  0.0012  0.1653
27188W        W42657  12.609  18.470  13.444  0.1534 -0.1104 -0.0138
27189W        W42658   5.341  11.230  13.114 -0.2086  0.2677 -0.0141
27190W        W42659  13.328   3.567  12.120 -0.0494 -0.1725 -0.0079
27191W        W42660   8.805   3.658  11.949  0.2324  0.2417  0.0473
27192W        W42661   3.745  14.207  15.086  0.1246 -0.3400 -0.0328
27193W        W42662  12.185   1.846   1.019 -0.0517  0.0429  0.2234
27194W        W42663  11.452  12.678  13.807 -0.0339  0.1240 -0.1233
27195W        W42664   3.435   3.630  12.553  0.0377  0.1811  0.0275
27196W        W42665  12.690   3.969  15.711 -0.0395 -0.0620 -0.0875
27197W        W42666  12.015   1.124   2.877 -0.3788 -0.1028 -0.2991
27198W        W42667  15.611  15.455  14.161 -0.0333 -0.2716 -0.0288
27199W        W42668  17.730  17.502   0.680  0.0304 -0.2700 -0.0865
27200W        W42669  15.725  12.546   3.279  0.2397  0.1869  0.0811
27201W        W42670   5.367   3.726   2.039 -0.3661  0.0605 -0.0413
27202W        W42671  16.080   7.567   9.836  0.5428  0.2631 -0.3525
27203W        W42672  10.352   1.365  11.155  0.0556  0.1101  0.2913
27204W        W42673  15.373   3.396  11.221  0.3364 -0.0698  0.0083
27205W        W42674   0.442   4.391  12.964  0.0939 -0.0807 -0.0214
27206W        W42675   2.749   5.500  11.649  0.1500  0.1800 -0.0882
27207W        W42676   6.069  15.498  14.912 -0.0018  0.0704  0.0675
27208W        W42677   4.468  13.366   5.285  0.0269  0.0942 -0.3286
27209W        W42678   7.928   3.091  13.971  0.3525  0.1977  0.1560
27210W        W42679  17.742  13.387   2.703  0.0649 -0.3820  0.0897
27211W        W42680  12.847   3.731   6.153  0.2554 -0.0287  0.1106
27212W        W42681  11.565  18.240   0.951 -0.1437 -0.0648  0.0623
27213W        W42682   6.475  14.890   2.714 -0.2021 -0.1755  0.1666
27214W        W42683   7.133  13.600   2.108 -0.1657 -0.0424  0.2018
27215W        W42684  12.219   9.070   4.023  0.0886  0.1629 -0.2402
27216W        W42685   4.505  14.509   5.448  0.0855  0.0876 -0.0771
27217W        W42686  15.590   4.024   0.632  0.0579 -0.1598  0.0039
27218W        W42687   1.434   1.342  15.538  0.2636  0.3030 -0.1649
27219W        W42688  12.577  17.936  12.207  0.2526 -0.0508  0.3317
27220W        W42689  10.049   7.173   2.714 -0.0954  0.2715 -0.1551
27221W        W42690  10.466   4.763   2.503  0.0940 -0.1484 -0.1737
27222W        W42691   0.853   1.150   3.648  0.2588  0.1717 -0.1352
27223W        W42692   1.078  17.278  12.945  0.0926  0.1002  0.0372
27224W        W42693   9.006  15.353   3.413 -0.2803  0.0321  0.2686
27225W        W42694  16.796  15.841   3.045 -0.1782  0.3403  0.0603
27226W        W42695  16.639  12.961   4.480  0.2588  0.2128  0.2134
27227W        W42696   9.375  13.533   4.484  0.0511  0.4677 -0.0203
27228W        W42697   1.221  18.622  14.736 -0.1312  0.3179  0.1802
27229W        W42698  17.963  11.908   0.109 -0.1621 -0.2447 -0.1592
27230W        W42699   0.863   2.801  13.661  0.1386 -0.3809 -0.1471
27231W        W42700   5.949   6.928  11.079  0.4065 -0.1315 -0.1279
27232W        W42701  12.529  13.244  14.216  0.1031  0.1115  0.0103
27233W        W42702  10.821  16.164  13.635 -0.2034 -0.0202  0.0622
27234W        W42703  12.395  18.051   5.599  0.4842 -0.0297 -0.0936
27235W        W42704   9.552  11.371  11.816 -0.0350  0.0970  0.3455
27236W        W42705  10.914  13.715   1.758 -0.0310 -0.0330  0.2016
27237W        W42706  17.752   5.694   2.905  0.1508  0.2911 -0.1620
27238W        W42707  11.968   3.780   0.236  0.0325  0.2245 -0.0387
27239W        W42708  14.091   6.840  14.428  0.0412 -0.0794 -0.0446
27240W        W42709  13.470  16.184   3.267 -0.0040 -0.2599 -0.0170
27241W        W42710  14.457   3.702   4.775  0.0647  0.2319 -0.0142
27242W        W42711   5.390   0.196  14.272  0.0083 -0.3822 -0.0030
27243W        W42712   0.265   9.039  14.456 -0.2511  0.2949 -0.1142
27244W        W42713  12.663   4.647  15.160 -0.1690  0.3861  0.0060
27245W        W42714   1.150   5.860  11.516 -0.0863 -0.2394  0.2579
27246W        W42715  17.881   5.669  13.753 -0.1144 -0.4484  0.1719
27247W        W42716   8.259   5.784  14.583  0.0282 -0.0707 -0.0512
27248W        W42717  12.200  16.180  15.723 -0.0279 -0.0801  0.0606
27249W        W42718   2.596   7.318   0.785 -0.2047 -0.1072  0.2546
27250W        W42719  13.690  10.116   5.399  0.2029 -0.1224 -0.1653
27251W        W42720  14.201   6.026  15.687  0.1452  0.3180  0.1145
27252W        W42721   5.665   1.395   1.709  0.0696 -0.1029 -0.1992
27253W        W42722  11.212   5.170   2.735 -0.0230  0.3348 -0.1553
27254W        W42723  17.331  11.296  10.566  0.0646 -0.0996 -0.0778
27255W        W42724   7.796   7.393   1.508 -0.0568  0.1346  0.0885
27256W        W42725   4.711   7.330   1.029  0.1678 -0.1421 -0.2976
27257W        W42726  12.657  14.029  15.026 -0.0469  0.1503 -0.2419
27258W        W42727   3.434  18.528  13.386  0.2029  0.2902 -0.1164
27259W        W42728  17.660   9.679   4.328  0.0704  0.0684 -0.0810
27260W        W42729   4.689   4.930   4.726 -0.1664  0.0651  0.0049
27261W        W42730   0.258  10.042  11.673 -0.2261 -0.0208  0.1312
27262W        W42731   4.545   5.889   2.574 -0.1777 -0.0984  0.1055
27263W        W42732   6.435   2.848  11.884  0.3220 -0.4045 -0.3161
27264W        W42733   2.371   9.587   4.055 -0.0983 -0.2769 -0.1121
27265W        W42734   6.209   6.283   4.906 -0.1054  0.1055 -0.2697
27266W        W42735   2.116   5.744   4.658 -0.0405  0.1524 -0.0781
27267W        W42736  18.591  13.967  12.502  0.2978  0.4359  0.2689
27268W        W42737  11.322   9.187   4.091  0.2182  0.0385  0.2112
27269W        W42738  16.029  11.228   0.226 -0.0463  0.0582  0.1493
27270W        W42739   0.038  15.621   1.782 -0.3630  0.4248 -0.1810
27271W        W42740   9.560   2.586   2.790 -0.0096  0.1073 -0.0119
27272W        W42741   1.280  16.248  11.835  0.1153 -0.0128 -0.1227
27273W        W42742   0.504  15.156  10.143  0.0401 -0.1013  0.0003
27274W        W42743   8.879   3.437  14.256 -0.0597 -0.0837 -0.1139
27275W        W42744   0.854   8.867  11.500  0.0291 -0.1697  0.0833
27276W        W42745  14.216   8.548  13.996 -0.0320 -0.0218  0.0857
27277W        W42746   4.415   2.402   3.710 -0.0818 -0.2077  0.1074
27278W        W42747   1.609   0.494   3.327  0.2136  0.2741 -0.0241
27279W        W42748   4.324  11.144  14.508 -0.1117 -0.0557 -0.0603
27280W        W42749   0.971  16.886  15.023 -0.1809  0.0994  0.3300
27281W        W42750  14.917   5.513  13.401  0.1308  0.0091  0.0984
27282W        W42751  15.623   7.161  11.941  0.1531  0.1695 -0.2661
27283W        W42752  13.758   8.496  13.833 -0.0534  0.0083  0.0891
27284W        W42753   6.442   7.134   5.062  0.0213  0.0437  0.3437
27285W        W42754   6.422   1.035  14.528  0.2541  0.0814 -0.0784
27286W        W42755   2.197   2.804  10.514  0.1638  0.0898 -0.0179
27287W        W42756  17.938   7.449   0.377  0.0519  0.2708  0.2369
27288W        W42757  11.698  10.363  11.136 -0.0259 -0.2801  0.1185
27289W        W42758  11.846  15.418  13.954 -0.1925 -0.0189  0.0038
27290W        W42759  10.276  10.250  14.014  0.0801  0.2162 -0.1876
27291W        W42760   9.160   7.830  12.482  0.2585 -0.3481 -0.0001
27292W        W42761  10.889  14.335  11.609  0.1139  0.2044  0.0059
27293W        W42762   6.709  12.211   3.880 -0.1371  0.0878 -0.1515
27294W        W42763  16.887  10.037  14.361  0.2104 -0.1434 -0.3142
27295W        W42764   6.937   6.249  15.598  0.0823  0.2094 -0.1719
27296W        W42765   3.938   0.331   2.990  0.2727 -0.1723 -0.0480
27297W        W42766   4.357   9.426  13.662 -0.1384 -0.3096 -0.2687
27298W        W42767  13.580   8.474  10.810 -0.0169  0.4238  0.0573
27299W        W42768   3.384  15.145  12.864 -0.1878  0.0090  0.0017
27300W        W42769   0.570  17.544  11.274 -0.4381 -0.0315 -0.2676
27301W        W42770  13.823  10.544  12.115  0.0647  0.0407  0.0049
27302W        W42771  13.289  15.934  14.336  0.0154  0.3775 -0.0715
27303W        W42772  13.572   2.761  12.321  0.0152 -0.0257 -0.2191
27304W        W42773  13.822   6.663  11.833  0.2933 -0.0431 -0.1770
27305W        W42774   5.149  13.629   1.219 -0.0210  0.1994 -0.0791
27306W        W42775   8.138   2.923   2.691 -0.1313  0.0529  0.1086
27307W        W42776   4.994  15.339   5.066  0.0886  0.0208  0.0394
27308W        W42777  14.241   1.005   3.737 -0.1011 -0.0015 -0.0888
27309W        W42778  14.756  17.612   5.955 -0.3347  0.2282 -0.0880
27310W        W42779  14.257   7.297  14.647  0.2947  0.0032 -0.1916
27311W        W42780   6.435  14.022  15.452 -0.4862  0.0619 -0.1470
27312W        W42781  10.846  14.520  13.752  0.1761  0.2877  0.1973
27313W        W42782   8.508  10.207   4.968  0.0751  0.1794  0.2891
27314W        W42783  15.501  17.904   4.064 -0.1210 -0.1271 -0.1706
27315W        W42784   4.053  12.448  12.756 -0.0887 -0.1224  0.0600
27316W        W42785  13.876   4.765  11.584  0.2547 -0.0095 -0.1421
27317W        W42786   1.093   1.251   0.163 -0.0386 -0.0884  0.0724
27318W        W42787  13.420   3.193   2.057  0.0028 -0.0828  0.2228
27319W        W42788  11.633  17.405   1.028  0.0130 -0.1221  0.0804
27320W        W42789   5.117   9.807   2.428 -0.1482  0.1628 -0.0465
27321W        W42790  10.598   8.433   4.002 -0.0489 -0.0868  0.1101
27322W        W42791   4.476   9.295   5.460 -0.5447  0.0629 -0.2021
27323W        W42792  13.198  17.145   5.122  0.3533 -0.1426 -0.0453
27324W        W42793   7.213   9.939   2.079  0.0898 -0.0888 -0.0041
27325W        W42794  11.835  12.372  13.808 -0.1018  0.1233 -0.1728
27326W        W42795   5.815   7.580   0.783 -0.0432  0.2148 -0.0612
27327W        W42796   0.670  13.404  14.546  0.0237 -0.0243  0.1210
27328W        W42797  12.827   6.906  13.447 -0.0293 -0.3410 -0.0695
27329W        W42798  11.275  13.619   2.185  0.2640 -0.1477  0.3719
27330W        W42799  12.479   1.848   4.831  0.1180 -0.2012 -0.0977
27331W        W42800  13.434  12.921   5.056  0.1296 -0.2461 -0.0068
27332W        W42801   1.491  10.560   3.963  0.0424 -0.0410 -0.0127
27333W        W42802   0.956   3.261   3.893 -0.2468  0.0707 -0.2036
27334W        W42803   9.764   9.751  14.861 -0.0635  0.0465 -0.0094
27335W        W42804   9.426   0.091   2.085 -0.1647 -0.0022 -0.2170
27336W        W42805  10.197  15.867  11.004  0.5193  0.0523  0.0621
27337W        W42806   6.807   7.623  12.142 -0.0867  0.1275 -0.2787
27338W        W42807  12.514   3.674  11.950  0.1274  0.3259  0.1277
27339W        W42808   4.340   3.615  14.044 -0.3752 -0.0683 -0.0672
27340W        W42809  11.110  16.954  11.976  0.0019 -0.2674 -0.0727
27341W        W42810   2.281   9.771   2.689 -0.2809  0.1473  0.0912
27342W        W42811  16.148   9.565   4.935 -0.0790  0.2228  0.0086
27343W        W42812  15.815   2.850   2.921  0.1409  0.1346 -0.1199
27344W        W42813  16.027   8.057   9.881  0.1264 -0.1336 -0.1209
27345W        W42814  10.143   6.895  11.317 -0.1804  0.0224 -0.4077
27346W        W42815  11.557  15.349   2.447 -0.0169 -0.0417 -0.0709
27347W        W42816   5.305  17.989  12.119  0.2242  0.0387 -0.0997
27348W        W42817   2.001   8.859   0.619  0.0145 -0.1973 -0.2909
27349W        W42818  17.440  11.869   3.580 -0.3737 -0.3049  0.2068
27350W        W42819   3.335   3.305   1.128 -0.3473  0.0193  0.3147
27351W        W42820   8.004  10.971  13.300  0.4004 -0.1848 -0.4000
27352W        W42821   3.079   3.488  13.066 -0.0284 -0.2610 -0.0002
27353W        W42822  10.426  11.161  11.826  0.1068 -0.1480 -0.0164
27354W        W42823   0.439   0.814  11.653 -0.2157 -0.2248  0.0020
27355W        W42824   0.270  12.485  13.910 -0.0845 -0.1943 -0.0393
27356W        W42825   5.921  12.142   3.984  0.0692  0.0138 -0.2515
27357W        W42826  16.715   2.355   2.831 -0.0346 -0.0658  0.0250
27358W        W42827   8.738   0.104  11.607  0.1680  0.1967 -0.1295
27359W        W42828  17.649   5.411  14.778  0.2036 -0.0419 -0.2560
27360W        W42829   1.348  16.718  13.621  0.0805 -0.4339 -0.0650
27361W        W42830   6.338   1.818   4.691 -0.1548 -0.0409 -0.3976
27362W        W42831  13.455   4.542  13.086 -0.1819  0.0571 -0.0602
27363W        W42832   7.854   3.451   3.576 -0.2479  0.6938  0.0814
27364W        W42833   7.352  10.114  12.981 -0.0446 -0.2085  0.0432
27365W        W42834   8.889  16.617   3.361  0.1338 -0.2288 -0.0536
27366W        W42835  10.840   6.010  12.099 -0.1389 -0.0559  0.0057
27367W        W42836  16.050   7.477  15.072 -0.2377  0.2174 -0.2896
27368W        W42837  15.680  15.119   2.598  0.2549 -0.1113  0.0618
27369W        W42838  18.205   3.217  13.244  0.0044  0.1615  0.0024
27370W        W42839   2.307   2.587   4.597  0.1834 -0.2089  0.3341
27371W        W42840  14.876  13.638   0.730 -0.1737  0.0107  0.1676
27372W        W42841   9.488   6.421  10.633  0.0573  0.1042 -0.2421
27373W        W42842  17.881   7.900  13.286  0.3846  0.1392 -0.0196
27374W        W42843  14.380   0.573   5.439  0.0888  0.0305 -0.3510
27375W        W42844   6.593   2.131   5.046 -0.3250 -0.0047  0.2549
27376W        W42845   0.906  17.725  13.689 -0.0598  0.1327  0.3172
27377W        W42846  13.525  11.227   3.420 -0.0201  0.0305  0.0986
27378W        W42847  18.028   6.053  15.613 -0.2022 -0.0761 -0.0652
27379W        W42848   2.377  10.738   2.497  0.1082 -0.1825 -0.0257
27380W        W42849   6.531   3.783  13.821  0.1959  0.1101 -0.0519
27381W        W42850  18.350   4.455   0.943  0.1018  0.1450  0.0448
27382W        W42851  16.819  13.551  11.635  0.0605  0.3008  0.0030
27383W        W42852   2.307   0.505  13.956 -0.0817  0.0161 -0.3022
27384W        W42853   0.195  11.841  15.215  0.0755 -0.0264  0.0047
27385W        W42854  12.084  13.437  13.515 -0.0305  0.1475 -0.1798
27386W        W42855  16.207  16.206  15.042  0.2590  0.5115 -0.0490
27387W        W42856  13.868   6.038  10.607  0.2170 -0.2746  0.1550
27388W        W42857  18.124   4.488   2.478  0.0381 -0.1652  0.1076
27389W        W42858  10.818  12.883  15.390  0.0521  0.0612 -0.0579
27390W        W42859  12.025   4.143   1.875  0.0608  0.3585 -0.0341
27391W        W42860   2.463   5.315   1.183 -0.1734 -0.0816 -0.0828
27392W        W42861   7.474  17.321   2.649  0.2663 -0.0909  0.2217
27393W        W42862   4.696   1.861   1.388  0.1117  0.4910  0.0161
27394W        W42863   4.104  18.047  13.420 -0.1662  0.0549 -0.1079
27395W        W42864  17.154   7.764  12.114  0.0620  0.0485 -0.0130
27396W        W42865  15.798  17.623  12.680  0.0788  0.1020  0.2179
27397W        W42866   7.490   5.621   0.731 -0.3103  0.0921  0.2124
27398W        W42867   8.144  14.043  11.579  0.1553  0.0830 -0.0377
27399W        W42868  17.598  14.241  11.116  0.1007 -0.1654 -0.0379
27400W        W42869   1.401   1.833   2.630  0.1862  0.2400  0.0349
27401W        W42870  10.458   9.511   3.867  0.0996 -0.0142  0.0236
27402W        W42871  10.274   6.199   1.818  0.3266  0.0112  0.0869
27403W        W42872   9.995   9.545   3.833  0.1042  0.0121 -0.0555
27404W        W42873  16.247  17.115  11.320 -0.0023 -0.0120  0.1666
27405W        W42874   2.660   2.299  13.792  0.1548  0.0842  0.1594
27406W        W42875   5.685  10.299   3.886 -0.0549  0.3348 -0.0361
27407W        W42876   6.528  15.771  11.514 -0.1730 -0.0145  0.3923
27408W        W42877  14.784  11.844   1.128 -0.3567  0.1049  0.1547
27409W        W42878  16.503   0.331  11.413  0.0195  0.0286  0.2068
27410W        W42879  17.117   1.958   2.785 -0.1077 -0.0129  0.1707
27411W        W42880   4.679   0.362  15.554  0.1078 -0.0835 -0.0474
27412W        W42881  12.217  10.462   2.521  0.2575 -0.0683 -0.2160
27413W        W42882   1.056  17.764   1.114  0.2842  0.2335  0.0575
27414W        W42883   6.229  12.479  10.012 -0.5034  0.2264  0.1246
27415W        W42884   2.679  10.183   5.549  0.0983 -0.2788  0.0065
27416W        W42885   4.897  16.476   1.574 -0.3109  0.1859 -0.1468
27417W        W42886   8.942   3.151  11.661 -0.1077 -0.0246  0.0914
27418W        W42887   3.977   9.002  10.770 -0.3511 -0.0478 -0.2540
27419W        W42888  12.385  12.175   2.370 -0.0942 -0.0566 -0.1341
27420W        W42889  14.791   1.678   3.957 -0.3293 -0.0796 -0.1420
27421W        W42890  16.793   6.738   9.363  0.1575 -0.0194  0.2595
27422W        W42891  13.897   2.075  15.509 -0.0744  0.1883  0.0866
27423W        W42892  15.981   4.858  12.781  0.1448 -0.0989  0.0780
27424W        W42893   6.692   9.639   4.827 -0.0844  0.0906  0.0484
27425W        W42894   6.731   5.801  12.321  0.3298  0.2941  0.2755
27426W        W42895   9.953   9.659   2.020 -0.1289 -0.2310 -0.3060
27427W        W42896   8.021  10.786   5.672  0.2539 -0.0446  0.2240
27428W        W42897   9.450   6.445  14.689 -0.0085  0.0535 -0.0573
27429W        W42898  15.206   3.088  12.453  0.1773 -0.0980 -0.1010
27430W        W42899   7.560  11.375   4.763 -0.2034 -0.0058 -0.1576
27431W        W42900   2.155   2.104   0.517  0.0288  0.0654  0.2824
27432W        W42901   1.920   3.063  13.085  0.0844  0.0994  0.0581
27433W        W42902  11.917   7.849  11.235 -0.0973  0.1281  0.3927
27434W        W42903   9.044   5.917  11.470 -0.2091  0.2330  0.4736
27435W        W42904  17.915   3.516  13.628  0.1861 -0.3776 -0.1162
27436W        W42905   8.816   4.238   5.439  0.0121  0.2025  0.0152
27437W        W42906   2.757   4.188  14.140  0.0290  0.2850 -0.0841
27438W        W42907   4.299  16.133  15.498  0.3996  0.0063 -0.1391
27439W        W42908  16.982  15.912   4.265 -0.1518 -0.0955  0.1288
27440W        W42909  17.846   2.234   3.361 -0.2659  0.1425  0.3438
27441W        W42910   7.287  12.839  14.040  0.0772  0.2147  0.2065
27442W        W42911  12.121   3.090  11.773  0.0749 -0.2670  0.2857
27443W        W42912   2.473   4.383  11.253  0.0210 -0.1886 -0.2999
27444W        W42913  16.562   0.401   2.265  0.1112  0.2188 -0.1044
27445W        W42914  15.564   8.946  11.316 -0.3608 -0.0873  0.2915
27446W        W42915   3.724   4.502  13.957 -0.2709  0.2379  0.0591
27447W        W42916   5.234   9.414  15.779  0.0550 -0.2626  0.1207
27448W        W42917  18.333  13.767   3.280  0.0439 -0.2126  0.2031
27449W        W42918  12.415  15.111  11.929  0.1635 -0.1989 -0.1049
27450W        W42919   2.181  14.464   2.035 -0.1354  0.0611 -0.1969
27451W        W42920  17.240   8.851  10.632  0.1199  0.0111 -0.6565
27452W        W42921   5.440   9.830   0.373 -0.2790 -0.2000 -0.3509
27453W        W42922   4.898  17.019   2.321  0.4065 -0.2674  0.0323
27454W        W42923   9.197  11.907   4.094 -0.0140  0.2858  0.0079
27455W        W42924   8.703   5.183  10.170 -0.0052  0.0936  0.0548
27456W        W42925  10.631  14.936  14.519  0.1378  0.0529  0.0457
27457W        W42926   1.389   7.392   0.481  0.0488  0.0550 -0.0614
27458W        W42927  18.565  10.992   1.978  0.1371  0.1516  0.0636
27459W        W42928  12.640   2.194   1.861  0.1939  0.3018 -0.0103
27460W        W42929   2.981  11.183   4.416 -0.3885  0.0508  0.0984
27461W        W42930   2.576   6.178   2.693 -0.1224 -0.0110  0.1841
27462W        W42931   7.889  13.008   1.969 -0.1215  0.0081  0.0505
27463W        W42932  13.692  14.608  12.738  0.1793 -0.0120  0.0785
27464W        W42933   8.144  13.261  13.923 -0.2231  0.0426  0.1670
27465W        W42934  14.081   8.901   2.383  0.0893  0.0420 -0.0834
27466W        W42935   1.686  17.711   4.460  0.0425  0.0845  0.0086
27467W        W42936  16.941  18.185  12.592 -0.0610  0.1281 -0.0625
27468W        W42937  12.924  16.418  13.836  0.0873 -0.0861 -0.1998
27469W        W42938  12.838   1.609   3.723 -0.2317  0.0470 -0.2579
27470W        W42939   1.805   3.473   0.663  0.2720  0.3404  0.0088
27471W        W42940   0.491   3.879   3.461  0.0868  0.1550  0.0836
27472W        W42941  15.459   1.820   4.778 -0.0900  0.4242 -0.0074
27473W        W42942  18.063  11.012   2.253 -0.0806  0.0983 -0.1077
27474W        W42943   6.249   9.650  12.758 -0.0044  0.3102 -0.2519
27475W        W42944  11.192  10.165  14.924 -0.0312  0.1760 -0.1025
27476W        W42945  11.570  10.636  15.462  0.2574  0.4798  0.1897
27477W        W42946  15.996   2.198  15.268  0.4761 -0.2017 -0.1534
27478W        W42947   3.894  14.745   4.488 -0.1374  0.1276  0.1822
27479W        W42948  14.333   7.567   1.892 -0.0405 -0.2221 -0.3057
27480W        W42949   9.931   0.530  14.243 -0.5250  0.1761  0.1592
27481W        W42950  16.721  14.461  15.618  0.0918 -0.1992  0.0338
27482W        W42951  14.816   6.035   2.250 -0.3303  0.1361 -0.1906
27483W        W42952   7.025  10.947   0.281 -0.0425 -0.1708 -0.0812
27484W        W42953   8.822   1.184  10.520  0.0032  0.2109  0.0592
27485W        W42954   3.281  13.450   4.892  0.0427  0.0015 -0.0667
27486W        W42955  16.608   2.312   2.225 -0.1393 -0.0702  0.3164
27487W        W42956   3.145   7.977  11.233  0.0806  0.2655  0.1141
27488W        W42957  14.288   2.988   1.550  0.2289 -0.0609  0.0177
27489W        W42958  12.450   9.301   3.209  0.1029 -0.2164 -0.0770
27490W        W42959   9.003  13.636  14.231  0.2032 -0.0594  0.1258
27491W        W42960   4.088   9.561  13.268  0.3427 -0.0096 -0.0582
27492W        W42961   1.859  12.007  12.646  0.0851 -0.2366 -0.1895
27493W        W42962   9.618  11.467   4.713 -0.1782 -0.2089 -0.1677
27494W        W42963  13.127  15.823   2.996 -0.1055  0.0286  0.0279
27495W        W42964   9.617  17.020   5.223  0.1175  0.2634 -0.3096
27496W        W42965   7.206   3.984   3.079  0.2522  0.0032 -0.4412
27497W        W42966  12.201   1.121  13.933 -0.1447  0.1784 -0.0163
27498W        W42967   2.651  11.626  12.483 -0.0529  0.1657 -0.1785
27499W        W42968   7.670  14.976  12.798 -0.1864 -0.1107 -0.2426
27500W        W42969  13.539  17.960  14.285  0.1472  0.0984 -0.1223
27501W        W42970  17.093  14.241   5.016  0.1044  0.2126  0.2439
27502W        W42971   4.102  18.607   3.826 -0.0212 -0.2280  0.2124
27503W        W42972   2.010  16.978   4.590 -0.1295  0.1055 -0.0266
27504W        W42973  15.189  14.763   1.814 -0.0345 -0.2497  0.2995
27505W        W42974  16.580  12.301   0.343  0.1270 -0.0660  0.1843
27506W        W42975  16.501   7.130  11.088  0.1287  0.3568 -0.0655
27507W        W42976  11.559   6.053   1.564 -0.1134 -0.2821 -0.1103
27508W        W42977  17.481   8.206   2.354 -0.1326  0.1050  0.1224
27509W        W42978  15.629   0.530   6.172 -0.1372  0.3649 -0.1387
27510W        W42979  10.785  17.820   2.522  0.0985  0.0904 -0.0249
27511W        W42980   7.188   6.795  13.796  0.1243 -0.0462  0.0031
27512W        W42981   3.345  18.075   1.254  0.0263 -0.0929  0.2125
27513W        W42982   7.159  17.555   0.149 -0.1769  0.0079  0.2198
27514W        W42983   1.702  15.911   1.263  0.4122  0.2586  0.3425
27515W        W42984   2.746   4.360   0.507 -0.2531 -0.1333  0.0012
27516W        W42985   0.171   0.916   0.035 -0.1862 -0.4403  0.0136
27517W        W42986  17.525   6.654  10.946  0.0211 -0.1042 -0.1758
27518W        W42987   2.002  15.479   3.400  0.4736  0.2993  0.0213
27519W        W42988  11.736   3.879   2.287 -0.1339  0.1174  0.1130
27520W        W42989   5.694  17.600   0.782  0.0895  0.4911  0.1807
27521W        W42990   8.122  11.863   0.364 -0.1171  0.0903  0.1660
27522W        W42991   1.667   7.288  10.818  0.1432  0.0114 -0.2474
27523W        W42992  15.883   6.340   0.277 -0.1092  0.0164 -0.0611
27524W        W42993   6.140  10.810   3.828  0.2021 -0.2078 -0.1367
27525W        W42994   8.639   1.016   2.624 -0.1633 -0.0754  0.0687
27526W        W42995   8.277  14.611  15.430 -0.0910  0.0431  0.0249
27527W        W42996   3.455  16.891  12.679  0.2679  0.3022 -0.0223
27528W        W42997  16.299  12.443   1.618 -0.1438  0.1942 -0.1768
27529W        W42998  18.283  14.185   3.049  0.0238 -0.3007 -0.1101
27530W        W42999  10.350  14.960   1.230  0.2506 -0.2141 -0.0329
27531W        W43000   5.891   4.379   2.387 -0.2267  0.0323  0.0519
27532W        W43001  16.004  16.002  14.171  0.2014  0.0744 -0.0542
27533W        W43002  13.118   6.609  12.754 -0.0810  0.1132  0.4150
27534W        W43003  13.078   2.395   0.893 -0.1781 -0.2514  0.1457
27535W        W43004   3.326   9.456   4.233 -0.3365 -0.0341 -0.0693
27536W        W43005   8.515   6.060  11.362  0.0215  0.1689  0.2480
27537W        W43006   4.651   4.143   4.141  0.0597  0.0607  0.1806
27538W        W43007  15.898  15.047  11.422  0.1693  0.1664  0.0870
27539W        W43008  14.217  17.395   3.731  0.1689 -0.0036 -0.1094
27540W        W43009  15.820   7.374  14.242 -0.0212 -0.1529  0.1935
27541W        W43010   7.515   3.893   3.895 -0.0129 -0.0406  0.1470
27542W        W43011   4.663   8.799   3.531  0.0677 -0.2719  0.0048
27543W        W43012   2.574  18.576   1.813  0.2657 -0.4022  0.0300
27544W        W43013  13.985  14.921  11.142 -0.0116 -0.0526 -0.1159
27545W        W43014  14.165   5.024  13.247 -0.1534  0.0656 -0.0125
27546W        W43015   6.676  11.575   3.293 -0.1449  0.0167  0.0399
27547W        W43016   5.574  15.980   4.486  0.5385 -0.2686 -0.2024
27548W        W43017  11.507  10.968   4.052  0.4333 -0.0317  0.2286
27549W        W43018  18.495   2.461  11.438  0.1057 -0.1532  0.0348
27550W        W43019   6.106  14.411  15.360  0.2088 -0.1894  0.0510
27551W        W43020   3.258  17.616  14.653  0.2517 -0.0203  0.2606
27552W        W43021   0.186   8.443  11.906 -0.0744  0.3411  0.0887
27553W        W43022  15.542  18.587  13.684  0.4305 -0.0241 -0.2626
27554W        W43023   4.692   5.572  11.761  0.0345 -0.0215  0.0539
27555W        W43024  14.297   2.521   4.156 -0.0403  0.1174 -0.5310
27556W        W43025  18.059  10.017   1.233  0.3752  0.0920  0.2262
27557W        W43026  16.728   3.629   2.034  0.3652 -0.0823  0.3824
27558W        W43027   8.069   3.424  14.513  0.1331 -0.0439  0.0931
27559W        W43028  17.694   1.898  12.014  0.0771 -0.2016  0.1014
27560W        W43029   8.263   2.761  14.267  0.1823  0.0565  0.1014
27561W        W43030  15.023   4.892   0.536 -0.2511  0.0284  0.3330
27562W        W43031  10.439   6.138   4.728  0.0236  0.1768  0.0658
27563W        W43032   0.735   8.881  14.491  0.3346  0.1230  0.2246
27564W        W43033   5.521  15.792  12.059 -0.1228  0.2262 -0.3938
27565W        W43034   2.434   2.229   0.947  0.0521  0.0528  0.1206
27566W        W43035  14.517   2.600   2.303 -0.0026  0.0668 -0.0569
27567W        W43036   0.892  14.689   3.435 -0.3219  0.0699  0.0653
27568W        W43037   9.156  10.214  13.163 -0.1734 -0.0941 -0.0797
27569W        W43038  14.459  11.227   1.520  0.3025  0.0465 -0.2117
27570W        W43039   6.565  14.473   3.766 -0.1246  0.1605  0.3648
27571W        W43040   3.694   5.837   4.684 -0.0031  0.1601 -0.0848
27572W        W43041   0.811  10.989  12.464  0.0953 -0.1883 -0.0282
27573W        W43042   4.309   7.768   4.665 -0.1199 -0.1644 -0.2084
27574W        W43043  17.450  12.179   3.975 -0.0106  0.2738 -0.0788
27575W        W43044  14.375   3.486   1.624 -0.1852  0.0161 -0.2175
27576W        W43045  14.771   1.048  11.505  0.0223  0.0234  0.1645
27577W        W43046  11.721   7.072  15.058 -0.0750  0.0493  0.2018
27578W        W43047   2.057   4.714  14.655 -0.0011  0.3115  0.0238
27579W        W43048   1.746  10.304  14.842  0.0256  0.0072 -0.0705
27580W        W43049   0.513  18.582   0.816  0.1950 -0.1070 -0.1821
27581W        W43050  17.357   6.614   3.604 -0.1937  0.1326  0.0666
27582W        W43051   4.974   2.957  11.478  0.0067 -0.2039  0.2366
27583W        W43052  10.701   2.958   2.239 -0.0894  0.0641 -0.0773
27584W        W43053   2.263   4.323   0.331  0.0364  0.3331  0.1862
27585W        W43054   5.350   2.447  14.188  0.3039  0.1002  0.2325
27586W        W43055   7.114  18.251  15.377  0.1021  0.3380  0.0768
27587W        W43056  10.381   7.230   0.191  0.3008  0.0132  0.0367
27588W        W43057   7.666  16.626   1.428  0.1875  0.1614 -0.0206
27589W        W43058   7.686   7.364   0.959  0.3037  0.2227 -0.0867
27590W        W43059  15.318  14.555  12.954 -0.1021 -0.3552  0.0921
27591W        W43060  11.264  17.620   3.984  0.2087 -0.0253 -0.0661
27592W        W43061  15.175  11.363   3.813  0.3376 -0.0379 -0.1952
27593W        W43062  15.733  15.844   3.716 -0.0185 -0.0724  0.1775
27594W        W43063  17.348  13.745   4.538  0.0655 -0.1720  0.0835
27595W        W43064  11.787  11.291   0.495  0.0623  0.4004 -0.0669
27596W        W43065  16.248   3.871   1.294  0.0096  0.0563 -0.3120
27597W        W43066  10.880  15.727   1.589  0.0177  0.1159 -0.1970
27598W        W43067  17.754  12.993   4.051 -0.1711 -0.1197 -0.0080
27599W        W43068  15.444   6.712   3.922  0.1196  0.2443 -0.1202
27600W        W43069  10.374   4.992  14.445  0.0578  0.2909  0.3488
27601W        W43070   5.453  17.982  15.238  0.2370 -0.1157  0.2484
27602W        W43071  11.271   0.094  12.395  0.1868 -0.3124 -0.3843
27603W        W43072   1.708  10.775  11.356 -0.1933  0.0795 -0.1578
27604W        W43073   5.077   2.481  11.289  0.0565  0.1165 -0.1545
27605W        W43074  14.093   6.163   3.995 -0.1709  0.0096  0.2075
27606W        W43075  15.798   2.514  12.118  0.1889 -0.3122 -0.0067
27607W        W43076   7.351  13.366   4.106 -0.0293  0.2457 -0.3177
27608W        W43077  13.507   5.688  10.458 -0.0983 -0.0268  0.0407
27609W        W43078   0.902   7.408   0.262  0.0443 -0.1257 -0.1738
27610W        W43079  16.409   5.122  12.628 -0.1267  0.0451  0.3627
27611W        W43080   8.019  14.954  11.638  0.1461 -0.0485  0.1997
27612W        W43081  17.013  10.857  10.925 -0.2070  0.2698  0.0116
27613W        W43082  18.229   1.860   1.619  0.2137 -0.2577 -0.0027
27614W        W43083   9.119  16.952  10.538  0.0376  0.1270 -0.3077
27615W        W43084   7.381  18.175  13.414  0.1827  0.0770  0.0342
27616W        W43085  16.875  18.018   3.754  0.1738  0.2129 -0.0487
27617W        W43086   0.235   6.493   2.885 -0.0318 -0.1265 -0.0578
27618W        W43087   2.454   7.506  12.486 -0.0000 -0.3025  0.0021
27619W        W43088   2.758   0.548   3.749 -0.4521  0.0303 -0.1512
27620W        W43089  11.360  17.501  13.315 -0.2858  0.0147 -0.1091
27621W        W43090  17.031  15.386   1.842  0.1082  0.0629 -0.4061
27622W        W43091  12.773   5.649   1.434 -0.1745  0.0238  0.1895
27623W        W43092   4.441   0.841   0.076  0.4182 -0.0552 -0.2934
27624W        W43093  17.884   8.935   1.762 -0.1718  0.0172  0.0989
27625W        W43094  16.329   7.278  15.490  0.0384 -0.3219 -0.2547
27626W        W43095  17.212  15.825   0.534 -0.2687 -0.2786 -0.1505
27627W        W43096   8.367   5.797  13.298 -0.1048  0.1422  0.1270
27628W        W43097  18.603  18.116  11.783  0.1825  0.2997 -0.1881
27629W        W43098   9.065   2.324  14.001 -0.0770 -0.0504  0.3768
27630W        W43099   1.304   9.463  10.441 -0.0132  0.1376 -0.1654
27631W        W43100   2.588  14.559   4.988 -0.0706  0.0341  0.1086
27632W        W43101  12.731  17.378  12.948 -0.0793 -0.0598 -0.2433
27633W        W43102  17.243   2.011   4.700 -0.0858  0.0236  0.1972
27634W        W43103  11.367   1.469  14.153 -0.0743 -0.1316 -0.0342
27635W        W43104   3.529  17.605   1.991  0.0243  0.1203 -0.0390
27636W        W43105   8.242  11.577   1.334  0.1369  0.2234 -0.1631
27637W        W43106   8.632  13.240  10.597  0.2480  0.1609 -0.0877
27638W        W43107   4.166   1.694   3.019 -0.4270 -0.3000 -0.2895
27639W        W43108   7.825   1.620   4.844  0.2722 -0.0522  0.1966
27640W        W43109   0.263   0.189  11.049  0.1157 -0.3690 -0.0225
27641W        W43110  11.368  14.473  11.624  0.0338 -0.3268 -0.1113
27642W        W43111  18.432  15.675  15.574 -0.1128 -0.1767  0.0324
27643W        W43112   5.460  16.660  14.036 -0.2394 -0.0027 -0.1507
27644W        W43113   9.872  12.772   2.498  0.0791 -0.1165 -0.0278
27645W        W43114   0.448   4.947   3.356  0.0770 -0.0618  0.0576
27646W        W43115  13.812   1.264   6.272 -0.2376 -0.2510 -0.2527
27647W        W43116  18.058  16.840  14.290  0.0309  0.0076 -0.2044
27648W        W43117  13.869   8.377  12.271  0.1856  0.1208  0.0237
27649W        W43118  11.690  12.563  12.109 -0.1882 -0.1055 -0.2542
27650W        W43119  12.108   9.352   0.388  0.1535  0.0207 -0.1668
27651W        W43120  11.370   6.285  10.515  0.0235 -0.3966  0.2291
27652W        W43121  16.553   8.185  11.484  0.2810  0.2057 -0.0778
27653W        W43122   7.207   7.354  13.813 -0.2076 -0.0722  0.0937
27654W        W43123   1.339  16.409   4.818 -0.2096  0.0009 -0.0998
27655W        W43124   1.388   2.395   2.621  0.1206  0.1603 -0.2856
27656W        W43125  11.839  16.385   1.857 -0.1305  0.1178 -0.1607
27657W        W43126   1.241  18.315   1.788 -0.1496  0.1984  0.1356
27658W        W43127   7.883   4.690   5.167 -0.1406 -0.2421 -0.4103
27659W        W43128  10.251  13.557  15.675  0.2564  0.0469  0.1435
27660W        W43129  18.092   5.724  13.266  0.0259 -0.1526 -0.1683
27661W        W43130  15.879  14.217  13.495  0.0496  0.2309 -0.3373
27662W        W43131   1.986   0.742   4.226 -0.2358  0.2029  0.1588
27663W        W43132  12.489   0.396   1.039 -0.0908 -0.0772  0.1999
27664W        W43133   1.896   2.816   4.917 -0.3689  0.0582  0.0010
27665W        W43134  16.380   1.251   0.218 -0.2220  0.0735 -0.3949
27666W        W43135  17.211  12.478  12.910  0.0657 -0.0273  0.2712
27667W        W43136   7.047  10.660  11.567  0.1242  0.6150 -0.0198
27668W        W43137   1.764   9.301  10.445  0.1771 -0.0083  0.1133
27669W        W43138  15.374   0.069  12.777  0.0315 -0.2476  0.0314
27670W        W43139   1.052  16.289  13.591 -0.1742  0.2489  0.1482
27671W        W43140   8.971  14.687   5.750 -0.0035  0.1657  0.1671
27672W        W43141   8.889  13.898  13.773 -0.1280  0.0675 -0.0235
27673W        W43142   9.936  12.263   1.389 -0.0780 -0.1709 -0.2495
27674W        W43143  10.974   3.445   0.904 -0.1602 -0.1180  0.0084
27675W        W43144   9.995  17.580  15.241  0.2246  0.0145  0.2613
27676W        W43145   6.536   8.859  11.266  0.1792  0.1597 -0.0903
27677W        W43146  15.023   9.428  13.272  0.2662 -0.1753 -0.0122
27678W        W43147  13.920   3.756   4.735  0.0452 -0.0511 -0.0727
27679W        W43148   9.899   6.744   3.927  0.0038 -0.1761  0.0448
27680W        W43149  16.014   9.187  10.221  0.2467  0.3254 -0.3016
27681W        W43150   0.251  17.780  14.797 -0.3389 -0.1283  0.1200
27682W        W43151  18.181   7.577  13.701 -0.2598  0.0866  0.4834
27683W        W43152   4.323  11.440   0.173 -0.1004  0.1690  0.1021
27684W        W43153   8.682   6.232   0.430  0.0463 -0.2209  0.3287
27685W        W43154  15.416  14.743   5.079  0.0282  0.1433  0.1529
27686W        W43155  15.012   7.120   3.928 -0.2559 -0.2913  0.1074
27687W        W43156   5.666  12.521  10.707 -0.3746  0.1138 -0.2819
27688W        W43157   2.923   2.181  13.360 -0.1928  0.3258  0.0468
27689W        W43158   7.179   5.201   1.300  0.0524 -0.1807  0.0668
27690W        W43159  14.515   2.102   4.005  0.0639  0.1853 -0.2651
27691W        W43160   3.502   8.632  13.161  0.0535  0.2723  0.0048
27692W        W43161   0.410   0.506   4.309 -0.2581 -0.0816 -0.0354
27693W        W43162   4.613   0.302   4.082 -0.2361 -0.1733  0.5693
27694W        W43163  13.331  11.923   0.571  0.1651  0.0467 -0.0848
27695W        W43164  13.405   0.266  14.601 -0.0222  0.0862 -0.2088
27696W        W43165   2.869   5.313   4.796 -0.2358  0.0617  0.1459
27697W        W43166  16.929   3.559   0.272  0.0249  0.2171  0.1364
27698W        W43167  10.272  11.907  11.133 -0.1895  0.0912 -0.2363
27699W        W43168   8.460  14.914   3.721 -0.1734 -0.0212 -0.2621
27700W        W43169  11.202  10.399   4.777  0.1156 -0.1985 -0.0242
27701W        W43170   2.245  17.704   2.137 -0.0318 -0.0787 -0.2228
27702W        W43171  13.915   0.374   3.583 -0.1849 -0.0076 -0.1980
27703W        W43172   7.844   4.123  11.284  0.3544  0.0428 -0.1925
27704W        W43173  18.517  14.247   1.558  0.1546 -0.2129 -0.3693
27705W        W43174  12.380   8.051   1.210 -0.0090 -0.3352  0.0995
27706W        W43175  14.495  11.921   2.389 -0.1452  0.0149 -0.0561
27707W        W43176  12.113   8.243  15.467 -0.2716  0.1709  0.0858
27708W        W43177  15.515   3.521   0.948 -0.0336  0.0044  0.1225
27709W        W43178   9.979   5.251  11.258 -0.0341 -0.0866 -0.2170
27710W        W43179  14.188  15.777  15.426  0.3531  0.0405 -0.1967
27711W        W43180  13.268   6.371   1.336  0.2185  0.2252 -0.0841
27712W        W43181  11.473   6.344   1.158  0.1242  0.0622 -0.1791
27713W        W43182  15.427   3.938   3.939  0.0420 -0.0788  0.0824
27714W        W43183   6.833  10.403   0.039  0.0855  0.2094 -0.2868
27715W        W43184  12.985   9.765   2.443  0.1055  0.0641 -0.0655
27716W        W43185  14.584  14.807   3.318 -0.2212  0.1701  0.1582
27717W        W43186   2.630   6.562  12.941  0.0188  0.1096  0.0779
27718W        W43187  16.654   5.372  11.233 -0.0206  0.1308  0.1561
27719W        W43188   6.171   8.916   0.423  0.0673 -0.1243 -0.1539
27720W        W43189   0.531  10.355  11.268 -0.3480  0.0976 -0.0191
27721W        W43190  17.935   7.555  15.294 -0.2147 -0.1734 -0.0695
27722W        W43191   9.563   4.752  15.728  0.0630 -0.0210  0.2240
27723W        W43192  13.082  17.612  14.992  0.2071 -0.1830 -0.1283
27724W        W43193  13.575   2.937   4.665 -0.1205 -0.0222 -0.0230
27725W        W43194  15.970  12.999  11.770 -0.1048  0.1572 -0.0167
27726W        W43195  10.144  16.303  14.590  0.0894  0.1277  0.3878
27727W        W43196  11.291  15.400  11.155  0.0141 -0.1440  0.0103
27728W        W43197  16.975   3.081   0.428  0.4398 -0.5244  0.2855
27729W        W43198  11.423  12.081  11.205  0.0262  0.0205 -0.2745
27730W        W43199   0.209   6.405  10.326 -0.2062 -0.0367  0.2063
27731W        W43200  11.986  17.326  14.542 -0.2265 -0.3406  0.0149
27732W        W43201  17.671  14.523   0.530 -0.0574  0.2911  0.0347
27733W        W43202   3.477   1.231   4.114 -0.1665 -0.1551  0.2274
27734W        W43203  12.530  18.285   5.115 -0.2361  0.1053 -0.2647
27735W        W43204   9.685   9.813   2.899  0.0218  0.2268  0.1291
27736W        W43205  12.647  15.821   3.183 -0.0867  0.1978 -0.2895
27737W        W43206  10.997  13.704  11.119 -0.0690 -0.0314 -0.1100
27738W        W43207   6.911  14.227  13.738 -0.2529 -0.0086  0.0315
27739W        W43208  14.236   5.806  12.919  0.1465 -0.0854  0.3821
27740W        W43209  15.118   6.149  13.320  0.2987 -0.0606 -0.2212
27741W        W43210  11.716   0.648  12.844 -0.0767 -0.0656  0.2233
27742W        W43211  14.613   0.689   4.942 -0.0005  0.0620  0.0221
27743W        W43212  14.471  13.748   5.466  0.1426  0.0590  0.0790
27744W        W43213   4.380  16.842  12.231  0.0746  0.0695 -0.1514
27745W        W43214   1.699   7.493  15.732 -0.0732  0.0413 -0.0960
27746W        W43215  15.767   1.952  12.889  0.3504  0.0902 -0.2221
27747W        W43216   8.873   7.698   2.377  0.0981 -0.1111  0.2637
27748W        W43217  13.330   1.938   3.218  0.1864  0.1235 -0.0840
27749W        W43218  14.182   0.391   5.882 -0.0559 -0.1398  0.1312
27750W        W43219  11.696   1.648  11.284 -0.1280  0.1085 -0.0444
27751W        W43220   8.955  12.537   5.184  0.0446  0.1640  0.1944
27752W        W43221   6.459   5.095   1.974  0.1374 -0.1060 -0.0854
27753W        W43222   3.336   0.806   0.817 -0.0677 -0.1689 -0.0442
27754W        W43223  14.676  13.973  14.625 -0.0437  0.1393 -0.0559
27755W        W43224  18.525   0.974  11.728  0.0881 -0.1505 -0.1913
27756W        W43225   6.404   4.296  11.051  0.1198 -0.0626  0.2817
27757W        W43226   9.223  14.585  12.186  0.1033 -0.1184 -0.0319
27758W        W43227  16.740   5.353  10.719  0.1361  0.2845 -0.0276
27759W        W43228   2.993  15.269  15.039 -0.3142  0.1060 -0.4055
27760W        W43229   2.933   1.185   1.722  0.1664 -0.1969  0.1015
27761W        W43230  15.144  16.658   0.831 -0.1048 -0.1421  0.0541
27762W        W43231   0.097  15.212   3.834  0.0211 -0.2606  0.0376
27763W        W43232   8.165   6.709  15.078 -0.1237 -0.0470  0.1007
27764W        W43233   2.634   6.624  15.317 -0.1286  0.3709 -0.2472
27765W        W43234   7.972   3.187   0.198 -0.1508 -0.1025 -0.0286
27766W        W43235   5.876   9.876   2.346 -0.0031 -0.2202 -0.3728
27767W        W43236   3.340   2.490   4.419  0.0265 -0.3582  0.4086
27768W        W43237   0.679   0.923   5.215  0.1304  0.2031 -0.0604
27769W        W43238  11.924  17.625   0.600  0.0079  0.0628  0.3126
27770W        W43239   5.885  15.152  10.160  0.3253  0.4468 -0.2340
27771W        W43240  15.862   0.738   3.623  0.0706  0.0961  0.2886
27772W        W43241   4.484   8.552  11.508 -0.0941 -0.3898 -0.1032
27773W        W43242   6.587   2.101   0.961 -0.0205 -0.1737 -0.2276
27774W        W43243  13.380   9.208   5.720 -0.0857 -0.2164 -0.0917
27775W        W43244   1.770  11.982   0.275 -0.1219 -0.2051 -0.2816
27776W        W43245  13.467  12.406  12.399  0.1032  0.0855  0.3628
27777W        W43246  16.021  12.151   0.344 -0.0170  0.1159  0.1601
27778W        W43247   6.503  12.466  15.230 -0.3293 -0.0973  0.0478
27779W        W43248   7.480   2.568   0.713 -0.1802 -0.1381  0.1954
27780W        W43249   8.922  17.153  11.387 -0.0571 -0.2691 -0.1556
27781W        W43250   7.918   1.761  14.170 -0.1482  0.1002 -0.1204
27782W        W43251  11.177  11.183  10.316  0.2333 -0.1246  0.1267
27783W        W43252  14.233   3.597   0.499 -0.0589 -0.1300 -0.1895
27784W        W43253   7.531   9.620  12.532  0.1163 -0.0957 -0.1404
27785W        W43254   7.294   9.912   4.487  0.1790 -0.0925 -0.0497
27786W        W43255  16.243   0.567   4.158  0.3541 -0.1668  0.1533
27787W        W43256  16.845  17.740   4.312  0.1678 -0.1069 -0.1932
27788W        W43257   2.699   4.280  11.795  0.0100  0.0466 -0.2174
27789W        W43258   8.829  10.311   3.010 -0.4560  0.0456  0.0217
27790W        W43259   7.209  16.762   0.731  0.1645 -0.0459 -0.0661
27791W        W43260   8.395   5.382   3.709 -0.3998  0.2766 -0.0668
27792W        W43261  11.611   5.526  13.541 -0.0892  0.0320  0.0019
27793W        W43262  10.371   6.412  14.788  0.0821 -0.0379  0.0630
27794W        W43263  13.641  10.090  14.731  0.0725 -0.3258  0.0524
27795W        W43264  18.099   6.909  10.531 -0.0107  0.3599 -0.5628
27796W        W43265   4.204  14.396  13.597  0.0132 -0.0831 -0.0615
27797W        W43266  16.382  17.003   4.164 -0.1261 -0.1249  0.1649
27798W        W43267  10.592   9.127   3.337 -0.1522 -0.1454 -0.1594
27799W        W43268   5.320   5.084  13.194 -0.0115  0.2565  0.0564
27800W        W43269   8.040   0.250   4.142  0.2198 -0.1833 -0.1221
27801W        W43270  12.562  13.385   2.343  0.1229 -0.1794  0.2996
27802W        W43271   1.989   8.981   2.078 -0.0017 -0.2460 -0.2547
27803W        W43272   5.575   2.557  12.080 -0.2211  0.4058 -0.2107
27804W        W43273  11.532   5.505  14.542 -0.0250 -0.1251  0.3171
27805W        W43274  16.201  14.483   3.996  0.0281 -0.3546 -0.2190
27806W        W43275   1.887   7.015  13.447  0.1719  0.3311  0.0555
27807W        W43276   3.113  10.365   1.852  0.0392  0.0798 -0.3055
27808W        W43277  10.669   7.695  11.179  0.3582 -0.0982 -0.0012
27809W        W43278  12.664   4.924   0.358  0.1745  0.0632  0.1687
27810W        W43279   1.694  13.499   2.879 -0.2047  0.0466  0.2508
27811W        W43280  15.821   6.319  10.802 -0.0746  0.1531 -0.3712
27812W        W43281   1.501  13.031   4.419  0.0816  0.1929  0.1578
27813W        W43282  18.046  14.312  15.129 -0.1453  0.0875 -0.1172
27814W        W43283  12.094   0.935   1.392 -0.1524  0.1123 -0.1223
27815W        W43284  14.594   5.124  11.282 -0.0296 -0.0255 -0.1702
27816W        W43285   2.889   5.830   4.262  0.1814  0.3895  0.2346
27817W        W43286   6.152   8.357   3.472  0.2601 -0.0909  0.0378
27818W        W43287  15.611  10.007   0.021  0.2322 -0.0738 -0.2301
27819W        W43288   6.232   5.286  15.223  0.2478  0.0853 -0.1430
27820W        W43289   2.268   5.955  12.331 -0.1589  0.2842  0.2073
27821W        W43290   9.161   4.579  11.781  0.0647 -0.0799  0.2576
27822W        W43291   5.426   0.356   9.933 -0.1612  0.0572 -0.1586
27823W        W43292   0.594   4.346  14.499 -0.3196 -0.1077  0.0361
27824W        W43293   8.734  13.380   2.379 -0.0449  0.0013  0.2664
27825W        W43294   1.979  17.232   3.423 -0.0786 -0.1468  0.1873
27826W        W43295   9.735   3.492  14.844 -0.1224  0.1546 -0.0543
27827W        W43296  12.312   3.530  15.617 -0.0225  0.2180 -0.1012
27828W        W43297  14.164  17.332   0.102  0.0546  0.0670  0.1555
27829W        W43298  14.123   8.285   0.201 -0.0328 -0.0315  0.0188
27830W        W43299   4.800   2.606   4.014 -0.6558 -0.1100 -0.1229
27831W        W43300   1.210   7.101  13.890  0.0182  0.1106  0.1414
27832W        W43301   2.997   9.286  10.521 -0.0807 -0.0396 -0.1834
27833W        W43302  16.530  15.748  12.379 -0.0336 -0.2120  0.1926
27834W        W43303   5.168  18.589   3.487 -0.0361  0.1143  0.3121
27835W        W43304  10.651   5.449   5.464 -0.0943 -0.1112 -0.2307
27836W        W43305   6.869  15.023  14.975  0.1437 -0.0682 -0.1933
27837W        W43306   7.498   6.926   4.900  0.1941 -0.1284  0.2150
27838W        W43307   1.519  10.025  11.693 -0.2215  0.1849 -0.0867
27839W        W43308   7.484   3.945   0.581  0.1350  0.3339  0.0650
27840W        W43309   7.433   9.989  14.793  0.2703  0.0859 -0.0604
27841W        W43310   4.537  14.638   3.082 -0.2026 -0.1852  0.0640
27842W        W43311  13.102   8.976  15.068  0.3644  0.4172  0.1244
27843W        W43312   6.046   4.194  14.643 -0.0297 -0.0533  0.1746
27844W        W43313   9.253   3.476  13.476 -0.0735  0.2722  0.4015
27845W        W43314   3.031   9.941  11.330 -0.1772 -0.0040  0.0063
27846W        W43315  14.587  15.088   2.642 -0.0183  0.2049 -0.0646
27847W        W43316   8.814   7.563   5.545  0.2053 -0.0380  0.0323
27848W        W43317   3.224   8.385   4.969 -0.5387 -0.0187  0.2691
27849W        W43318  10.892   9.659   3.522  0.0406  0.0549 -0.1850
27850W        W43319   3.608   9.891  11.060 -0.0709  0.1022  0.2664
27851W        W43320  11.006  10.986  15.015  0.2230 -0.0466 -0.0127
27852W        W43321   9.344   2.602  14.972 -0.0534 -0.1248  0.0450
27853W        W43322  14.737   7.359  14.548 -0.0194 -0.2925 -0.1615
27854W        W43323  13.873   2.712  14.635  0.0602  0.1149 -0.1657
27855W        W43324   5.584  12.883  10.358 -0.2368 -0.1048  0.0498
27856W        W43325  10.307   3.719  15.718 -0.0993 -0.1439 -0.0049
27857W        W43326   5.970  11.819  13.708 -0.1710  0.0796  0.0845
27858W        W43327   2.253  16.533   4.056  0.0748 -0.1995  0.2201
27859W        W43328  10.759   4.371   5.389 -0.5036  0.0513 -0.2093
27860W        W43329  14.758   5.919   3.070  0.1191 -0.1243 -0.0053
27861W        W43330   7.326   6.347  10.528  0.0830  0.1501  0.0069
27862W        W43331  11.840  13.989  14.405 -0.2512 -0.1894 -0.0314
27863W        W43332   0.370   4.895  15.223  0.0704 -0.0858 -0.0490
27864W        W43333  15.151   8.160  10.422  0.0807 -0.3704 -0.0669
27865W        W43334  18.053   4.540  12.628 -0.0876 -0.0832  0.1241
27866W        W43335   8.711  13.063  11.068  0.0559  0.0858 -0.0225
27867W        W43336   3.328   8.276   0.360 -0.1746  0.0116  0.1614
27868W        W43337   7.688  11.025  15.494 -0.1801  0.2575 -0.0697
27869W        W43338   3.505   1.342  13.448  0.1296 -0.4105 -0.3920
27870W        W43339  13.875   0.619  14.693 -0.0322  0.4446  0.0443
27871W        W43340  10.466   5.443   2.408 -0.0072 -0.2937  0.1965
27872W        W43341  15.467   2.877   3.821 -0.2047 -0.0165 -0.1778
27873W        W43342  11.454   5.647  14.026  0.0214  0.2481 -0.1667
27874W        W43343   5.116   8.031  14.484 -0.0093 -0.0805 -0.2408
27875W        W43344   6.250  13.048  15.409 -0.2242 -0.2709 -0.2119
27876W        W43345   8.840  10.975  15.415  0.0995  0.1959  0.2676
27877W        W43346  11.542  10.800  14.091 -0.2235  0.2627  0.0903
27878W        W43347  15.526   6.059  15.170 -0.1740 -0.1027  0.4000
27879W        W43348   3.412  14.406   4.086  0.1624  0.1249 -0.1075
27880W        W43349  18.110  16.229  12.859 -0.1375 -0.0315 -0.1343
27881W        W43350   6.335   9.509   2.982  0.3361 -0.2048 -0.0901
27882W        W43351   4.335  10.542  11.250  0.3304  0.2093  0.1905
27883W        W43352   0.009   4.250   9.644  0.1256  0.0542 -0.3210
27884W        W43353   0.678   4.256   0.206 -0.1632  0.0064 -0.4749
27885W        W43354   2.885  10.442  15.432 -0.3015  0.1477  0.0284
27886W        W43355  17.519   7.323  12.711 -0.2379 -0.2963 -0.2232
27887W        W43356  15.321   6.031   2.012 -0.2971  0.0086 -0.0045
27888W        W43357  17.215   7.749   0.031 -0.2544 -0.3099 -0.1002
27889W        W43358  12.510  12.907   2.405 -0.0781 -0.2536 -0.3398
27890W        W43359   2.286  18.369   2.881 -0.3301 -0.0104 -0.0799
27891W        W43360   6.350  15.260  11.485  0.1338  0.1366  0.1602
27892W        W43361  11.389  15.330  14.278 -0.0582  0.0392 -0.0880
27893W        W43362  14.392   7.934   3.814  0.1497 -0.0512 -0.1213
27894W        W43363   8.585   7.483  15.440  0.4132 -0.0747 -0.0514
27895W        W43364  15.420   7.251   1.238  0.0870  0.0237 -0.0569
27896W        W43365   2.075  13.057   3.121  0.0374  0.1305 -0.1268
27897W        W43366   3.085   6.319   4.053 -0.2375 -0.0398  0.0337
27898W        W43367   9.800   1.334   1.546  0.1762  0.0911  0.2139
27899W        W43368   1.064  13.639  11.578 -0.0861  0.1963 -0.0879
27900W        W43369   0.743   7.614   4.214  0.1632 -0.0593 -0.1904
27901W        W43370   6.231   0.251   4.828 -0.1119 -0.1142  0.1071
27902W        W43371   8.770   5.483  11.239  0.0546 -0.1822 -0.4361
27903W        W43372  12.906   6.445  15.032 -0.1054  0.0029  0.2247
27904W        W43373  18.608   2.878  13.304  0.0748  0.1066 -0.0656
27905W        W43374  11.587   2.978  14.376 -0.0702 -0.0546 -0.4144
27906W        W43375   5.448  12.580   2.266 -0.1842  0.1258  0.3607
27907W        W43376  11.115  18.477  13.627 -0.1030 -0.1275  0.0817
27908W        W43377  13.639  12.075  10.619  0.0081  0.1604 -0.0749
27909W        W43378  15.628  18.307   0.842  0.2195  0.0544 -0.0235
27910W        W43379  15.553  16.244   1.692 -0.0373  0.3295  0.0583
27911W        W43380  11.107   0.183  14.320 -0.0335  0.0391  0.1517
27912W        W43381  12.470   5.127   3.218 -0.1413 -0.1483 -0.1531
27913W        W43382   6.504  17.080   1.755 -0.3015 -0.0166 -0.2237
27914W        W43383   5.724   9.009  12.353 -0.2140 -0.0504 -0.1217
27915W        W43384  10.812  16.556   1.594 -0.1446  0.0815  0.2413
27916W        W43385   7.030  15.728   5.733 -0.0423  0.2659  0.2566
27917W        W43386   0.699   7.752  14.635 -0.3741  0.1166 -0.2341
27918W        W43387  16.755   9.514   2.605  0.1919  0.0283  0.1235
27919W        W43388   7.520  17.143  13.657  0.1152  0.2648 -0.2378
27920W        W43389  16.586  17.168   0.948 -0.3589 -0.0623 -0.0791
27921W        W43390   3.342  13.810  15.205  0.1441  0.1098  0.1348
27922W        W43391   8.749   5.974  14.506 -0.1189  0.2383 -0.1904
27923W        W43392  10.299   0.534  13.878 -0.2037  0.1301  0.0472
27924W        W43393   0.840  16.347  12.659 -0.2210 -0.1119  0.1564
27925W        W43394  16.128  14.394   1.515 -0.4092  0.3084  0.2121
27926W        W43395   6.445  11.985   1.640 -0.1710  0.0020 -0.0486
27927W        W43396   4.003  15.611   4.944  0.0804 -0.0713 -0.0573
27928W        W43397   4.564   9.307   0.565 -0.2283  0.0934 -0.2416
27929W        W43398  10.641  17.052   5.430  0.3856 -0.0416 -0.0258
27930W        W43399   2.003  18.050   1.008 -0.0036 -0.1573 -0.0881
27931W        W43400   7.061   7.395  11.487  0.0852  0.1836 -0.1374
27932W        W43401   1.671   6.342   3.411  0.1964  0.0258  0.0798
27933W        W43402  15.069   3.203   4.959 -0.1733  0.0932 -0.1386
27934W        W43403   2.951   4.854  14.837 -0.2124 -0.0588 -0.1558
27935W        W43404  10.674   7.181   3.665 -0.0650  0.0946 -0.0967
27936W        W43405   9.179  18.576  14.823 -0.1674  0.2089  0.1361
27937W        W43406  13.529  15.264  13.983 -0.0828  0.0167  0.1331
27938W        W43407   1.722  12.416   5.252 -0.2279  0.1771 -0.1174
27939W        W43408   0.594   5.515   2.721 -0.1864  0.0473  0.0690
27940W        W43409  14.431  12.549   2.224 -0.1269  0.0755 -0.2901
27941W        W43410   9.756  16.568   3.929  0.1554  0.0811  0.1323
27942W        W43411   9.891   3.217   5.013  0.2447  0.2835 -0.1949
27943W        W43412   3.388   6.028   2.296  0.2761  0.0104 -0.0374
27944W        W43413  18.200  16.025  14.115 -0.3203 -0.1526  0.0159
27945W        W43414  16.022  14.668  14.516 -0.1071 -0.0643 -0.1381
27946W        W43415  10.249  11.455  13.588  0.1124  0.3464  0.2115
27947W        W43416  18.419   1.726  12.353  0.1178 -0.3471 -0.0427
27948W        W43417  17.748  12.693  12.867  0.3999 -0.2241  0.4110
27949W        W43418  11.383   5.605   0.430  0.4271 -0.1626  0.3455
27950W        W43419   0.257   4.488   4.154  0.3596  0.0937  0.0590
27951W        W43420  18.223   9.930  10.314 -0.0717  0.1255  0.3077
27952W        W43421   4.550   2.806  11.099 -0.0384  0.0977 -0.0201
27953W        W43422  12.425  12.208  14.433  0.2154 -0.3434 -0.1115
27954W        W43423   5.366  18.492   2.457  0.1359 -0.1690  0.2195
27955W        W43424  18.347   7.393  10.223 -0.0500 -0.2646  0.3177
27956W        W43425   2.293   6.524   0.976 -0.3342 -0.2591  0.1405
27957W        W43426   9.199  18.415  11.895 -0.1266  0.1844 -0.1008
27958W        W43427  13.447  18.371  13.718  0.3365  0.1702  0.1337
27959W        W43428   7.241   5.732  14.285  0.1137  0.5554  0.1301
27960W        W43429  12.211  14.099   2.493 -0.0929  0.0795  0.0461
27961W        W43430  13.762   2.885   3.493  0.0246  0.0020 -0.1844
27962W        W43431  17.599  10.101  11.550  0.0719 -0.0495  0.0980
27963W        W43432   9.160   0.194   4.414 -0.2409 -0.0282  0.0999
27964W        W43433   2.207  11.455   4.083  0.1662  0.0379 -0.0621
27965W        W43434   5.264  12.783  15.400  0.0579 -0.0338  0.0257
27966W        W43435   3.306  16.611  13.487 -0.1184  0.2095 -0.1104
27967W        W43436  14.343   0.414   4.479  0.1284 -0.1257 -0.2073
27968W        W43437  17.460   0.080  10.803  0.4265 -0.4899  0.0008
27969W        W43438  10.680  17.448   0.323 -0.3388  0.2688  0.0231
27970W        W43439   6.800   4.812   5.176 -0.0886 -0.0414  0.0592
27971W        W43440  14.058  17.416   1.098 -0.0644  0.1639  0.3476
27972W        W43441   4.417  10.652  15.261 -0.0705 -0.0534 -0.1358
27973W        W43442   5.482   5.723   3.376  0.1584 -0.1707 -0.0936
27974W        W43443   6.043  16.576  12.814 -0.1693 -0.1541  0.1837
27975W        W43444  12.969  14.078  12.009 -0.0933 -0.0686  0.1062
27976W        W43445   8.534   4.372   2.037  0.1160  0.0380 -0.1280
27977W        W43446   3.985  13.152   3.226  0.2543 -0.1182 -0.0105
27978W        W43447  17.329  14.534   4.025 -0.0787  0.4169  0.0298
27979W        W43448   6.951   9.332   0.252  0.0164  0.3868  0.0206
27980W        W43449   4.956  11.832  10.777  0.1672 -0.0626 -0.0052
27981W        W43450  13.818  17.697  15.195  0.1888 -0.0860  0.0582
27982W        W43451   2.356  12.077   3.709 -0.3323  0.0894 -0.1147
27983W        W43452  10.110  17.771   2.708 -0.1562 -0.1648  0.1468
27984W        W43453   7.237  14.962   1.028 -0.0476  0.2341 -0.2940
27985W        W43454  11.588  14.131   2.833 -0.0311 -0.3017 -0.3728
27986W        W43455   9.953  17.319  13.996  0.1641  0.1002  0.0738
27987W        W43456  13.715   2.788  14.143 -0.0369 -0.2726  0.3043
27988W        W43457   4.934  17.011   3.665  0.0068  0.0979  0.2352
27989W        W43458  17.953   9.989  14.322  0.2760 -0.2177  0.0132
27990W        W43459  18.258   2.106  14.719  0.0538 -0.1115 -0.1763
27991W        W43460  13.888  18.274   4.521  0.3071 -0.2963  0.0310
27992W        W43461   5.849   5.310   5.835  0.3337  0.0675  0.1548
27993W        W43462   0.903   3.974  14.305 -0.1456 -0.1480  0.0240
27994W        W43463  15.463   3.405   4.003  0.1937 -0.2005 -0.2662
27995W        W43464   8.026  11.074   0.047 -0.1258 -0.1523  0.0890
27996W        W43465  11.242   9.332  11.290  0.1228 -0.2857 -0.1081
27997W        W43466   7.689   6.909   1.375 -0.0996  0.3098 -0.0857
27998W        W43467  13.490  12.009   4.212  0.1217 -0.1350  0.2827
27999W        W43468   2.672   8.938  15.098 -0.1442  0.0926  0.3063
28000W        W43469  15.042   6.529  10.725  0.0785 -0.0492  0.0235
28001W        W43470   9.053   4.748   3.902 -0.2223  0.1278  0.0178
28002W        W43471  14.921   5.116   3.123 -0.2338  0.3612  0.1457
28003W        W43472   0.931  18.097   5.413 -0.1253  0.2016 -0.0102
28004W        W43473  15.407  10.889   1.554 -0.0691 -0.1659 -0.0666
28005W        W43474  16.257  12.274  13.212  0.0052  0.0316 -0.0689
28006W        W43475   4.378   9.258   3.396 -0.0531  0.2884  0.0886
28007W        W43476   6.073   6.034   0.065 -0.2742 -0.0821 -0.1017
28008W        W43477  10.120   1.490   0.713 -0.0353 -0.1524 -0.4632
28009W        W43478   2.043   6.803   4.385  0.3138 -0.2780 -0.0736
28010W        W43479  15.217   3.068   1.939 -0.1543 -0.2439  0.1704
28011W        W43480  13.422  12.982   4.102  0.2920 -0.3418  0.1321
28012W        W43481  17.085  14.414   5.606 -0.0233  0.1972  0.0453
28013W        W43482   1.404   2.793   5.077  0.3012 -0.0592  0.0116
28014W        W43483   1.024   9.660  11.021  0.1082 -0.0684  0.1968
28015W        W43484  15.747   8.227  14.171  0.3434  0.2608 -0.0245
28016W        W43485   5.825   9.705   0.644  0.0845  0.0036 -0.0331
28017W        W43486  11.883   7.622   4.131 -0.0995 -0.1877 -0.1926
28018W        W43487  13.096   8.768   1.960  0.2675 -0.2515 -0.2071
28019W        W43488  15.176   0.440  13.791 -0.0026  0.1594 -0.0249
28020W        W43489  10.711  11.399   0.047  0.0820 -0.2180 -0.2596
28021W        W43490  10.079   3.693   0.403  0.2333  0.2737 -0.2068
28022W        W43491   1.665   2.932  12.706  0.0102 -0.0610  0.2585
28023W        W43492  17.796  13.859   1.865 -0.1244 -0.1018  0.2102
28024W        W43493   1.145  11.013  12.974 -0.0997 -0.3785  0.1164
28025W        W43494  16.254  11.354  13.377  0.1336 -0.0883  0.0860
28026W        W43495  11.249   7.895  12.416  0.2188 -0.0879  0.2015
28027W        W43496   8.720  11.894   5.357  0.1542  0.1410  0.2645
28028W        W43497  17.927   9.760   0.333 -0.0947  0.1997 -0.1318
28029W        W43498   3.655   8.601   4.591  0.1020 -0.1321 -0.0225
28030W        W43499  11.678   2.399  14.419  0.1367 -0.0038  0.1445
28031W        W43500  16.892   6.953  12.530  0.2793  0.0822 -0.3376
28032W        W43501  15.103   7.183   0.410 -0.1016  0.1133 -0.0226
28033W        W43502  14.546   1.625   1.401  0.0297 -0.1588  0.2959
28034W        W43503   9.957  13.949  11.751  0.0373  0.2702  0.0030
28035W        W43504  15.954   2.580  10.113 -0.0365  0.0660  0.2219
28036W        W43505   3.377   4.734   3.660  0.1738 -0.0286  0.1762
28037W        W43506  11.948   2.504   2.244  0.0431  0.3469  0.0046
28038W        W43507  12.235   6.830  11.845  0.1347 -0.2665 -0.4594
28039W        W43508  15.468  13.274   9.574 -0.2068 -0.0255  0.1139
28040W        W43509   3.845  17.198   5.587 -0.0723  0.0438  0.2604
28041W        W43510   2.375   9.434  12.112 -0.0720 -0.2146 -0.0065
28042W        W43511  15.228  15.789   2.357  0.1170 -0.2371 -0.0266
28043W        W43512  14.254  12.862   3.684  0.1155  0.1103  0.1763
28044W        W43513  12.694   5.544   1.888  0.2404  0.2150  0.0561
28045W        W43514  18.554  13.215  15.323 -0.0703 -0.0982  0.0246
28046W        W43515  10.370   5.688   4.486 -0.1595  0.1465  0.0332
28047W        W43516   4.082  14.513  11.307  0.2278 -0.3228  0.3532
28048W        W43517  15.853  11.281   2.365  0.4913  0.0257 -0.1857
28049W        W43518   2.575   1.169  11.764 -0.1511 -0.0036 -0.0669
28050W        W43519   0.771  16.048  11.816  0.2299  0.0261  0.0043
28051W        W43520  12.661   1.872  12.564 -0.2059 -0.0082  0.1458
28052W        W43521  11.758  15.716  13.540 -0.3133 -0.3454 -0.1680
28053W        W43522   1.492   3.248   5.347 -0.2174 -0.4698  0.1576
28054W        W43523   6.810   4.796  15.005 -0.2447  0.0383  0.2982
28055W        W43524   1.443   6.561   1.152 -0.0322  0.3394  0.1021
28056W        W43525   0.838   7.689  13.005  0.2043 -0.0362 -0.1954
28057W        W43526  14.973   7.130   1.412  0.1460 -0.1979  0.1353
28058W        W43527   5.023  14.531  13.363 -0.1008 -0.1342 -0.0719
28059W        W43528   5.857  14.379   5.139 -0.1661 -0.0090  0.0575
28060W        W43529   7.693   0.626  13.482  0.0886 -0.0145 -0.0794
28061W        W43530  15.294  16.408  14.572 -0.0312  0.1665 -0.2251
28062W        W43531  17.771   3.058   5.077  0.2141  0.1086 -0.0017
28063W        W43532   7.340  13.138  15.673 -0.0125  0.0469  0.0886
28064W        W43533  12.803  16.027  14.618  0.2982 -0.0856 -0.0176
28065W        W43534  11.983  10.739   0.451 -0.1477  0.0727 -0.0504
28066W        W43535   2.695  15.458   2.157  0.0977  0.0811  0.1523
28067W        W43536   7.582   8.261  10.150 -0.1631  0.0734 -0.3313
28068W        W43537  16.404  17.359   1.787  0.0487  0.2222  0.2204
28069W        W43538  15.566   8.733   4.596  0.0108 -0.1048  0.3191
28070W        W43539   7.320  11.328   5.199 -0.1462  0.1220  0.1300
28071W        W43540   0.449   6.448   0.799  0.0215 -0.1724  0.1208
28072W        W43541   2.243   5.705   0.958  0.0131 -0.1496  0.0422
28073W        W43542  14.110  15.798  11.547 -0.0347  0.2012 -0.0026
28074W        W43543  14.999   6.433  12.788 -0.0616 -0.1439  0.0726
28075W        W43544   9.399   6.303   5.486  0.0061  0.1017  0.0623
28076W        W43545   6.569   6.562  11.998 -0.2604  0.0102  0.2611
28077W        W43546   8.784  14.138   1.992 -0.1331 -0.0105 -0.1405
28078W        W43547  17.727   0.987  11.057 -0.1977  0.1262  0.0649
28079W        W43548  10.549  10.798   3.810  0.1352 -0.1773  0.2297
28080W        W43549  14.405   7.417   5.748 -0.0736 -0.3599  0.0887
28081W        W43550  10.585  15.800   4.253  0.3732 -0.0126  0.3491
28082W        W43551  17.400  13.607   2.009 -0.1220  0.1371 -0.0588
28083W        W43552   4.868  12.828  14.193 -0.2460 -0.1889  0.0620
28084W        W43553  18.528   4.033  15.106 -0.1032 -0.0607 -0.0526
28085W        W43554   9.625  12.471   3.806 -0.1190  0.1322  0.2802
28086W        W43555   7.696  15.346  13.578 -0.0725  0.0636  0.1901
28087W        W43556   5.429  12.599   5.104 -0.1208  0.0507 -0.0406
28088W        W43557   7.137   6.433  11.299  0.2630 -0.2471 -0.1549
28089W        W43558   8.852  12.145   1.751  0.0403  0.0633 -0.0909
28090W        W43559   9.732  10.671   4.376  0.2640 -0.0160 -0.3174
28091W        W43560  16.572  17.546  13.794  0.1980  0.3554  0.1056
28092W        W43561   0.103  11.838   9.612 -0.1026  0.1759  0.0062
28093W        W43562   5.201  10.467  13.834  0.1072 -0.0123  0.0862
28094W        W43563   1.456   7.428  11.665  0.2179  0.0136  0.1728
28095W        W43564   1.824  12.896  11.641 -0.0868 -0.2770  0.3902
28096W        W43565   7.899   7.232  11.613  0.1122  0.3212  0.1168
28097W        W43566  14.853   4.210  13.091 -0.0860  0.0437 -0.0139
28098W        W43567   4.627  14.937   6.380 -0.3255  0.2574 -0.1765
28099W        W43568  17.466   6.517   0.804  0.0052  0.1038  0.1192
28100W        W43569   9.485   6.613  14.208  0.0086  0.3648 -0.0443
28101W        W43570  16.972  12.262  13.863 -0.4520  0.2689  0.0318
28102W        W43571   2.713  15.209   1.450  0.3159  0.1368 -0.2169
28103W        W43572   5.813   0.330   1.981  0.1449 -0.0528 -0.0521
28104W        W43573   6.711  15.177   3.043 -0.2066  0.0164  0.1934
28105W        W43574   6.588  11.332  14.367 -0.3246 -0.0780 -0.1546
28106W        W43575  13.543   8.600   5.959 -0.1457  0.1496  0.0681
28107W        W43576   9.304  17.899  14.477 -0.3464  0.1607  0.0233
28108W        W43577   0.756  17.567   5.440  0.0321 -0.0333  0.0085
28109W        W43578   4.736   2.665  14.178  0.3897  0.1027 -0.3250
28110W        W43579  11.010   0.864   1.111 -0.0243 -0.1130 -0.0372
28111W        W43580  14.429  13.274   2.728  0.3264  0.1561  0.0779
28112W        W43581   0.305   9.651   1.921  0.1954  0.0364  0.0363
28113W        W43582  10.115   2.607  15.410  0.0648 -0.1571 -0.2385
28114W        W43583   5.400   8.327   4.253  0.2672  0.1447 -0.4935
28115W        W43584   5.769  17.085   1.788  0.2153  0.0242  0.0670
28116W        W43585  12.136   8.350   5.532 -0.2127 -0.3237  0.1120
28117W        W43586   1.678   6.618  14.421 -0.1126  0.0947  0.0778
28118W        W43587   7.375   8.142   2.596  0.0247 -0.0281  0.0614
28119W        W43588   0.394  15.687   0.763  0.1135  0.2257  0.4477
28120W        W43589   2.283   3.617   0.734  0.2333  0.2696  0.0503
28121W        W43590  17.538  18.565  14.816 -0.3625  0.4708 -0.1256
28122W        W43591   5.510  16.296  12.465 -0.1088 -0.0988 -0.1958
28123W        W43592  13.244   4.351  10.617 -0.0477  0.2119  0.1211
28124W        W43593  15.365   9.583  15.064 -0.3365  0.3167  0.0022
28125W        W43594   5.487   6.109  14.045  0.1126 -0.0056 -0.0002
28126W        W43595  13.667   9.665  14.545  0.0517  0.0978  0.2595
28127W        W43596   5.132   9.217  11.747  0.2172 -0.2452 -0.2066
28128W        W43597  10.753   8.005   5.437 -0.0084  0.0682  0.0856
28129W        W43598   3.733   5.202   0.160  0.1666  0.2135 -0.0840
28130W        W43599  16.852   3.350  15.273 -0.0600  0.4302  0.2045
28131W        W43600  17.133  17.642   0.959 -0.0322  0.3644 -0.2024
28132W        W43601   9.477   9.202   9.834  0.0690  0.2348  0.0649
28133W        W43602   8.942  15.380   2.496 -0.2740 -0.1006 -0.2090
28134W        W43603  17.694   6.984   3.277  0.2236 -0.1550  0.1831
28135W        W43604   9.313   3.319  11.979  0.0962  0.1444 -0.0768
28136W        W43605   4.051   4.707  14.782 -0.0237 -0.2867 -0.0426
28137W        W43606   9.973   2.899  12.633  0.1137 -0.3178 -0.0672
28138W        W43607  16.087  15.612   1.486  0.0925 -0.0569 -0.0640
28139W        W43608   8.577   8.287   2.019  0.0932  0.0227  0.2176
28140W        W43609  16.607  18.581  12.446 -0.0218  0.1968 -0.0558
28141W        W43610   7.051   7.846  14.587 -0.0673  0.0797  0.0293
28142W        W43611  15.805  15.791  12.733  0.0435 -0.3329  0.0916
28143W        W43612  14.571   7.119   1.666 -0.0147 -0.0050 -0.0432
28144W        W43613  17.594  11.026   4.792 -0.0777  0.1700  0.0403
28145W        W43614   5.716  15.659  15.206  0.1902  0.0345 -0.0908
28146W        W43615  15.939   5.841   4.175 -0.0359  0.0938  0.1248
28147W        W43616  11.482   9.653   4.242  0.1083  0.0115  0.3263
28148W        W43617   8.009   0.990   2.933  0.0897 -0.3261  0.0722
28149W        W43618   3.984   3.242   2.289 -0.0250 -0.0928  0.1213
28150W        W43619   5.878  18.560   2.277  0.1122 -0.0582  0.2734
28151W        W43620   9.008  16.399  14.492  0.3017 -0.4197 -0.0038
28152W        W43621  13.408   3.629   6.030 -0.3185 -0.0467  0.0465
28153W        W43622  12.265  15.433  13.027 -0.0601  0.0029 -0.1524
28154W        W43623  16.555   3.022   0.217  0.2852 -0.3469  0.0992
28155W        W43624   7.492  10.394   4.218  0.4199 -0.1877  0.1727
28156W        W43625  10.131  16.081   3.268  0.3767 -0.2344 -0.0803
28157W        W43626   6.470   4.681   9.961 -0.1346 -0.0060 -0.0611
28158W        W43627  17.719  14.536  13.882  0.1426  0.0721  0.1322
28159W        W43628  12.696   4.353  14.707  0.3627  0.0466 -0.2588
28160W        W43629   7.682  12.473   2.418 -0.0412 -0.0088  0.1860
28161W        W43630  12.019  16.609  15.153  0.0113 -0.0021 -0.0300
28162W        W43631   9.922  11.276   0.761  0.1845 -0.1312  0.1631
28163W        W43632  16.207   7.935   0.000  0.1285 -0.1417  0.1707
28164W        W43633   1.161  18.208  13.886  0.2063  0.0704 -0.1351
28165W        W43634  11.944   9.584   0.833  0.0223 -0.0369  0.0907
28166W        W43635   9.364  13.988   4.792  0.3066  0.0867 -0.1589
28167W        W43636  14.402  12.588  15.122 -0.1332  0.4924  0.2460
28168W        W43637   8.398   5.669   4.240  0.0024  0.1996  0.1490
28169W        W43638   5.373  10.410   3.524 -0.2244  0.2645  0.3070
28170W        W43639  17.220   2.571  14.304 -0.0644  0.1686 -0.0692
28171W        W43640   0.182   4.143   1.796 -0.0119 -0.1831 -0.2817
28172W        W43641  10.512  16.497  11.495 -0.1163  0.0100 -0.0426
28173W        W43642   1.826   7.307   2.416  0.0176 -0.1307  0.2579
28174W        W43643   1.489  12.465   4.175  0.2919 -0.1789  0.1294
28175W        W43644   6.748  18.229   2.474 -0.3439 -0.3423 -0.0235
28176W        W43645   6.775   8.713   1.873  0.3342  0.1420 -0.0372
28177W        W43646   7.535  17.048  15.063  0.1434 -0.0199  0.4216
28178W        W43647  11.390   4.242   1.473 -0.0352  0.1130 -0.0601
28179W        W43648  11.643  18.018  12.269 -0.2477  0.0263  0.1870
28180W        W43649   4.029   1.250  11.608  0.1392 -0.3402  0.0595
28181W        W43650   4.915  12.700   4.973 -0.0377 -0.3824  0.0390
28182W        W43651   7.466  15.984   5.059 -0.0011  0.1173  0.0591
28183W        W43652   9.876   5.653  11.629 -0.2111  0.1024  0.0946
28184W        W43653  11.393  14.472   1.549 -0.1072  0.1996 -0.2070
28185W        W43654   4.899  13.277   4.968 -0.4681 -0.0909  0.3136
28186W        W43655  13.367   0.704  12.909 -0.1603  0.0340  0.0864
28187W        W43656  18.463   4.841   1.730  0.2368  0.3211  0.0134
28188W        W43657  13.013   5.078   3.449  0.0850  0.3212  0.4307
28189W        W43658  14.804   5.861  10.999 -0.1030  0.0494 -0.1172
28190W        W43659  11.838   1.654   2.814 -0.0302 -0.2642 -0.0506
28191W        W43660   7.151   7.459   1.141 -0.0848  0.5288  0.1900
28192W        W43661   5.629   7.854  13.526  0.0152  0.1762 -0.0256
28193W        W43662  14.315   4.315  12.889 -0.0010 -0.2957  0.2734
28194W        W43663   6.031   6.030   2.042 -0.1908 -0.3454 -0.2088
28195W        W43664   1.200   3.856   1.845 -0.1870  0.2673 -0.3994
28196W        W43665   5.439   7.755   3.177  0.1930 -0.0976  0.2029
28197W        W43666  12.011  17.740  11.456  0.1352  0.2004  0.1812
28198W        W43667   4.773   1.923   0.685 -0.1562 -0.2221  0.0086
28199W        W43668   1.693  14.225   5.624 -0.4130 -0.2882  0.1430
28200W        W43669  17.398   7.129  14.653  0.0057 -0.3226 -0.1058
28201W        W43670   6.837  17.584   3.344  0.0124  0.1961  0.0768
28202W        W43671   4.200  15.866   5.717 -0.0026  0.2549 -0.0196
28203W        W43672  10.152   8.455  11.362  0.0482 -0.3599 -0.0527
28204W        W43673   6.324  11.428  15.495  0.3048 -0.1969  0.2150
28205W        W43674   8.137  10.311   4.005 -0.1096  0.0127  0.1705
28206W        W43675   7.684  11.317   0.690 -0.4016  0.0254  0.0344
28207W        W43676   0.004  15.043  10.935 -0.2635 -0.2693 -0.3119
28208W        W43677  15.590   2.611   0.011  0.1866 -0.3673  0.0054
28209W        W43678   8.307   1.486  12.069  0.3729 -0.0114 -0.1334
28210W        W43679  11.646   2.773  11.837  0.0924 -0.0014 -0.5308
28211W        W43680   8.424  11.956  11.519  0.3380  0.1132 -0.1190
28212W        W43681  10.800   5.982   5.460 -0.1022  0.2130  0.1451
28213W        W43682   7.395   8.329   9.716  0.0160 -0.1353  0.1520
28214W        W43683  12.569  16.890   2.993  0.3391  0.2419  0.2169
28215W        W43684   2.256  13.299   0.053 -0.3881  0.1159  0.1827
28216W        W43685   5.152  10.817   0.211  0.2779  0.2839 -0.3628
28217W        W43686  14.763   3.638  12.129  0.0979  0.0699 -0.2629
28218W        W43687   6.308   4.532  12.469 -0.5120  0.0534  0.0507
28219W        W43688   2.976   4.774   4.570  0.3785  0.0471 -0.1313
28220W        W43689   0.085   1.208   3.330 -0.1495  0.0108  0.1539
28221W        W43690   1.771  10.768  15.138 -0.1879  0.0385 -0.1602
28222W        W43691   9.884  11.988   5.465  0.0869  0.0620 -0.1120
28223W        W43692  14.036  15.155  13.120  0.1057  0.2524 -0.1047
28224W        W43693   3.998  16.935  11.950  0.1228  0.3222  0.2766
28225W        W43694  11.216  13.520  11.480 -0.0091  0.0597 -0.4111
28226W        W43695   4.152   3.887  10.827  0.0106 -0.2414  0.2965
28227W        W43696  12.783   9.711  10.650 -0.0446 -0.6203 -0.0723
28228W        W43697  17.923  11.023  11.202  0.0027 -0.2131 -0.3083
28229W        W43698   5.977  14.502   1.355  0.1522 -0.1720  0.1719
28230W        W43699  15.139  17.807  13.459 -0.1642  0.0356  0.1911
28231W        W43700   5.017  18.592  15.134  0.0840 -0.1879  0.0810
28232W        W43701   4.559   4.537   2.355  0.0681  0.0128  0.4040
28233W        W43702   7.545  10.598   2.758  0.2545  0.1164 -0.1714
28234W        W43703   8.768  10.698   4.742  0.1470  0.3611 -0.0502
28235W        W43704  14.327   7.033  10.913  0.3082 -0.0975  0.1138
28236W        W43705  11.787   6.695   3.749  0.0916 -0.1010  0.1923
28237W        W43706   3.652   0.336  15.151  0.2762 -0.3061 -0.0229
28238W        W43707  11.032   6.587  14.211 -0.1855  0.2699  0.1880
28239W        W43708   9.604  17.540   5.265  0.1915  0.2766 -0.0719
28240W        W43709  15.111   7.930  12.396  0.1902  0.1898  0.2251
28241W        W43710  12.514   8.786  12.302 -0.1673  0.0291  0.0815
28242W        W43711  13.889  13.748   2.399 -0.3228 -0.1233  0.1646
28243W        W43712   6.275   3.829  12.957  0.2153 -0.0035  0.2422
28244W        W43713   6.810   1.253   2.583  0.1296  0.1333  0.1466
28245W        W43714  16.878  14.031  14.530  0.1583 -0.1231 -0.1080
28246W        W43715   7.536  11.326   2.889  0.0385 -0.0991  0.1699
28247W        W43716  17.892  11.856   4.818  0.0709  0.1611  0.4671
28248W        W43717  11.525  10.292   3.473  0.1190 -0.0177  0.0264
28249W        W43718  13.801   9.831  12.646 -0.2019  0.2386  0.0329
28250W        W43719  18.544  15.610   0.577  0.0175  0.0564  0.1666
28251W        W43720   7.106  15.479  10.115 -0.1049 -0.0664 -0.1995
28252W        W43721  16.362  17.914  11.418  0.0535  0.0173 -0.0011
28253W        W43722  13.425   3.423  12.560 -0.0092 -0.0545 -0.0746
28254W        W43723   0.394   5.547   0.290  0.0290 -0.4052 -0.1871
28255W        W43724  15.875  17.930   2.560 -0.0856  0.1611  0.0102
28256W        W43725   7.264  15.346  12.418 -0.1228  0.0275 -0.2237
28257W        W43726  12.404   1.940   3.849 -0.0872  0.0518 -0.2514
28258W        W43727   6.507   9.697   5.436 -0.1523  0.0122  0.1112
28259W        W43728   6.943   3.442   1.629 -0.4457 -0.1736  0.1205
28260W        W43729   8.632  17.990  14.311  0.0352  0.1043 -0.1823
28261W        W43730   8.677   6.795   2.561  0.5372  0.0475  0.1530
28262W        W43731   1.781  14.099   1.954  0.1305 -0.1976 -0.3176
28263W        W43732  15.605   9.387   5.365 -0.0308 -0.2256 -0.3980
28264W        W43733   1.979  12.559   1.178 -0.1316 -0.2958 -0.0402
28265W        W43734  11.947   3.444   0.701 -0.0276 -0.0202 -0.4490
28266W        W43735  16.444  12.539  12.419  0.0692  0.1458 -0.1029
28267W        W43736  18.376   0.834   3.284  0.2659  0.1431  0.2363
28268W        W43737  10.419  15.595  15.114  0.0558  0.2669  0.0305
28269W        W43738  10.482  16.171  11.913  0.0964  0.2008  0.1841
28270W        W43739  17.583   9.606  12.741 -0.1691 -0.0334  0.1279
28271W        W43740  14.343  15.321   1.669 -0.0397  0.1716 -0.2672
28272W        W43741   8.476  11.849   1.785  0.1104  0.2812  0.3033
28273W        W43742  12.995   8.802  14.504  0.0945 -0.1660 -0.2863
28274W        W43743   3.828  16.617  12.969  0.0355  0.1505 -0.1975
28275W        W43744   4.353  14.222   1.203 -0.1595  0.0646 -0.1721
28276W        W43745   3.864   8.068   2.256  0.0036 -0.1253  0.1011
28277W        W43746   7.111  11.980   4.044  0.1248  0.0895 -0.0515
28278W        W43747  17.031   6.538   1.339 -0.0336  0.0948 -0.3152
28279W        W43748   5.448   8.785  11.743 -0.3699  0.1094  0.2488
28280W        W43749   2.231  17.555  15.310  0.2859  0.2175 -0.2259
28281W        W43750   3.615  15.996   1.468  0.1735 -0.0467 -0.2353
28282W        W43751  11.598   8.412   4.505  0.1495  0.1276 -0.1657
28283W        W43752   5.735  12.344   0.102  0.1430 -0.0920  0.1383
28284W        W43753   1.714   2.738  14.905 -0.2277  0.4075  0.2624
28285W        W43754   3.701  10.943   2.727 -0.4604 -0.3214 -0.0526
28286W        W43755   8.244   0.994  14.007  0.3002 -0.0087 -0.1035
28287W        W43756   5.109  16.254  14.131  0.1065 -0.0150  0.3586
28288W        W43757   4.606   2.969   2.138  0.0971 -0.1253 -0.0189
28289W        W43758  14.501  10.786  11.347  0.2443 -0.0111 -0.0127
28290W        W43759   6.744  11.236  11.058  0.0271  0.0273  0.2614
28291W        W43760   6.658   7.414  14.951 -0.1027  0.3323  0.0097
28292W        W43761  17.476  16.442   0.515  0.1664 -0.1911 -0.1903
28293W        W43762   9.861   1.648  13.782 -0.1926 -0.1230 -0.1489
28294W        W43763  16.344  10.096  14.481 -0.0113  0.4801  0.1107
28295W        W43764   8.441   4.591   5.212  0.2762  0.1402  0.0766
28296W        W43765   9.783   2.463  14.231  0.1041  0.2084  0.0594
28297W        W43766   6.537  11.781   2.660  0.0270  0.2423  0.0424
28298W        W43767  11.315   8.724  15.378  0.2429  0.1289 -0.4096
28299W        W43768  12.500  17.453  12.460  0.4294 -0.2715  0.3143
28300W        W43769   0.458  16.383   3.864 -0.1997 -0.0642  0.1101
28301W        W43770   5.113  10.004  14.163 -0.0751 -0.0950  0.0387
28302W        W43771  11.530   1.454   6.280  0.0813  0.0694  0.0321
28303W        W43772   0.308  16.903   0.144 -0.2449 -0.0813  0.3814
28304W        W43773  10.650   9.344   2.770 -0.1684  0.2597 -0.0487
28305W        W43774  17.135  10.630  13.490  0.2446 -0.0445  0.2313
28306W        W43775   5.545   8.764  13.980 -0.2038  0.2242 -0.0686
28307W        W43776  15.446   4.871  10.612 -0.0346  0.0814  0.1082
28308W        W43777   6.892  12.668   1.015 -0.0052 -0.1382  0.2155
28309W        W43778  18.218  11.318  12.112 -0.1176 -0.2205  0.0547
28310W        W43779   0.077  13.825  13.346 -0.1975 -0.0278  0.2707
28311W        W43780  14.448   4.211  14.361  0.0003 -0.2239 -0.1134
28312W        W43781  16.253  16.020   3.760 -0.0059  0.1552  0.0616
28313W        W43782  16.985  11.539   5.373  0.2575 -0.1131 -0.1189
28314W        W43783   6.946  17.211   2.111  0.0986  0.2854 -0.0652
28315W        W43784  16.423   5.621  15.110 -0.2538  0.0171  0.0347
28316W        W43785   7.510   4.340   2.318  0.1028  0.1865 -0.0809
28317W        W43786  11.960  18.207   3.705  0.2643  0.1345 -0.0254
28318W        W43787  15.626  16.024   5.154  0.0051 -0.0198 -0.1200
28319W        W43788   3.424  10.255   3.360  0.0372 -0.1309 -0.2705
28320W        W43789  14.782  16.789  13.541 -0.0833 -0.2942  0.1388
28321W        W43790  16.812   6.019  14.406 -0.2873  0.0438  0.0263
28322W        W43791  14.299  11.941   4.309  0.1556  0.3813  0.5827
28323W        W43792   9.217  10.161   3.261 -0.0574  0.0685 -0.2335
28324W        W43793   3.562  14.310  14.517  0.1228  0.0398  0.0637
28325W        W43794   3.665  18.366  14.372 -0.0935 -0.0385 -0.0152
28326W        W43795   9.382   3.179   4.795  0.0152  0.0377  0.1849
28327W        W43796  10.154   8.705   3.584  0.2182  0.1463  0.0135
28328W        W43797  10.817   8.971  11.427  0.2594  0.1021 -0.2244
28329W        W43798   6.679  10.752  15.504  0.2782 -0.1075 -0.1482
28330W        W43799   1.576  10.956  11.814  0.1645  0.1323  0.1791
28331W        W43800  18.560   0.108   0.740 -0.3625  0.0697 -0.1837
28332W        W43801   1.908  16.895   5.455 -0.2978  0.4089 -0.1332
28333W        W43802  16.587   2.458   1.143  0.2629 -0.2651 -0.0082
28334W        W43803  10.167   2.522  11.950  0.2824 -0.1043  0.2435
28335W        W43804   0.644   5.338  11.071  0.3782  0.1723 -0.0780
28336W        W43805   6.532  11.933  15.385 -0.3563 -0.0025 -0.1294
28337W        W43806  13.307   0.475  12.449  0.0941 -0.2270  0.0906
28338W        W43807   1.328  12.501   5.525  0.1859 -0.0325  0.2469
28339W        W43808   2.179  15.469  14.997  0.1760 -0.0051 -0.3002
28340W        W43809  10.626  12.112  14.732  0.1822 -0.0437  0.1090
28341W        W43810  10.439   6.309   5.620 -0.4296 -0.1380 -0.1438
28342W        W43811  13.580  18.269   0.193 -0.0012  0.0995  0.3672
28343W        W43812  17.114  16.362   4.256 -0.2622 -0.2732  0.2466
28344W        W43813  15.719  10.871   4.504  0.1620 -0.2819 -0.1712
28345W        W43814   8.529   6.170  13.593  0.2825 -0.1366 -0.1256
28346W        W43815  16.382   4.518   4.575  0.2305  0.0732 -0.0919
28347W        W43816  16.936  17.295  13.575 -0.0069  0.0896 -0.0677
28348W        W43817  13.926   3.312   2.932  0.0591 -0.0065 -0.0178
28349W        W43818   5.132   7.077   4.134 -0.0512  0.0814  0.0186
28350W        W43819   1.206   1.586  11.779  0.0072 -0.1802  0.1680
28351W        W43820   3.396   6.241  12.117  0.2563 -0.0127  0.3098
28352W        W43821   7.003  16.834   4.653 -0.1017 -0.2479  0.1329
28353W        W43822  17.051  15.594   3.889  0.3712  0.2125  0.4355
28354W        W43823  15.335  11.752   0.721 -0.1018  0.0937  0.3771
28355W        W43824  10.873  17.902   3.442  0.0796 -0.0784 -0.2364
28356W        W43825  13.034   7.621   1.028 -0.0094  0.0303 -0.0468
28357W        W43826  14.700  16.998  14.922  0.1403 -0.1686 -0.1104
28358W        W43827   2.740  10.045   2.027  0.1992  0.1824  0.0526
28359W        W43828  17.073   2.913  13.608  0.4465  0.1578  0.2103
28360W        W43829   2.003   4.364  11.495 -0.0169  0.0718 -0.2483
28361W        W43830   3.190  17.309  15.418 -0.0052 -0.2423  0.0379
28362W        W43831   8.503  12.730  13.302 -0.2453 -0.1274  0.2536
28363W        W43832  17.755   0.280  14.498 -0.0660 -0.0114 -0.3181
28364W        W43833   9.736  15.054   3.595 -0.2529 -0.1212  0.1368
28365W        W43834   2.359  16.451  11.710 -0.1454 -0.0251  0.1754
28366W        W43835   2.107  18.616   1.270  0.3236  0.1730 -0.2130
28367W        W43836   2.243  13.092   2.194  0.0241 -0.2530 -0.0827
28368W        W43837  15.995  18.378   3.844 -0.0597  0.1042  0.1808
28369W        W43838   2.393   0.342   4.735 -0.4807 -0.5240 -0.2718
28370W        W43839  18.414  10.711   4.453 -0.1923 -0.2970 -0.0794
28371W        W43840   0.503  12.215  15.257  0.1671 -0.1487 -0.1029
28372W        W43841   6.667   3.551  14.234 -0.0144 -0.2126  0.1833
28373W        W43842   7.543   3.131   3.328  0.1445 -0.0761 -0.0263
28374W        W43843   3.200   4.462  14.061 -0.1763 -0.0642 -0.0583
28375W        W43844   0.507  12.024  14.819  0.4551  0.1769  0.3436
28376W        W43845   1.258  15.703  11.032  0.3305 -0.0078 -0.0515
28377W        W43846   1.186  10.890   2.796 -0.1005 -0.0121  0.1925
28378W        W43847   9.256   0.805  11.755  0.0170  0.4795 -0.0613
28379W        W43848   0.941   0.628  11.670  0.2916  0.2352 -0.0127
28380W        W43849  12.508   0.036   1.619  0.0730  0.0875  0.4172
28381W        W43850   7.929  11.667   4.645 -0.0214 -0.1698  0.0925
28382W        W43851  18.329   6.209  12.374 -0.5656  0.1314  0.0206
28383W        W43852  13.913  11.698  12.542 -0.2020  0.1472  0.0692
28384W        W43853  17.982  17.300   1.402  0.0076  0.0588 -0.0153
28385W        W43854   6.838  15.202   1.055  0.4925 -0.5373  0.2058
28386W        W43855  10.206  14.996   2.177  0.1185 -0.0886 -0.2975
28387W        W43856   9.564   5.320   5.374  0.1178 -0.1418 -0.3384
28388W        W43857  14.302   3.166  12.727  0.1980  0.0710 -0.3602
28389W        W43858  14.567   7.093   0.183  0.2405  0.2129  0.1596
28390W        W43859   4.177  13.533  12.818 -0.0346  0.2578 -0.1192
28391W        W43860   8.311   9.917  11.126 -0.0307  0.2668 -0.0396
28392W        W43861  10.556  11.030   0.419  0.1559  0.1646 -0.0964
28393W        W43862   1.641  12.551   0.035 -0.0042  0.4221 -0.0999
28394W        W43863   1.891   6.413  13.994 -0.2420  0.0391 -0.3818
28395W        W43864   3.649  15.225  14.334  0.0727 -0.2566  0.2165
28396W        W43865   1.133   5.548   2.586  0.1080  0.3857 -0.0839
28397W        W43866   2.614  11.812  10.826 -0.3033 -0.3662  0.2099
28398W        W43867  11.098   4.699   5.204  0.1262  0.1211  0.2293
28399W        W43868   0.716   4.586   2.407 -0.4467 -0.1792 -0.1375
28400W        W43869  14.253   9.041  10.921  0.2719  0.2810  0.0658
28401W        W43870   2.972  16.181   2.742  0.1575  0.2650  0.2133
28402W        W43871   5.821  17.240   3.445 -0.0711  0.3356 -0.0978
28403W        W43872  13.921   9.699  12.121  0.1112  0.1015  0.1302
28404W        W43873  15.030   6.041  14.111  0.2588  0.0220 -0.4073
28405W        W43874   4.209   5.152   4.279 -0.1147  0.0993  0.2363
28406W        W43875   1.326   6.195   3.823 -0.0590  0.1916 -0.1685
28407W        W43876   8.013   0.223   3.440  0.0974  0.1339 -0.0094
28408W        W43877   3.349   9.497   0.806  0.0643 -0.1469  0.2674
28409W        W43878  11.434  17.072   2.605 -0.0174 -0.1017 -0.3058
28410W        W43879  10.132   9.138   3.002  0.1173  0.2179  0.3145
28411W        W43880  14.668  15.695   0.469 -0.3268  0.0515 -0.1669
28412W        W43881  10.367   9.273   1.352 -0.1438  0.1145  0.0086
28413W        W43882  15.160  14.647   3.800  0.0635 -0.3263 -0.2535
28414W        W43883   3.873   0.245  11.528  0.1321  0.0216 -0.1048
28415W        W43884  17.633   1.066  15.127 -0.1718  0.0687 -0.1125
28416W        W43885   2.179   2.872   3.435  0.3006 -0.1417  0.0192
28417W        W43886   2.641   7.236  13.801 -0.3193 -0.1846 -0.1443
28418W        W43887  18.531  11.710   3.669 -0.1721 -0.2985 -0.3469
28419W        W43888   4.136  18.536  14.435 -0.1272  0.0799  0.0512
28420W        W43889   8.557  16.591  15.592 -0.0625  0.2011 -0.0360
28421W        W43890  10.536  12.115   4.340 -0.1245  0.1226 -0.0969
28422W        W43891  14.196  18.607   0.863  0.1561 -0.0784  0.1802
28423W        W43892  16.815  10.080   5.444  0.1886 -0.1385  0.1649
28424W        W43893   3.546  12.515   1.367  0.0397  0.0010  0.2397
28425W        W43894   3.781   3.864   2.623  0.1346  0.1350 -0.0204
28426W        W43895  16.957  17.176  14.208 -0.2093 -0.0960 -0.0655
28427W        W43896   4.627   2.321  15.066  0.2563  0.3156 -0.3283
28428W        W43897   5.724  17.551  15.376 -0.1256  0.0891  0.1183
28429W        W43898  13.567  18.519  12.745  0.0444  0.0082  0.0179
28430W        W43899   9.483   5.071  11.358  0.0322 -0.2362 -0.1416
28431W        W43900  14.961   2.468   2.617 -0.2122  0.0745 -0.0439
28432W        W43901   9.867  18.016   2.318 -0.1527  0.1691  0.1356
28433W        W43902  11.547   0.384   4.372 -0.2473  0.1078 -0.0607
28434W        W43903   6.879   9.300  13.817  0.1401 -0.0553  0.0848
28435W        W43904   3.768  11.845  15.676 -0.1912 -0.1929 -0.0497
28436W        W43905   0.223   5.538  11.355  0.0328  0.0528  0.3672
28437W        W43906  13.841  16.238   4.431  0.4912  0.2006  0.1936
28438W        W43907   3.087   6.713   9.880 -0.1559 -0.3105 -0.0312
28439W        W43908  17.526  15.761   3.773  0.0304 -0.2050  0.0230
28440W        W43909   5.507   3.196  15.104 -0.0728  0.1681  0.1097
28441W        W43910  16.308   7.588   4.911 -0.0877  0.4551  0.0152
28442W        W43911  18.539   7.250   1.046 -0.1775  0.2572 -0.1099
28443W        W43912  16.011   9.790  15.005  0.0818 -0.2618 -0.1409
28444W        W43913  11.390   9.391   5.937 -0.2579  0.1803  0.4688
28445W        W43914   0.930  11.814  15.116 -0.2797 -0.0409  0.0034
28446W        W43915  10.123  12.172  15.015 -0.0581  0.1973 -0.0943
28447W        W43916   6.625   4.397   1.172  0.4328  0.0784  0.0476
28448W        W43917   6.232   7.237   0.922  0.3134 -0.3452 -0.0155
28449W        W43918   0.434  17.102   0.793  0.0284 -0.0066 -0.0545
28450W        W43919  17.693   0.945  13.919 -0.0088 -0.0496 -0.0074
28451W        W43920  16.567   4.734  14.535 -0.0982  0.0987 -0.0020
28452W        W43921   5.272  14.137  15.534  0.0948  0.0789 -0.4135
28453W        W43922   4.473  13.278   4.219  0.0518  0.2987  0.0221
28454W        W43923   6.206   0.499  15.046 -0.1066  0.3034  0.1444
28455W        W43924  14.937   5.834   0.389 -0.3972  0.1781  0.1941
28456W        W43925  13.872  17.474   5.623 -0.3746  0.1831 -0.2990
28457W        W43926   0.698  10.836   1.341  0.0821 -0.1022  0.0502
28458W        W43927  10.729   3.052   0.254 -0.0574 -0.2331 -0.2618
28459W        W43928   1.963  14.231  14.598  0.0756 -0.0757  0.2173
28460W        W43929   9.444   2.552  11.513 -0.1499 -0.0309 -0.2604
28461W        W43930   2.275   1.402   5.363 -0.1990 -0.0003 -0.0742
28462W        W43931   4.499   0.875   3.724  0.2992 -0.0215  0.1231
28463W        W43932   1.291  16.271   4.247 -0.1332  0.1172 -0.0051
28464W        W43933   8.766  16.768   2.359 -0.1975  0.3547 -0.1210
28465W        W43934  11.386  11.170   5.566  0.1191  0.4775 -0.0238
28466W        W43935  12.738   0.505   2.941  0.2298 -0.1390  0.0766
28467W        W43936  12.177  18.380   0.682  0.2862 -0.1274  0.1642
28468W        W43937   6.771   2.147   0.536 -0.3124 -0.3919 -0.3456
28469W        W43938  11.772  15.989  10.126 -0.0862 -0.0348  0.1375
28470W        W43939  15.000   6.942   3.022 -0.2397 -0.3542  0.3215
28471W        W43940  16.054   3.065   4.393  0.1255 -0.1707  0.1666
28472W        W43941   6.052   6.429   5.928 -0.2858 -0.0945  0.0014
28473W        W43942   5.153   8.970  10.754 -0.0964 -0.0110 -0.0200
28474W        W43943   2.475  10.628  14.738 -0.3797  0.1548  0.1732
28475W        W43944   1.004  18.497   3.184 -0.1080 -0.1957  0.0012
28476W        W43945  10.840  15.602  15.404 -0.4524  0.2727  0.2463
28477W        W43946   6.509   5.565  11.854 -0.1371 -0.1231  0.0502
28478W        W43947   1.985  11.923   4.971  0.3565  0.1549  0.1245
28479W        W43948   3.515   4.943  13.827 -0.0391  0.1648 -0.1904
28480W        W43949  17.390   2.222  15.151 -0.0457  0.1539  0.1284
28481W        W43950   9.483   7.844  15.450  0.0053 -0.1399 -0.0491
28482W        W43951  14.660  10.693   9.854 -0.0325  0.1420 -0.1616
28483W        W43952   0.767   7.415  13.897  0.0259 -0.1316  0.0891
28484W        W43953  12.977  10.467   0.754 -0.0950  0.0203 -0.4410
28485W        W43954  11.692   8.097   0.665 -0.0419  0.1902 -0.1555
28486W        W43955  17.675  18.197   5.454  0.1852  0.3447  0.2505
28487W        W43956  12.655  16.249   5.465 -0.1522  0.2567 -0.1444
28488W        W43957   6.323  13.035   0.593 -0.3026 -0.0219 -0.2559
28489W        W43958  18.394   9.810  11.698 -0.1826 -0.1278 -0.0140
28490W        W43959   1.623   4.772   4.409  0.0470 -0.1188 -0.1601
28491W        W43960  13.445  14.004   2.241  0.4555  0.0289 -0.0044
28492W        W43961  14.596   7.043  12.182 -0.1454 -0.0154 -0.2458
28493W        W43962   4.716  14.269   0.750 -0.0020  0.1331 -0.0042
28494W        W43963  14.057   9.563   2.630 -0.0163  0.1212 -0.1193
28495W        W43964  11.529   1.637   4.952  0.1432  0.3222  0.1148
28496W        W43965   4.712   5.026  11.867  0.2332 -0.3101  0.4352
28497W        W43966   7.003  13.559  11.137 -0.0028  0.1736  0.0079
28498W        W43967   3.505  13.879   2.884  0.0655  0.2128  0.2102
28499W        W43968  17.559   6.820  10.093  0.0220 -0.0821 -0.0031
28500W        W43969   1.357  14.151  12.764  0.5790  0.1639  0.0774
28501W        W43970   6.084   0.401  15.552  0.0249 -0.0727 -0.0070
28502W        W43971  10.533   3.121   1.607  0.5474 -0.1335 -0.1878
28503W        W43972   0.316  13.720  12.218 -0.0468 -0.2106 -0.0663
28504W        W43973   9.791  15.558   0.195 -0.0611 -0.0009  0.0175
28505W        W43974   0.630   1.333   2.868  0.0622  0.0141 -0.1465
28506W        W43975   2.747   0.543   3.245  0.3544  0.0945 -0.0501
28507W        W43976   7.430   1.623  14.152  0.0601 -0.1012  0.1568
28508W        W43977   5.039   2.963  11.029 -0.3836 -0.0809 -0.0072
28509W        W43978   3.191   3.496  14.670  0.3098 -0.4463  0.1882
28510W        W43979   7.903   6.905   3.892 -0.2801 -0.1918  0.1541
28511W        W43980   7.059  13.142   2.342  0.0672 -0.2787  0.1011
28512W        W43981  12.776  14.545  12.867  0.2196 -0.1893 -0.1610
28513W        W43982  10.986  10.224  12.851 -0.0701  0.2055 -0.0608
28514W        W43983   7.500  10.424  11.592 -0.1907  0.1298 -0.0049
28515W        W43984   9.237   7.563   2.082 -0.3433  0.1140  0.2102
28516W        W43985  10.217   1.774   3.733  0.0780 -0.3610  0.3720
28517W        W43986  14.933   5.311   0.850  0.0386  0.2067 -0.3834
28518W        W43987  13.103   4.677   0.291  0.0382 -0.1436  0.1063
28519W        W43988   3.259  10.112  11.808 -0.0262 -0.1854  0.2928
28520W        W43989   6.478   9.553  10.681  0.2622 -0.1313 -0.0459
28521W        W43990   4.561   4.869   2.742 -0.1206 -0.3623 -0.2112
28522W        W43991   4.234  16.322  12.160 -0.2039  0.4017  0.0256
28523W        W43992   7.039  12.293  12.218 -0.0928 -0.2418 -0.2614
28524W        W43993   4.903   7.940   1.811  0.0226  0.2856 -0.0075
28525W        W43994   6.617   4.950   2.418  0.2458  0.1119 -0.0726
28526W        W43995  10.211   7.591  11.361 -0.0113  0.1203 -0.1398
28527W        W43996   5.966   8.607   0.024  0.0536  0.1658 -0.0530
28528W        W43997  15.216  14.978  14.746 -0.1175 -0.2575  0.2601
28529W        W43998   7.367   5.547   4.945 -0.2179  0.1988 -0.3561
28530W        W43999   5.369  13.429  14.634 -0.1093  0.1210 -0.0549
28531W        W44000  18.112   8.534  10.521 -0.1782  0.2066  0.2139
28532W        W44001  14.419   4.149   3.495  0.3190 -0.1633 -0.1872
28533W        W44002  14.351   6.010  10.844  0.2347 -0.4025 -0.3347
28534W        W44003  13.013   6.068  12.016 -0.1579 -0.0410  0.1677
28535W        W44004   9.075  12.918   2.414 -0.3522  0.2465 -0.2826
28536W        W44005   5.219  17.654   2.265 -0.0914 -0.1220 -0.1766
28537W        W44006  14.733   7.420  13.898  0.0722 -0.1117 -0.0779
28538W        W44007  17.750   1.122   3.277  0.0081  0.3782  0.3356
28539W        W44008   2.473   5.206  15.392  0.1081  0.1815 -0.1041
28540W        W44009   8.320   2.137   4.186  0.3191 -0.1490 -0.1337
28541W        W44010   5.893   9.654  13.686  0.0731 -0.0078  0.0847
28542W        W44011   1.069   4.615  11.420  0.2105  0.1345 -0.0169
28543W        W44012   6.251   5.155   3.402  0.0824  0.3142 -0.1795
28544W        W44013  14.443   9.482  14.140  0.1698  0.0517 -0.1193
28545W        W44014   3.736  15.968   2.841 -0.1057  0.0843 -0.0512
28546W        W44015  11.802  12.329   0.375 -0.2935  0.2083 -0.3166
28547W        W44016  16.205   4.508  11.115  0.0644  0.0223 -0.1496
28548W        W44017   9.232   0.852   3.327 -0.4837 -0.1218 -0.1144
28549W        W44018   1.487  11.150  13.346  0.0738 -0.0729  0.2126
28550W        W44019   1.127   0.663  11.158 -0.0087 -0.0860 -0.1934
28551W        W44020   7.102  10.642  10.445 -0.1500 -0.1260  0.1622
28552W        W44021   8.201   6.658   6.036 -0.3445  0.0877  0.2585
28553W        W44022   5.369  17.350   4.575  0.0188  0.1445 -0.1136
28554W        W44023   4.435  18.081   0.004 -0.0076 -0.2476  0.1440
28555W        W44024  18.063   5.580   5.121 -0.2530 -0.1704  0.2085
28556W        W44025  16.267   8.058  12.805  0.2881 -0.0403 -0.1083
28557W        W44026   2.602   7.643  11.625 -0.2230  0.1875  0.3530
28558W        W44027   6.937   6.350   4.386  0.0225  0.2325  0.2263
28559W        W44028   0.751   0.042   1.321  0.0265 -0.3465  0.0922
28560W        W44029   3.083  14.858   1.009  0.0362 -0.0757  0.1574
28561W        W44030   1.792   4.432  14.281 -0.0930 -0.0454 -0.0302
28562W        W44031  13.678   7.607   2.733 -0.0621  0.1282 -0.1827
28563W        W44032   5.047  16.354   0.349  0.0643 -0.1436  0.0490
28564W        W44033   5.330  17.841   0.399  0.0174 -0.1885 -0.1094
28565W        W44034  18.343  12.358  10.231  0.2920 -0.0406 -0.1376
28566W        W44035   9.850  10.353  11.073 -0.1713 -0.0677  0.4343
28567W        W44036   9.691  13.084  12.123 -0.0062  0.1553 -0.0802
28568W        W44037  17.243  15.403  13.483 -0.3740  0.2995 -0.0041
28569W        W44038  16.482   5.249   3.559 -0.0502 -0.0060  0.2194
28570W        W44039  16.829  12.547   3.346 -0.3425  0.3173 -0.1552
28571W        W44040   6.133   2.881   0.985  0.0248  0.0921 -0.6416
28572W        W44041   5.576  18.302   3.641  0.3698 -0.2388  0.0117
28573W        W44042   6.956   0.731  11.326  0.1773  0.0880 -0.1777
28574W        W44043   2.384  13.665  11.554  0.1100  0.0250 -0.2323
28575W        W44044   5.822   0.630   1.290  0.2384 -0.0634 -0.0411
28576W        W44045   1.585   1.761  12.235  0.0029 -0.2342 -0.3234
28577W        W44046  14.803   4.027  12.614 -0.1005 -0.1998 -0.0863
28578W        W44047   2.903  14.931  14.505  0.1249 -0.1381 -0.0664
28579W        W44048   7.290   3.495  14.688  0.0868 -0.0290 -0.1312
28580W        W44049  15.037   2.730   0.169 -0.0040  0.0359  0.1230
28581W        W44050  16.007  11.346   3.520  0.1489 -0.2204  0.1259
28582W        W44051   3.925  13.422   2.204 -0.1715 -0.0949  0.2715
28583W        W44052   8.220   2.985  14.783  0.0311 -0.0575  0.2147
28584W        W44053   4.484   3.438   3.382 -0.2000 -0.1063  0.0449
28585W        W44054   9.076  15.404  14.300  0.1919  0.4223 -0.2247
28586W        W44055  16.559  17.688  11.965  0.3950  0.0915 -0.1248
28587W        W44056  17.472   3.131  12.670 -0.2002 -0.0717  0.1056
28588W        W44057   9.156   8.428  12.457 -0.1875 -0.0903  0.0393
28589W        W44058  11.798   3.951  11.205 -0.2128 -0.1996 -0.0459
28590W        W44059   2.807  13.248   4.750  0.2128  0.3725  0.0846
28591W        W44060   0.000   3.817  12.142 -0.2172 -0.1178  0.3248
28592W        W44061  15.559   1.539   0.780 -0.2585  0.0617 -0.4239
28593W        W44062  16.387   8.642  13.407  0.3069  0.3182 -0.4955
28594W        W44063  13.837  18.090   3.141 -0.1521 -0.0464 -0.4796
28595W        W44064   4.010  11.372  15.586 -0.1992 -0.3607 -0.3001
28596W        W44065   5.382   1.611   0.227 -0.1907 -0.1210 -0.2952
28597W        W44066  11.651   7.681  13.531 -0.2476 -0.0281  0.1696
28598W        W44067  16.949  11.000   0.307 -0.1071  0.0163  0.0193
28599W        W44068  18.187   7.302   4.863 -0.0172  0.1239  0.1023
28600W        W44069   0.184   8.216  13.153  0.2262  0.1490  0.0098
28601W        W44070   5.793   5.694   0.332 -0.1516 -0.1388 -0.2923
28602W        W44071   4.130   0.275   1.930  0.0398  0.0047  0.0662
28603W        W44072  15.623   7.313  14.776 -0.2546  0.0452 -0.2585
28604W        W44073  12.764   8.069   3.362  0.0132 -0.0023 -0.1361
28605W        W44074  11.297  10.791   3.452  0.0230  0.1552  0.2699
28606W        W44075  17.162   7.248  15.758 -0.1260 -0.0865 -0.2411
28607W        W44076   4.979   1.019   2.873  0.1385 -0.0909  0.2765
28608W        W44077   5.308   1.123   3.657  0.0625  0.3251  0.1257
28609W        W44078  16.707   5.583   4.274 -0.0385  0.1775  0.0675
28610W        W44079   5.996   5.936  14.719 -0.2128  0.2738 -0.1092
28611W        W44080   6.449   8.969  14.765  0.0508  0.1977 -0.0869
28612W        W44081   1.726  13.194  12.533  0.2891 -0.0598  0.1436
28613W        W44082  17.628  16.902   3.703  0.0544 -0.2527  0.1256
28614W        W44083  13.690  13.080   0.148  0.2317  0.1899  0.0782
28615W        W44084   1.032   5.551  11.955 -0.0706  0.0577  0.4467
28616W        W44085   4.337   4.259   1.897  0.4202 -0.0770  0.0213
28617W        W44086  13.703  11.630   4.410 -0.1566  0.0704  0.1945
28618W        W44087  16.693  14.706  13.970  0.2265 -0.0954  0.0088
28619W        W44088   5.468   8.611   2.874  0.1313 -0.0606  0.1857
28620W        W44089   6.873  18.001  10.173  0.2592 -0.1049 -0.0000
28621W        W44090   9.156   1.920  13.619  0.0312  0.1068 -0.1994
28622W        W44091   7.903   7.826   4.005  0.1503 -0.0624 -0.1028
28623W        W44092   4.209   8.073   0.763  0.0803 -0.0337 -0.1111
28624W        W44093   5.306   4.255  14.840  0.2627 -0.2335  0.0321
28625W        W44094  17.212  15.156   3.169 -0.0837 -0.2315 -0.0532
28626W        W44095   8.008   6.564  12.343 -0.0633 -0.0148  0.0646
28627W        W44096   3.974  14.347  13.115  0.1685  0.1923  0.0635
28628W        W44097   4.264  14.718   1.388 -0.2374 -0.0746 -0.0668
28629W        W44098  17.731  13.330   4.513 -0.2867 -0.1029 -0.1436
28630W        W44099  16.858   1.328  13.316  0.0299  0.2855 -0.2182
28631W        W44100   1.040  12.574   0.058  0.2192 -0.0138  0.2335
28632W        W44101  16.136  10.915  12.805  0.0852  0.1405  0.0493
28633W        W44102   5.759  16.409   4.059  0.0789  0.3556 -0.1863
28634W        W44103   3.621  11.222   3.766  0.0665 -0.2012 -0.1813
28635W        W44104   3.571  15.852   1.945  0.1740  0.2238  0.1302
28636W        W44105  17.947   5.483  10.362 -0.1188 -0.2629 -0.0665
28637W        W44106   6.096   0.341  12.587  0.3241 -0.0569 -0.0727
28638W        W44107  16.691   0.812  13.412  0.1979  0.1547  0.0408
28639W        W44108   5.867   5.588  12.559 -0.2287  0.0275 -0.0007
28640W        W44109   8.873  16.737   4.044 -0.1031  0.2525 -0.0798
28641W        W44110  11.106   9.772   6.061  0.1882 -0.1156  0.1210
28642W        W44111   3.604   3.673   1.343  0.2063  0.0765 -0.0369
28643W        W44112  14.730  15.835  11.727 -0.0590 -0.0300 -0.1115
28644W        W44113   7.426   6.068  14.003  0.0134 -0.3238 -0.0134
28645W        W44114  17.250   7.728   0.733  0.3973 -0.0198 -0.1319
28646W        W44115   5.716  11.694   4.013 -0.0468  0.0039 -0.2874
28647W        W44116   9.494   8.355  15.407 -0.0165  0.0230  0.2727
28648W        W44117  14.296   5.807  11.309  0.1541 -0.0659 -0.1561
28649W        W44118   0.957  12.269   4.099 -0.1271 -0.1386  0.4026
28650W        W44119   6.948   7.067   0.416  0.1190  0.0643 -0.0070
28651W        W44120   0.098   9.093   3.545  0.1764  0.1545 -0.0608
28652W        W44121   2.576   5.219  13.759 -0.2353  0.2388  0.1405
28653W        W44122  18.031  11.608   3.015 -0.3839  0.2005  0.0697
28654W        W44123  17.485   7.666   2.137 -0.1231  0.0031  0.0295
28655W        W44124   6.508   7.066   2.750  0.0815  0.0883 -0.0077
28656W        W44125  13.462   1.792  14.043 -0.1182  0.1059  0.2665
28657W        W44126  15.730  13.067  10.910  0.1201 -0.1367 -0.0526
28658W        W44127   8.439   0.956  10.245 -0.0425  0.2347  0.3018
28659W        W44128  10.549   3.471   0.612  0.0713  0.2530 -0.2015
28660W        W44129  11.970   6.502   1.040  0.1682 -0.1583 -0.0788
28661W        W44130  11.212   7.882  15.416 -0.2114 -0.2085 -0.0103
28662W        W44131  11.798  15.337  12.684  0.1962  0.0913 -0.0344
28663W        W44132   2.443   9.202   1.978  0.0771 -0.2290 -0.0778
28664W        W44133   4.563   7.147  11.806 -0.0019 -0.0472 -0.1390
28665W        W44134   7.536   7.037  15.595 -0.1686 -0.0719 -0.2163
28666W        W44135  13.875  16.215  12.265  0.2125  0.0235 -0.0018
28667W        W44136  12.534   6.550   0.877 -0.1030 -0.1937  0.2267
28668W        W44137  13.710  10.192   1.727 -0.0361  0.2674  0.1571
28669W        W44138   7.331   6.412  10.000 -0.1297  0.2001 -0.0272
28670W        W44139  10.732   8.768   4.865 -0.0630 -0.2393 -0.2074
28671W        W44140   0.683   3.358  13.801  0.1265 -0.4216  0.0440
28672W        W44141   6.345  15.070  14.738  0.2196  0.0545 -0.2389
28673W        W44142   5.954  16.689   4.596 -0.1712 -0.1852 -0.2663
28674W        W44143   3.835  12.817   0.060 -0.0407  0.0869 -0.0489
28675W        W44144   3.029   6.029  11.075 -0.3942  0.1187  0.0084
28676W        W44145  10.934   8.592  14.982 -0.0028  0.1083 -0.1534
28677W        W44146   4.640  17.014  14.568 -0.0310  0.0990 -0.1396
28678W        W44147   5.569  13.961  13.590  0.1810 -0.0601  0.0469
28679W        W44148   5.577   9.181   1.615 -0.0324  0.0845  0.4356
28680W        W44149  15.554  16.094  13.815 -0.2412 -0.1127  0.0580
28681W        W44150  12.342   9.415  13.915 -0.5024  0.0503  0.0343
28682W        W44151   7.867  14.472  11.639  0.0277  0.2683  0.3455
28683W        W44152  12.330  16.703   3.962 -0.1385  0.1382  0.0173
28684W        W44153   5.397  12.681   0.152 -0.1440 -0.1035 -0.2240
28685W        W44154  11.019   2.563   1.047  0.1114 -0.0221  0.1602
28686W        W44155  13.442   0.761  14.452  0.1424  0.0500 -0.2724
28687W        W44156   5.651  16.266  14.347  0.3471 -0.2457  0.3828
28688W        W44157  16.067   8.682  12.058 -0.1779  0.0336 -0.0719
28689W        W44158  11.654   3.940  14.309  0.0890 -0.0024 -0.4216
28690W        W44159   5.039   8.204   4.904  0.2974  0.0935  0.3099
28691W        W44160  16.040  16.063  13.661  0.0981 -0.3516 -0.3122
28692W        W44161  14.786   1.181   4.753 -0.0847 -0.0327  0.1890
28693W        W44162  15.976   4.634  13.952  0.0613 -0.2492 -0.0197
28694W        W44163  15.968  15.604  14.502 -0.0640  0.2931  0.0005
28695W        W44164   9.380   0.787   1.429 -0.1166 -0.0911 -0.0117
28696W        W44165  17.236   4.421  13.238  0.1185  0.0128 -0.2707
28697W        W44166   1.780  17.467  13.514  0.2148  0.1394 -0.3780
28698W        W44167   9.459   7.033  14.593 -0.1719 -0.1978  0.2271
28699W        W44168   1.735   2.424   0.323 -0.0723  0.3328  0.1235
28700W        W44169   3.764  11.605   1.259 -0.0024  0.2366  0.0535
28701W        W44170   2.419   0.838   2.362  0.1018  0.0840 -0.2592
28702W        W44171   4.910   8.415  15.307  0.0789 -0.0349  0.0178
28703W        W44172   8.982  14.529  11.566  0.0006 -0.1390 -0.1163
28704W        W44173   1.941  17.069   1.745 -0.3953 -0.2282 -0.1502
28705W        W44174  10.354   4.887  10.961 -0.0655 -0.1180 -0.1262
28706W        W44175  12.123  14.010   3.656 -0.0264  0.4063  0.1444
28707W        W44176  13.074   7.892   0.580 -0.1254  0.0571  0.0808
28708W        W44177   4.887   7.942   3.496 -0.0254  0.1414 -0.2703
28709W        W44178   5.097  14.559   1.035 -0.0458  0.0637  0.2962
28710W        W44179   1.337  15.399  10.667 -0.1896 -0.0693 -0.0621
28711W        W44180  17.453   7.883  13.488  0.0827 -0.1523 -0.3074
28712W        W44181   3.071   4.721   1.386  0.2105  0.1686 -0.3469
28713W        W44182   3.720   2.870   5.280  0.1383 -0.3875  0.0737
28714W        W44183   9.380   5.854  10.264 -0.2589 -0.0370  0.2650
28715W        W44184   0.195  17.430  14.434 -0.0066  0.1041  0.0524
28716W        W44185  11.785  18.310   3.273 -0.1774  0.1776 -0.2563
28717W        W44186  13.724  17.722   6.057  0.0911  0.1747  0.2379
28718W        W44187  12.278   6.919  14.795  0.1780 -0.3054  0.0063
28719W        W44188   5.919  11.269  12.880  0.0589 -0.4548 -0.4437
28720W        W44189  15.859   7.720  14.609 -0.1852 -0.0014 -0.1592
28721W        W44190   2.676   6.344  13.437  0.1207 -0.4329  0.1439
28722W        W44191   5.102   9.565  14.326 -0.1191  0.0979 -0.0357
28723W        W44192  16.655  17.792   5.333  0.1082  0.0259 -0.3133
28724W        W44193   6.156   9.827   4.993 -0.0555  0.0674  0.3031
28725W        W44194   9.035   0.963   1.098 -0.0887 -0.1308 -0.1505
28726W        W44195  16.920  12.311  11.968  0.0870 -0.1598 -0.0015
28727W        W44196  14.362  15.000  15.592 -0.2188 -0.0600 -0.2207
28728W        W44197  11.902   1.740   3.357  0.0824  0.1699  0.2378
28729W        W44198   6.149   8.659   1.026  0.1842  0.0205 -0.1101
28730W        W44199   3.018   7.373  13.377  0.3258  0.2696  0.1380
28731W        W44200   8.624   2.265   2.741  0.2091  0.1185  0.0039
28732W        W44201   5.375   7.087  11.848 -0.0350  0.0783  0.0770
28733W        W44202   4.095  10.870   3.067 -0.1098  0.1011  0.0897
28734W        W44203   6.918   5.581  11.519 -0.2129 -0.1630 -0.4373
28735W        W44204  14.373  12.735   1.049 -0.1519 -0.0926 -0.1564
28736W        W44205  18.141   7.706   3.591 -0.1001  0.2818 -0.1422
28737W        W44206   9.303  12.397   0.587  0.2054  0.2239  0.2137
28738W        W44207   1.477  15.948   5.208  0.2571  0.1676 -0.4390
28739W        W44208   1.370   6.955  10.496 -0.2092  0.0185  0.0149
28740W        W44209   0.254  17.238  13.925 -0.0251  0.3624 -0.2962
28741W        W44210   6.489  13.807   2.501  0.0055 -0.1377  0.1954
28742W        W44211   1.379   9.689  14.903  0.0278 -0.0259 -0.1075
28743W        W44212  18.552   6.845   2.025 -0.2204  0.1255  0.1444
28744W        W44213  17.289   1.552  13.107 -0.3715 -0.0903 -0.0507
28745W        W44214  12.272  11.050   2.707  0.0181  0.1866  0.3638
28746W        W44215   9.323  13.853  11.075 -0.0929 -0.1556  0.3516
28747W        W44216   7.964  13.635   0.118 -0.1002 -0.4570  0.0194
28748W        W44217  12.497  13.289  11.292 -0.1355  0.2707  0.0201
28749W        W44218   3.789  12.840   2.888 -0.1718 -0.0880 -0.0559
28750W        W44219   1.094   5.878  10.545 -0.1676  0.0681 -0.0241
28751W        W44220  17.422   6.681   2.133  0.4009 -0.0223  0.1999
28752W        W44221   6.905  16.015  13.670 -0.2118 -0.1360  0.1563
28753W        W44222  12.737   1.380   1.899 -0.2108  0.0909  0.1207
28754W        W44223   0.893   9.484   0.536  0.1534 -0.0654 -0.3533
28755W        W44224  14.417   8.354  11.273 -0.3368  0.0675  0.0950
28756W        W44225   9.696  15.950  14.416  0.1088 -0.2745  0.0264
28757W        W44226   1.282   3.091  10.351  0.1000  0.0439  0.0942
28758W        W44227   5.402  14.289  13.225  0.2777 -0.0129  0.0324
28759W        W44228   7.748  14.456   3.997  0.0794  0.4363 -0.2881
28760W        W44229  13.179   4.135  15.617 -0.2314 -0.0021  0.2375
28761W        W44230  13.191  16.861  14.069  0.0333 -0.2231  0.2211
28762W        W44231  17.934  15.756   1.659  0.1530  0.2927 -0.1938
28763W        W44232   5.073  16.183   1.993  0.1340  0.1445 -0.3714
28764W        W44233   2.867   6.496  11.358  0.1958  0.4456 -0.2649
28765W        W44234   4.210   5.178   2.697  0.0549  0.0258  0.2998
28766W        W44235   1.358  12.239   0.830 -0.3013  0.0352  0.0302
28767W        W44236   9.248   0.018   5.315  0.5609 -0.0947  0.0914
28768W        W44237   5.614  16.316   1.098  0.0971 -0.2273  0.0614
28769W        W44238   1.591   1.469   0.271 -0.1822  0.3664 -0.0180
28770W        W44239  12.113   9.850  15.776  0.0297  0.0554 -0.1508
28771W        W44240  15.537   6.449   4.812  0.1048 -0.0079  0.0648
28772W        W44241  16.545   3.329   4.144 -0.0686  0.0507  0.3179
28773W        W44242  13.071   7.822   4.970 -0.2769 -0.0725  0.0213
28774W        W44243  16.213  16.468   2.232  0.3189 -0.1678 -0.3029
28775W        W44244  14.214  12.318   2.585  0.0422 -0.1036 -0.0174
28776W        W44245   7.792   4.233  14.735 -0.2497  0.0029  0.0682
28777W        W44246   4.519  14.589  12.720 -0.3421  0.1171 -0.0068
28778W        W44247   5.943  14.910   5.123  0.3575  0.1260 -0.1198
28779W        W44248  16.667   5.841  11.127 -0.2011 -0.0475  0.0209
28780W        W44249  17.771   6.052  14.013  0.0246 -0.1932 -0.3583
28781W        W44250  16.911  10.358  14.789 -0.1181 -0.2347 -0.1507
28782W        W44251  14.936  11.337   4.980  0.1929 -0.6131  0.0692
28783W        W44252  10.515  10.755   1.982 -0.0787 -0.3106  0.3254
28784W        W44253  17.562  12.915  12.075  0.1064  0.0234  0.0219
28785W        W44254  16.343   7.555   2.106  0.0489 -0.0852  0.0173
28786W        W44255   7.710   2.140   1.808 -0.1503 -0.0065 -0.0360
28787W        W44256  18.188  18.019  14.051 -0.1003  0.0620 -0.0161
28788W        W44257  17.467   7.833  15.379 -0.2582 -0.0228 -0.0908
28789W        W44258   0.387   0.079  13.827  0.2263  0.1929  0.0301
28790W        W44259  15.220  13.305  14.393 -0.0279  0.3323  0.0663
28791W        W44260   6.200  16.883   2.109 -0.0016 -0.0146 -0.1513
28792W        W44261  18.004   6.517   1.419 -0.0156 -0.1683 -0.0385
28793W        W44262   8.967  13.279   4.494  0.0707  0.1324 -0.1497
28794W        W44263  15.820  17.130  15.335  0.1434 -0.1439 -0.1160
28795W        W44264   8.547  15.390   3.531 -0.1361  0.1812 -0.0780
28796W        W44265   3.956  16.326   5.594 -0.0377  0.1661 -0.3259
28797W        W44266  11.778   6.170  14.896 -0.1192 -0.2416  0.0254
28798W        W44267  16.637   1.192  15.092 -0.1706 -0.0892 -0.2892
28799W        W44268   0.729  13.095   3.929  0.1526 -0.0824 -0.1632
28800W        W44269  17.152  15.309   1.295 -0.1030 -0.3854  0.0424
28801W        W44270   4.607   5.405   3.973 -0.4271 -0.0298  0.1563
28802W        W44271  11.050  12.128  15.185  0.1763 -0.5277 -0.3475
28803W        W44272   4.597   9.221   2.175  0.1013 -0.1004  0.2747
28804W        W44273  11.217   5.292  13.791  0.1026  0.0756  0.3329
28805W        W44274   4.257   3.714  13.571  0.0885  0.2853  0.1378
28806W        W44275  15.449  13.915   2.044 -0.0985  0.1585  0.2298
28807W        W44276  18.100  15.891   2.441  0.1149 -0.1376  0.1015
28808W        W44277  15.751   9.887   2.484  0.0139  0.0890  0.2750
28809W        W44278   1.546   5.729   2.817 -0.2098 -0.2837 -0.3613
28810W        W44279   6.347   9.807   2.608 -0.2114 -0.2264  0.0251
28811W        W44280   5.488  11.697  11.460  0.0241  0.0402 -0.2654
28812W        W44281   8.889   3.885   3.040 -0.1673 -0.0676  0.0096
28813W        W44282   5.147   8.506  12.531 -0.3601 -0.0382  0.0487
28814W        W44283   6.193   6.365  14.524 -0.0518  0.0739 -0.1888
28815W        W44284  15.651   0.692  12.461 -0.1979 -0.0268 -0.0332
28816W        W44285   5.457  16.333   3.097 -0.0009 -0.1905  0.0640
28817W        W44286  11.458  10.141  13.629  0.0518  0.1820 -0.1062
28818W        W44287  17.233  17.649   1.952 -0.0485  0.1631  0.0857
28819W        W44288   9.513  14.783  14.865 -0.4624  0.3267 -0.1880
28820W        W44289  14.461  11.288   3.072 -0.2396  0.1874  0.0769
28821W        W44290   8.174  18.036   5.914 -0.1565  0.7137  0.2247
28822W        W44291   0.954  12.138  10.913 -0.0729  0.2576  0.0928
28823W        W44292  17.184   7.893  10.728  0.0753  0.1311 -0.1840
28824W        W44293  12.283   1.450   5.111 -0.0942  0.1237  0.0031
28825W        W44294  11.761   5.190   2.760  0.2124 -0.0736 -0.0650
28826W        W44295   1.237   8.103   5.042 -0.1443 -0.2572  0.1490
28827W        W44296   8.049   1.208   5.125  0.2817 -0.0257  0.1642
28828W        W44297   6.066   7.798  13.784 -0.0781 -0.4518  0.1814
28829W        W44298  16.707   6.304  10.799  0.5821  0.2902  0.0731
28830W        W44299   6.737   9.431  14.870 -0.6160 -0.1106 -0.1528
28831W        W44300   3.058   7.631   0.807 -0.1438  0.3874  0.1728
28832W        W44301   3.212   7.010  11.240 -0.1277  0.0562 -0.1743
28833W        W44302  13.562  14.832   1.861  0.0599  0.0052  0.0258
28834W        W44303   6.598   1.181  11.323  0.2382  0.0560  0.0980
28835W        W44304   0.446   4.330  14.044  0.4884 -0.1011 -0.1240
28836W        W44305   9.014  14.978  12.444  0.0662 -0.0377 -0.0436
28837W        W44306   4.754   9.765  15.477 -0.0017 -0.0858 -0.0898
28838W        W44307   6.784  12.153  13.664 -0.3160 -0.0008  0.2376
28839W        W44308   3.837   0.048  13.049  0.0764  0.3153  0.2193
28840W        W44309  14.548   5.798   1.444 -0.3994 -0.2393 -0.2133
28841W        W44310  12.936   4.014  14.340 -0.0710 -0.1058 -0.4161
28842W        W44311  13.278  10.494   1.865  0.0471  0.1059  0.2784
28843W        W44312  13.663  14.250  13.401 -0.0370 -0.0100 -0.1811
28844W        W44313   4.990   9.596   0.416 -0.2253 -0.0277  0.0637
28845W        W44314  17.104   4.016   1.821  0.1966 -0.3560  0.1450
28846W        W44315  15.773  10.883  11.465  0.0773  0.2052 -0.3637
28847W        W44316   5.208  18.580  12.792  0.0260  0.0576  0.2239
28848W        W44317   1.646   0.154  15.699  0.1277 -0.0736  0.0289
28849W        W44318   4.219   9.139  15.015 -0.1538  0.0037  0.0377
28850W        W44319   3.710   5.317  14.303  0.0935 -0.1010 -0.0382
28851W        W44320   9.544  18.110   4.457  0.0170 -0.0007 -0.1886
28852W        W44321   9.687   4.742   4.795 -0.0853  0.2149  0.2204
28853W        W44322  13.645  11.204   1.181 -0.3126  0.2101 -0.0589
28854W        W44323   7.066   5.805   0.303  0.0094 -0.1497 -0.3651
28855W        W44324  16.272  18.237  10.951  0.0190 -0.4286 -0.0422
28856W        W44325  15.024   1.801  14.086 -0.3502  0.0608  0.1618
28857W        W44326  15.098  14.577  11.911  0.0287  0.0782 -0.1889
28858W        W44327  16.815  14.843  12.127  0.1001 -0.2112  0.1845
28859W        W44328   8.916   3.051   4.585 -0.0087  0.0029  0.0710
28860W        W44329   2.895  15.817   3.165 -0.0203 -0.3112  0.1111
28861W        W44330   3.088   5.315   0.392  0.2243  0.1854 -0.1775
28862W        W44331  14.278   5.350   1.540  0.2777  0.0450  0.1442
28863W        W44332  10.609  18.025   1.192  0.1324 -0.0007 -0.2425
28864W        W44333   3.237  17.828  13.904  0.0685 -0.1646  0.0435
28865W        W44334   4.977  15.376  12.282 -0.0703 -0.1199 -0.3879
28866W        W44335  12.575   5.591  14.516  0.0662 -0.2179  0.3131
28867W        W44336  15.449  10.622  15.240 -0.0909 -0.0770 -0.0916
28868W        W44337  14.805   5.056   2.040 -0.0710 -0.3402  0.1671
28869W        W44338  12.277   7.544  11.164  0.1313 -0.0502  0.0290
28870W        W44339   3.465  13.424   4.310 -0.0096  0.1747 -0.1948
28871W        W44340   3.058  17.734  11.662  0.0450 -0.0170  0.2150
28872W        W44341  16.821  12.972  14.444 -0.1639  0.2161 -0.3159
28873W        W44342   4.116   0.754   1.225  0.0367  0.0334 -0.0443
28874W        W44343  18.525   9.108  13.877  0.0801  0.1074 -0.0966
28875W        W44344  14.852   0.608   5.352  0.1739  0.1143  0.0797
28876W        W44345  10.736   9.958  11.096  0.1529 -0.1632  0.0387
28877W        W44346   0.456  10.339   4.079 -0.0098 -0.1214 -0.1776
28878W        W44347   0.896  18.388  14.361  0.0251 -0.3748 -0.2726
28879W        W44348   5.796   9.992   4.697  0.2725  0.2166  0.0195
28880W        W44349   2.154   1.231   2.883 -0.2364 -0.2918  0.1328
28881W        W44350  16.443  10.993  14.226 -0.1022  0.1172  0.0149
28882W        W44351   4.873   5.738  12.531 -0.2691  0.1440  0.4328
28883W        W44352   9.657   8.788   1.632 -0.2764 -0.0561 -0.3382
28884W        W44353   3.615   2.867  11.813  0.0883  0.0306 -0.0323
28885W        W44354   9.182   1.623   2.886 -0.1570  0.2246  0.1750
28886W        W44355  16.442   4.546   4.027 -0.0065 -0.0882  0.1783
28887W        W44356  10.659  13.398   0.435  0.0868  0.4052  0.3033
28888W        W44357   8.979  14.896  11.179 -0.3905 -0.1454  0.0324
28889W        W44358   7.576   4.226   4.945  0.0824 -0.0293  0.0051
28890W        W44359  16.127  16.885   1.754  0.0041 -0.0879  0.4311
28891W        W44360   7.009   2.458   0.885 -0.2326  0.3652 -0.0086
28892W        W44361  10.401  14.942   2.642  0.2539  0.2176  0.4729
28893W        W44362  10.883  18.427  12.381  0.0911  0.1449 -0.1836
28894W        W44363  12.831  13.735   1.398  0.1284  0.0894  0.1564
28895W        W44364  10.229  15.066  13.593  0.3592 -0.1551 -0.0620
28896W        W44365  13.587  13.177   2.853  0.2655 -0.0311  0.1533
28897W        W44366   2.349  13.800   3.661  0.0680  0.0647 -0.1816
28898W        W44367   4.610  17.435  14.212  0.0994  0.2010  0.1550
28899W        W44368   2.725  12.807  15.101  0.0013 -0.1411 -0.2590
28900W        W44369   5.445  14.278   5.599  0.4420 -0.0197 -0.1138
28901W        W44370   0.341  11.572   3.732  0.2714 -0.0319 -0.2771
28902W        W44371  11.809  15.469  11.180  0.1457  0.0776  0.2871
28903W        W44372   5.579  17.327  11.491 -0.0059  0.1170  0.0828
28904W        W44373  15.449  16.291  12.880  0.0196 -0.1772  0.1471
28905W        W44374  11.532  14.412   5.081  0.1219  0.1578 -0.3473
28906W        W44375  13.868  11.282  13.856 -0.0822  0.3471  0.0094
28907W        W44376  17.976  13.806   2.775 -0.2608 -0.0593  0.0523
28908W        W44377   5.026  13.595   5.381 -0.2229 -0.4863  0.0893
28909W        W44378   3.825   7.880  10.579 -0.0970 -0.0831  0.0635
28910W        W44379  10.000   4.826   1.442 -0.3181 -0.3740  0.0855
28911W        W44380  14.107  10.643   2.433 -0.1077  0.3222  0.3816
28912W        W44381  17.676  16.624   0.946 -0.0605  0.1751  0.0027
28913W        W44382   4.526  18.220   0.533 -0.2711 -0.0630  0.0640
28914W        W44383   9.893  12.123  12.802 -0.1386  0.1635 -0.2791
28915W        W44384  11.998   3.916  15.481 -0.1996 -0.3617 -0.2423
28916W        W44385   7.015   7.196  15.668  0.1976  0.0618  0.1252
28917W        W44386   7.767   3.064   4.909  0.3068  0.0702 -0.1421
28918W        W44387  13.626  17.008  12.393 -0.0781 -0.0753  0.0246
28919W        W44388   7.653   3.417  14.273  0.2754  0.1767 -0.0060
28920W        W44389  18.131   9.730  15.200 -0.2828 -0.1658 -0.1274
28921W        W44390   0.812   6.881  12.681 -0.0095  0.0044 -0.1674
28922W        W44391  15.299   9.631   1.014  0.0752 -0.2475  0.0878
28923W        W44392  15.552  14.362   5.442 -0.0347 -0.0987  0.0140
28924W        W44393   8.240   6.971   2.467 -0.0538 -0.1528 -0.1363
28925W        W44394   4.915   6.359  15.333 -0.2801 -0.1633  0.1403
28926W        W44395   9.431  11.488   0.784 -0.1109  0.0436 -0.0676
28927W        W44396  13.420   7.311  11.358  0.0890  0.2267  0.2653
28928W        W44397  15.920   2.312   0.225  0.0604  0.1401 -0.1795
28929W        W44398   0.669   0.169  14.212  0.3028  0.0245  0.3898
28930W        W44399   5.520   1.541   2.433 -0.2913  0.3456 -0.2268
28931W        W44400   1.078  16.232   0.614  0.1285 -0.1878 -0.6572
28932W        W44401   9.267   3.239  15.749 -0.0370  0.1705  0.2007
28933W        W44402  13.254   4.898  11.822  0.1413  0.1287 -0.2200
28934W        W44403   8.068  15.710   5.193  0.1095 -0.1386  0.0921
28935W        W44404   1.266   0.101  14.128  0.0352  0.1631  0.1948
28936W        W44405  16.724   0.966   5.010  0.1544  0.4428 -0.1469
28937W        W44406  13.449  12.036  14.572  0.1335 -0.1084  0.0115
28938W        W44407  13.427   2.913  12.790 -0.1379 -0.1200 -0.1811
28939W        W44408   0.427  17.893   0.944 -0.0041 -0.1718  0.0154
28940W        W44409  15.322  12.878   0.065 -0.1276 -0.0323  0.0806
28941W        W44410   1.570   7.400  13.759 -0.1535 -0.0505  0.2197
28942W        W44411   5.627   8.565   1.576 -0.0895 -0.1619  0.1530
28943W        W44412   8.259  15.430  15.009 -0.0191  0.4948  0.3164
28944W        W44413  12.190   9.527   4.406  0.2171 -0.0162 -0.0490
28945W        W44414   5.344   7.603  10.599  0.0041 -0.0323 -0.0354
28946W        W44415  12.092   8.544   2.067 -0.1575 -0.0215 -0.4904
28947W        W44416  17.552  13.149   2.329 -0.1557 -0.2470 -0.1380
28948W        W44417   6.452   6.523  15.563 -0.2396 -0.0938 -0.2579
28949W        W44418   9.727  13.896   4.321  0.0841 -0.1421  0.2633
28950W        W44419  16.142   4.491  10.331  0.1650  0.0095  0.1952
28951W        W44420  13.263   3.316  15.759  0.1144  0.0760  0.0385
28952W        W44421  10.385   2.549  14.002 -0.0166 -0.1050 -0.0005
28953W        W44422   4.386   6.111   5.373 -0.3011 -0.3447 -0.0999
28954W        W44423  14.153   1.923   2.712 -0.3983 -0.0013 -0.0159
28955W        W44424   0.998   2.502   0.786 -0.2837  0.2558  0.1816
28956W        W44425  12.194   7.031   0.022 -0.1485  0.1558 -0.1484
28957W        W44426   1.362   9.452  15.393 -0.0363  0.3023  0.0806
28958W        W44427   5.090   5.468   1.966 -0.2764  0.0477 -0.0700
28959W        W44428  16.884  14.910   1.923 -0.1558 -0.0105 -0.1366
28960W        W44429  11.334   7.096  12.233  0.0899  0.0941 -0.1612
28961W        W44430  14.100   8.233   5.124 -0.3191  0.0262 -0.0225
28962W        W44431  11.300   4.281  15.095  0.0014  0.2793  0.0580
28963W        W44432  10.562   6.911  15.156 -0.0035  0.0890 -0.1954
28964W        W44433   1.158   3.664  15.721 -0.2878 -0.0372  0.2060
28965W        W44434   6.831   8.619  10.429  0.0395 -0.2826 -0.0408
28966W        W44435   7.498   2.115  13.744 -0.0379 -0.1242 -0.2662
28967W        W44436   6.503  17.869   1.606  0.2379 -0.1884 -0.2484
28968W        W44437   0.967   2.667   2.767 -0.2089 -0.0260  0.0469
28969W        W44438   5.077   5.520   4.293 -0.1813  0.0627  0.0496
28970W        W44439  11.966   0.125   4.507  0.2124 -0.0712 -0.0328
28971W        W44440   6.731   4.268   5.131  0.1461  0.2218  0.2956
28972W        W44441   1.016  16.819   2.076  0.1158  0.1692  0.1251
28973W        W44442  16.643  17.008   5.009 -0.1600  0.3547 -0.0764
28974W        W44443   2.199   2.270  14.484  0.1307 -0.1178 -0.3093
28975W        W44444  14.619   9.356  10.749 -0.1463  0.1689  0.0552
28976W        W44445  16.750  10.932   1.620 -0.1224 -0.2031 -0.0841
28977W        W44446   0.243   8.186   0.963  0.2801 -0.0290  0.2804
28978W        W44447   6.710  17.742   4.504 -0.0442  0.0818 -0.3107
28979W        W44448   5.847  11.255   3.702 -0.0134 -0.0281  0.0452
28980W        W44449  16.309   3.978   0.291  0.2232  0.0105  0.1147
28981W        W44450  11.748  16.888  14.525 -0.2811 -0.1160 -0.0039
28982W        W44451   5.156   0.912   5.645  0.0043 -0.1987  0.1295
28983W        W44452   4.529   0.698  14.845 -0.0549  0.1538  0.0705
28984W        W44453   7.588  17.113   0.818 -0.2713  0.2582 -0.1343
28985W        W44454  11.636  11.766   1.005 -0.3437 -0.2476  0.0364
28986W        W44455   8.538   7.408  13.726 -0.0787  0.0169  0.2504
28987W        W44456  14.256  15.063   5.476  0.2145  0.1607 -0.0333
28988W        W44457  18.223  15.580   2.043 -0.0839 -0.0906 -0.0997
28989W        W44458  16.261   0.459   0.550 -0.1218  0.0722  0.0466
28990W        W44459   2.251   9.199   0.257  0.2144  0.0212 -0.2016
28991W        W44460   8.448  17.959   4.086  0.4017 -0.1067  0.0925
28992W        W44461   9.804   1.621  10.786 -0.0253  0.2325  0.2358
28993W        W44462   9.716   4.030   3.923  0.0089  0.1534 -0.0967
28994W        W44463   7.885   7.871  13.629 -0.1885 -0.0578  0.2469
28995W        W44464   6.738  18.381   0.225 -0.1740 -0.0206 -0.1622
28996W        W44465   4.594   0.843   0.552 -0.1357  0.0300 -0.0023
28997W        W44466   1.530  14.962  13.034 -0.2161  0.0619  0.0677
28998W        W44467  16.867   5.664  13.435 -0.2112 -0.2167 -0.2016
28999W        W44468   3.183  12.518  10.993  0.0474  0.2307  0.2228
29000W        W44469   0.625  11.781   4.330 -0.3324 -0.2146  0.1400
29001W        W44470  11.876   6.220  11.080  0.1230 -0.0486 -0.1911
29002W        W44471  17.540   8.709  12.331 -0.0086 -0.1485  0.1615
29003W        W44472   7.178   8.948  10.498  0.1507  0.0918 -0.3604
29004W        W44473   1.215   3.765  14.657  0.0527  0.2683 -0.1296
29005W        W44474  16.786   4.326  14.293 -0.4017 -0.0133 -0.0580
29006W        W44475   2.635   5.357  14.928  0.2882  0.0685 -0.1989
29007W        W44476   8.037   3.856   5.567 -0.2122  0.2853  0.0224
29008W        W44477   6.520   2.401  14.799  0.0860 -0.1387 -0.1850
29009W        W44478   5.286  11.840   4.763  0.0107  0.0663  0.1177
29010W        W44479   8.513   7.724   3.578 -0.2445 -0.0444  0.2612
29011W        W44480   6.649   0.951  15.004  0.0028 -0.0721 -0.2111
29012W        W44481  13.085  10.543   4.836  0.0103  0.3070 -0.5133
29013W        W44482   9.215   9.242  11.292 -0.3941  0.0039  0.1862
29014W        W44483   2.368   8.661   4.863 -0.2232  0.1189 -0.0178
29015W        W44484  16.689   2.204  12.543 -0.3239 -0.1434 -0.0820
29016W        W44485  17.109   2.333  15.581 -0.5097 -0.0612  0.0061
29017W        W44486  17.423  12.475  11.707 -0.0290  0.1089  0.1202
29018W        W44487   9.417   9.323  12.795 -0.0697  0.1373  0.0706
29019W        W44488   0.637   7.869   2.874 -0.2707 -0.1929  0.3734
29020W        W44489   7.679   2.396  10.313  0.1034  0.1103  0.1065
29021W        W44490   0.248   2.569   0.080  0.0656  0.2655  0.2836
29022W        W44491   4.649  15.996   0.051 -0.1502  0.1728  0.0421
29023W        W44492   0.673  17.230  11.666  0.3065 -0.1495  0.0195
29024W        W44493  12.196  17.695   0.162  0.3177  0.3395 -0.1071
29025W        W44494   3.923  12.442   4.489 -0.2684 -0.0764  0.1233
29026W        W44495   4.851  16.527   3.833 -0.1445 -0.0664 -0.2281
29027W        W44496  14.012   0.405  15.151  0.2857  0.0812  0.2583
29028W        W44497  15.999  13.022  10.425  0.2195  0.1724 -0.0679
29029W        W44498   7.865   0.487   2.974  0.2704  0.4098  0.0278
29030W        W44499  12.635  10.384  11.193 -0.3265 -0.0106  0.0778
29031W        W44500  11.966  11.195   2.115 -0.2281  0.0013 -0.1441
29032W        W44501   1.405   0.469   2.168  0.0668 -0.0714 -0.0621
29033W        W44502  14.349   2.286  11.754  0.0167  0.1538 -0.2460
29034W        W44503  11.592   3.673  11.660 -0.1425 -0.1621  0.3709
29035W        W44504  14.880  17.462  10.844 -0.2133  0.0754 -0.2058
29036W        W44505   4.492  10.182   4.301 -0.0527 -0.0629 -0.0472
29037W        W44506  14.388   6.307   1.376  0.1200  0.0414  0.1261
29038W        W44507   9.041  11.457  15.400 -0.1620  0.0820 -0.1685
29039W        W44508   5.663   5.541   4.864 -0.2746 -0.1802  0.1826
29040W        W44509   9.455  15.149  14.033  0.0272  0.0438 -0.1751
29041W        W44510   6.018   7.871  14.847  0.1473  0.1016  0.1422
29042W        W44511  17.159   5.672   4.708  0.0598  0.0513  0.1377
29043W        W44512   7.269   7.308   5.128 -0.0132 -0.1048  0.2722
29044W        W44513  15.799  12.494   0.712 -0.4412 -0.0146 -0.1356
29045W        W44514  14.733   8.286  15.057 -0.4161  0.3120  0.2096
29046W        W44515  14.125   2.867   0.125  0.1995 -0.0627 -0.1665
29047W        W44516   5.216  13.173   2.786 -0.1499 -0.2154  0.2552
29048W        W44517  10.729   8.518   5.616  0.1617 -0.0596  0.1159
29049W        W44518  16.411   7.334  12.779  0.0885  0.0176 -0.1768
29050W        W44519   6.121  12.867   1.517  0.0043  0.0359  0.1154
29051W        W44520  10.164   4.064  14.358 -0.2743 -0.2915 -0.0674
29052W        W44521  11.633   8.010   4.108 -0.1273  0.0533  0.1157
29053W        W44522  11.466  11.656   3.395 -0.0543 -0.1181  0.0840
29054W        W44523   2.411  15.569  15.743  0.1860  0.0031  0.1698
29055W        W44524   4.535   8.451  12.809  0.1012 -0.3151  0.1778
29056W        W44525  18.150   7.182   2.890  0.1757  0.0615  0.1132
29057W        W44526   3.326   7.790  14.771  0.0550 -0.0101 -0.1607
29058W        W44527   7.798  18.375  14.711  0.1489 -0.0532 -0.0283
29059W        W44528   3.441   2.501  13.247 -0.0774  0.3660 -0.1907
29060W        W44529   0.975  17.984   2.950  0.1621  0.0892 -0.0832
29061W        W44530  12.492  15.473   3.624  0.2175 -0.1811 -0.1706
29062W        W44531  17.809  15.074   5.500  0.0881 -0.0477 -0.0622
29063W        W44532   1.650   5.222  14.445  0.1493  0.0421 -0.0339
29064W        W44533  11.136   1.363   3.546 -0.3069  0.0618 -0.3188
29065W        W44534  11.781  12.663   3.495  0.1200 -0.1358  0.4433
29066W        W44535   3.613   3.233   4.934  0.2359  0.0629 -0.1379
29067W        W44536  16.390   2.044  11.793 -0.0930  0.0725  0.0220
29068W        W44537   7.994  17.314  13.811 -0.0881 -0.0611  0.0858
29069W        W44538   2.554  16.002   3.436  0.1201 -0.1165  0.0486
29070W        W44539  12.648   7.533   5.004 -0.1386 -0.1600  0.1717
29071W        W44540   9.966   1.563  14.774  0.1451  0.0614  0.2970
29072W        W44541  14.587  15.200  11.039  0.1184  0.2294 -0.1552
29073W        W44542   2.578   4.305  15.560 -0.0347 -0.1677  0.4612
29074W        W44543   0.145  15.223   4.428  0.1487  0.1272  0.2584
29075W        W44544  14.486  16.565  11.165  0.1408 -0.1001 -0.1736
29076W        W44545   6.405   9.305   4.181  0.1274 -0.0961 -0.1913
29077W        W44546   4.513   1.369  13.756  0.1127 -0.2422 -0.4024
29078W        W44547  15.952   0.480   4.720 -0.1286  0.1864  0.0438
29079W        W44548  13.926  10.244   0.928  0.3204 -0.1380  0.3838
29080W        W44549  12.908  10.166  10.877  0.1193 -0.0263  0.2373
29081W        W44550  11.620   7.233   5.856  0.3824  0.1146  0.0127
29082W        W44551  11.851  10.015  12.767  0.0476  0.0182 -0.3897
29083W        W44552  10.999  17.914  14.754  0.2082 -0.0548 -0.1400
29084W        W44553   5.281   0.820  12.624 -0.2629  0.1798  0.3753
29085W        W44554  13.852  13.947  14.736 -0.0279 -0.0498 -0.0356
29086W        W44555   5.344  18.166   2.091 -0.0068  0.0586 -0.0751
29087W        W44556   3.498  18.521  12.683  0.2808 -0.3161 -0.1964
29088W        W44557   9.623  15.341   1.619  0.3234  0.0021 -0.0699
29089W        W44558  16.818   8.616  10.895  0.1823  0.0670  0.1553
29090W        W44559  16.639  16.380   0.552  0.3410  0.1805  0.0416
29091W        W44560   5.710  11.663  10.619  0.1852  0.0843  0.0298
29092W        W44561  13.370   7.032   3.827  0.0936 -0.0515  0.1083
29093W        W44562   6.576  15.018  13.635  0.3617  0.2967  0.1010
29094W        W44563   0.644  17.931   3.767  0.1438  0.0536  0.1899
29095W        W44564   2.013  18.077  11.256  0.1796  0.0961 -0.3520
29096W        W44565   8.746  15.491   4.826  0.2886  0.2410 -0.0031
29097W        W44566   3.630   6.180  14.857 -0.1062  0.0207 -0.1899
29098W        W44567  18.465   1.569   3.632 -0.3231 -0.1870  0.0790
29099W        W44568  17.564  18.539  11.392  0.2782  0.0130  0.2759
29100W        W44569   4.323  17.899   0.842 -0.1741  0.0933  0.0912
29101W        W44570   6.757  17.611   1.141  0.0102 -0.0631 -0.1213
29102W        W44571  12.020   2.798   0.237  0.1670 -0.0576  0.0418
29103W        W44572  10.125   9.088   4.035  0.2350  0.0688  0.1758
29104W        W44573   5.356   9.927   3.810 -0.4540  0.1402 -0.0693
29105W        W44574   4.957  17.500   3.500 -0.3346  0.2028  0.0258
29106W        W44575  10.376  12.059  14.247  0.1523  0.1811 -0.1224
29107W        W44576   7.870   8.759   0.863 -0.1748 -0.0164 -0.0672
29108W        W44577  10.040  18.359  15.421  0.0767  0.0956 -0.0312
29109W        W44578  13.919   4.123  14.431  0.1951 -0.0625  0.0817
29110W        W44579  10.327   6.014  15.306  0.0636  0.1829 -0.0868
29111W        W44580  11.344  15.231  12.806 -0.0220 -0.1137  0.3222
29112W        W44581   3.361   7.932   2.444  0.0551  0.1307  0.1145
29113W        W44582   8.787  17.199   3.707  0.0410 -0.2641 -0.0735
29114W        W44583  17.417   6.361   2.602  0.0275  0.3377 -0.0514
29115W        W44584   9.607   1.548  15.143 -0.0668 -0.0306  0.3182
29116W        W44585  11.525   1.446   2.252 -0.2404 -0.0968  0.1834
29117W        W44586  15.953  12.543  10.609  0.0182 -0.2251 -0.1348
29118W        W44587   3.087   3.014  12.081  0.2297  0.2800  0.1252
29119W        W44588   8.038   7.849  15.635 -0.2960  0.2498 -0.3000
29120W        W44589   5.264  13.667  11.635 -0.0484 -0.0275 -0.0640
29121W        W44590   2.763  12.904   5.549  0.1694  0.1264 -0.1653
29122W        W44591   4.522  17.665  12.525  0.0559 -0.3299  0.0263
29123W        W44592  13.265   3.043  11.893  0.1646  0.3102  0.0118
29124W        W44593   1.612  14.457  14.938 -0.1955  0.0382 -0.0237
29125W        W44594   0.181  14.981  10.457  0.0665 -0.3725 -0.2212
29126W        W44595   9.057   0.821  14.369 -0.0189  0.1006  0.0225
29127W        W44596  15.362   3.121  13.565  0.0907 -0.1193  0.1260
29128W        W44597   0.740  11.239   4.293 -0.0705 -0.0295 -0.1017
29129W        W44598   9.902  12.883  11.064 -0.1478  0.0662 -0.0906
29130W        W44599   8.127   4.993   3.881  0.3124  0.1034  0.1045
29131W        W44600   7.258   8.870   3.580 -0.0645 -0.1056 -0.1971
29132W        W44601  15.269  16.538   4.325  0.0786  0.2055 -0.0877
29133W        W44602   2.514  12.924  13.993 -0.0051  0.1221 -0.0420
29134W        W44603  11.081  14.458   0.320 -0.2559  0.2345 -0.1118
29135W        W44604   4.148   6.843  13.127  0.2107 -0.1200 -0.1709
29136W        W44605   2.913  12.391  11.970 -0.1743 -0.0358 -0.0807
29137W        W44606   4.711   9.211  10.911  0.4920 -0.0774  0.1496
29138W        W44607   8.474  10.333   4.387  0.2533  0.1469 -0.2076
29139W        W44608  16.282  17.460   4.091  0.1970 -0.2397  0.0412
29140W        W44609   5.585   4.615  10.489  0.1580  0.0444 -0.4977
29141W        W44610   4.320  10.247  14.296  0.1341  0.1530  0.0292
29142W        W44611  16.156   5.609   3.134 -0.4534 -0.2670 -0.0570
29143W        W44612  15.199   1.845   4.234 -0.1386  0.0547 -0.1483
29144W        W44613   0.950   2.029  14.847 -0.1360  0.1083 -0.0625
29145W        W44614   7.751  13.075  13.655  0.0417 -0.1322 -0.2003
29146W        W44615  15.861  11.794   4.936 -0.0846  0.2341  0.1123
29147W        W44616  15.563  17.007  12.015 -0.1523  0.2577  0.0733
29148W        W44617   5.242  15.545  15.459 -0.0330 -0.0784  0.0408
29149W        W44618   3.285  18.237  11.468 -0.0481 -0.1478 -0.1950
29150W        W44619  13.654   8.360   3.261  0.1399  0.0039  0.3556
29151W        W44620  14.213   9.808  15.752 -0.2669  0.1287 -0.0953
29152W        W44621   4.024  10.094  13.441  0.1786 -0.1925 -0.3670
29153W        W44622  16.428   1.713  10.345 -0.5709 -0.2865  0.1095
29154W        W44623  15.713  12.840  13.966  0.1528  0.0173  0.0304
29155W        W44624  15.517  18.445   2.633  0.1157 -0.0488  0.1182
29156W        W44625  11.138  12.079  12.831  0.0011 -0.0079 -0.1329
29157W        W44626   9.265  14.306  15.125  0.0882  0.0181  0.3193
29158W        W44627  14.814  13.888   0.247 -0.2528 -0.0286 -0.1951
29159W        W44628  18.536   7.804  13.955  0.3377 -0.3388  0.0853
29160W        W44629   1.510   2.814   2.259 -0.0839  0.1997 -0.1279
29161W        W44630   3.667  14.228  13.483  0.2855  0.1435 -0.0493
29162W        W44631   5.495  10.096   1.575 -0.0238  0.0378  0.4111
29163W        W44632   5.486  13.175   0.986  0.0460 -0.1488 -0.1790
29164W        W44633  13.098  12.067  11.618  0.1696 -0.0087  0.2191
29165W        W44634   8.194  12.440  15.082 -0.2791  0.1205 -0.1214
29166W        W44635  14.369  12.781   2.782  0.1761  0.2345 -0.0452
29167W        W44636  12.653  14.798  13.755 -0.1647 -0.0790  0.3540
29168W        W44637  13.777  15.394  15.701  0.0680 -0.0585 -0.2121
29169W        W44638   7.780   6.562  12.828  0.1730 -0.1078 -0.1831
29170W        W44639   1.847  16.966   3.019 -0.0944 -0.0936 -0.2664
29171W        W44640  15.630   6.867   3.524 -0.1831  0.1576  0.4478
29172W        W44641  14.003  10.152  12.956  0.0242  0.1908  0.0987
29173W        W44642   0.352  15.654  15.488 -0.2806  0.2429 -0.0318
29174W        W44643  10.468   7.018  12.936 -0.1480 -0.0679 -0.1165
29175W        W44644  17.545   5.242  11.138  0.2846 -0.0966 -0.0255
29176W        W44645  15.696   8.080   1.901  0.2442 -0.1005 -0.3058
29177W        W44646  10.283   5.750   1.598  0.1222 -0.0169 -0.4273
29178W        W44647   9.650  13.387  15.012 -0.1297 -0.0057 -0.0026
29179W        W44648  11.015  16.585  15.139 -0.0850  0.1064 -0.0147
29180W        W44649   3.547   1.789  11.191  0.1225 -0.0433  0.3199
29181W        W44650   5.990   8.385  15.323 -0.1181 -0.0927 -0.1117
29182W        W44651   6.142  17.044   3.093  0.1234  0.0255 -0.3003
29183W        W44652  12.579   9.223   1.261  0.1415  0.2128 -0.0658
29184W        W44653   1.289   4.447  11.014  0.1398  0.1068  0.0936
29185W        W44654   7.306  15.789  10.600 -0.1878 -0.1418 -0.0968
29186W        W44655  10.798   3.370  12.677  0.1694  0.0499 -0.3638
29187W        W44656  13.829  14.719  15.244  0.3029 -0.3136 -0.0030
29188W        W44657   8.321  17.598   1.019  0.0879  0.0722  0.2167
29189W        W44658   2.535   5.928   1.932  0.2238 -0.0806  0.0286
29190W        W44659   4.180   6.150   3.739 -0.3187  0.6074 -0.0257
29191W        W44660   9.701  10.329   5.725 -0.0607  0.4356 -0.0706
29192W        W44661   1.992  10.747  14.651  0.0860  0.0578  0.3741
29193W        W44662  14.100   4.893  11.056  0.0640  0.2276 -0.1487
29194W        W44663  17.721  14.314   2.111  0.2528  0.1904  0.0236
29195W        W44664  10.691   4.857   3.800 -0.0802  0.2392 -0.1267
29196W        W44665   0.884  12.973  15.484  0.2606 -0.2072 -0.1286
29197W        W44666  11.256   5.748   1.089 -0.1445 -0.1411  0.2878
29198W        W44667   6.466  18.147  13.837 -0.0149  0.1138 -0.0406
29199W        W44668   1.002   8.113  12.741 -0.1661  0.2883 -0.0407
29200W        W44669   5.642  10.891   0.309 -0.0514  0.5519  0.1072
29201W        W44670   1.492  15.666  14.276 -0.1328  0.2416 -0.1653
29202W        W44671  11.588  15.730  12.470  0.1275  0.0453 -0.1533
29203W        W44672  17.983   0.044  11.034  0.0649 -0.0251  0.1415
29204W        W44673   1.541  12.158  15.129 -0.2375  0.1292  0.0268
29205W        W44674   0.221   3.021   2.736  0.0077  0.2982  0.2692
29206W        W44675   5.432  13.154   0.067  0.0427  0.1899  0.0304
29207W        W44676  12.738   6.069   0.753 -0.0455  0.0096  0.0440
29208W        W44677  15.758  15.167  10.979  0.4276 -0.3799  0.1119
29209W        W44678   5.097  11.604  15.434  0.4472 -0.1090 -0.0239
29210W        W44679  17.985   1.228   2.350 -0.1412  0.2798 -0.2084
29211W        W44680  10.858  18.386  14.055  0.3770 -0.0558  0.0866
29212W        W44681   7.631   4.471  12.407  0.0350  0.3577  0.0354
29213W        W44682  16.165  13.534  13.931 -0.2470 -0.3842 -0.0058
29214W        W44683   6.524  12.917   4.253  0.0451 -0.0114  0.1012
29215W        W44684   9.920   7.857   4.789 -0.2310  0.1189  0.0319
29216W        W44685  10.449   8.699  14.840  0.2445 -0.0134  0.2045
29217W        W44686   5.466  13.354  11.219  0.0201 -0.0051  0.3113
29218W        W44687  16.811   6.990   0.277 -0.1890  0.0024 -0.1457
29219W        W44688  17.811   7.994   3.416 -0.2772 -0.1717 -0.0048
29220W        W44689  15.468  11.568  12.862 -0.0969  0.1015 -0.0205
29221W        W44690   3.079  11.606  10.802 -0.0390 -0.1257 -0.1021
29222W        W44691  14.593   2.932   3.273  0.1562  0.0929 -0.2929
29223W        W44692  13.447  13.847   4.908 -0.2411 -0.0972 -0.0964
29224W        W44693   4.363  18.117  12.582  0.0972 -0.0078  0.1871
29225W        W44694   9.225  14.546   3.183 -0.0555  0.0400  0.0030
29226W        W44695   2.628  13.626   0.305 -0.2369 -0.0274 -0.0158
29227W        W44696  15.311  12.599   0.517  0.2135  0.0847  0.0746
29228W        W44697   5.825   2.997  13.046 -0.0774 -0.1780  0.5158
29229W        W44698  14.316  11.206  15.529 -0.4226 -0.3042 -0.3509
29230W        W44699   1.686  16.809   3.564  0.1296 -0.1423 -0.2115
29231W        W44700  11.710   9.936  13.226  0.2598  0.4130  0.2317
29232W        W44701  14.155  16.077  14.706 -0.2594 -0.1977  0.0420
29233W        W44702   5.837  14.914  14.603 -0.0236  0.3773  0.0181
29234W        W44703   0.518   9.913   0.414  0.2041  0.0927 -0.1204
29235W        W44704   7.597   3.059   3.877 -0.1155 -0.4806 -0.0251
29236W        W44705  16.452  10.136  15.602 -0.2165  0.1387  0.2735
29237W        W44706   6.982   6.904   2.750 -0.1126 -0.3028 -0.1426
29238W        W44707   4.174   7.475   3.551 -0.3128 -0.0144 -0.0575
29239W        W44708  17.296  12.808   3.258  0.0806 -0.0868  0.3535
29240W        W44709   9.949   1.804  11.279  0.4802 -0.2689 -0.0552
29241W        W44710  14.941  15.181   5.643 -0.0115 -0.0831 -0.1298
29242W        W44711  14.696  13.679  12.203  0.0460  0.0754 -0.0682
29243W        W44712   5.870   0.089   4.429 -0.1204  0.2756  0.0286
29244W        W44713  16.139   0.784   0.114  0.0692 -0.1536  0.0260
29245W        W44714  12.657  18.010   4.443  0.2750  0.2622 -0.3070
29246W        W44715  14.742   3.461  12.603 -0.1538 -0.1391 -0.3193
29247W        W44716   5.739   3.809   2.707  0.0240  0.0725 -0.0341
29248W        W44717   9.499  17.749   5.685  0.4525  0.1212 -0.1248
29249W        W44718   9.138   0.946   3.839 -0.1050 -0.0541  0.4186
29250W        W44719  11.386   3.369  14.100  0.1828  0.1601  0.1322
29251W        W44720  15.379  13.403   2.395 -0.2123  0.3075  0.1225
29252W        W44721  16.079  13.103   5.262 -0.3301  0.1593 -0.1503
29253W        W44722   4.704  14.876  15.015 -0.1951 -0.1779 -0.1420
29254W        W44723   0.353  18.410   4.930  0.1440  0.1493 -0.2176
29255W        W44724   4.430   1.560  11.053 -0.1744 -0.1353  0.1595
29256W        W44725  10.060   4.055   2.701  0.1455  0.1514  0.1005
29257W        W44726   2.657   1.397   5.738  0.1125  0.1311  0.1404
29258W        W44727  12.789   0.744   3.453  0.2481 -0.3215  0.1108
29259W        W44728   4.551   4.947  11.407 -0.0023  0.0657  0.2910
29260W        W44729   9.093   4.659  15.400 -0.0815 -0.3716  0.3549
29261W        W44730   4.126   3.973   0.865  0.1413  0.0002 -0.2122
29262W        W44731   6.041  15.840   0.808 -0.2600  0.2591 -0.3266
29263W        W44732  11.788  11.591   1.843 -0.0583 -0.2200 -0.2435
29264W        W44733  11.545  14.229   1.121  0.0471  0.1451  0.0596
29265W        W44734   3.508   1.289  11.492  0.0060  0.1119  0.2149
29266W        W44735  14.076  13.167   0.943  0.0662  0.1071 -0.1458
29267W        W44736   5.077   1.583   0.978 -0.1157 -0.3279 -0.0659
29268W        W44737   9.698   0.239  14.764  0.2420  0.2394  0.2363
29269W        W44738  16.274   6.803  15.293 -0.0838  0.1252  0.4323
29270W        W44739   3.282  10.989   0.827  0.0772 -0.1486 -0.1212
29271W        W44740   2.770  13.503  11.232  0.1023  0.0929  0.4534
29272W        W44741   3.267   4.131   1.890  0.0360  0.0725 -0.0279
29273W        W44742   0.349   7.363   1.872 -0.1463  0.1269 -0.1586
29274W        W44743  18.190   8.061   1.785 -0.4604  0.2317  0.3265
29275W        W44744  10.389   0.445   4.210  0.0977 -0.3361 -0.0339
29276W        W44745  13.188   0.446   3.080 -0.0871  0.0138 -0.0949
29277W        W44746  16.768  14.971  15.304 -0.1611  0.3091 -0.0522
29278W        W44747  16.105   6.312  11.476  0.1195  0.2068  0.1138
29279W        W44748   2.332  13.346   1.594  0.1736 -0.0277  0.1617
29280W        W44749  10.532   0.061   2.397  0.1518  0.1702  0.4787
29281W        W44750   7.687  12.373  14.103  0.3740 -0.2978 -0.0252
29282W        W44751  13.377   5.551  14.985  0.3316 -0.0735  0.0292
29283W        W44752  13.059   1.118   0.939 -0.2591 -0.0057  0.0996
29284W        W44753   5.345  13.345  10.556 -0.1566  0.1548 -0.0125
29285W        W44754   7.196  11.701   4.866 -0.0510 -0.1918  0.1549
29286W        W44755  14.457   3.042  12.259  0.2028  0.3644  0.1200
29287W        W44756   6.917   1.637   1.396  0.0308 -0.0328 -0.1761
29288W        W44757   1.941  15.046  14.709  0.2728  0.0981  0.0585
29289W        W44758   6.227  16.581  11.279  0.0438  0.0107  0.1268
29290W        W44759  16.572  12.783  11.895 -0.0636  0.0581  0.3021
29291W        W44760  14.512   7.951  13.789  0.0738  0.0744 -0.1752
29292W        W44761  15.029   5.832  11.803 -0.0306  0.1623 -0.3469
29293W        W44762   4.775  13.388  13.356 -0.1557 -0.0256  0.3145
29294W        W44763   5.286  15.133   3.696  0.0210 -0.0543 -0.0641
29295W        W44764   6.786   7.954  13.175  0.0852  0.2575  0.1267
29296W        W44765  16.558   9.369  15.734 -0.0764  0.0210 -0.2299
29297W        W44766   3.506   2.833   1.074 -0.1112  0.1923  0.1140
29298W        W44767   8.987   9.264   3.148  0.1805 -0.4235  0.1282
29299W        W44768   7.191  10.701   3.878 -0.1428 -0.1769  0.1427
29300W        W44769   9.781   4.165  11.001  0.1750  0.1611  0.1845
29301W        W44770   9.083   3.539   5.493  0.0445  0.1351 -0.1862
29302W        W44771   6.524  16.140  11.128 -0.3314 -0.1344  0.1744
29303W        W44772  17.505  17.209   1.616  0.1501  0.3086 -0.0723
29304W        W44773   7.645   5.655   2.927 -0.0470 -0.4457  0.1277
29305W        W44774   8.527  12.745  14.283  0.2766  0.1763  0.0458
29306W        W44775   8.685  10.362  13.247  0.3052 -0.1231  0.0428
29307W        W44776   9.458   0.965   5.945 -0.2173 -0.2089  0.2980
29308W        W44777   4.728  10.684  13.713  0.2013  0.4507  0.3548
29309W        W44778   1.811  11.670   1.368 -0.1167 -0.1147  0.3397
29310W        W44779   8.562   1.101  11.487  0.0109 -0.2004  0.5174
29311W        W44780   8.461  15.362   3.029 -0.0940  0.1816  0.1285
29312W        W44781  16.879   7.934  11.727  0.0743 -0.3043 -0.1660
29313W        W44782   5.820  14.080  10.113 -0.1020 -0.0330 -0.2513
29314W        W44783   1.844  16.706  11.001 -0.0098  0.1945 -0.1199
29315W        W44784   5.686   0.542   4.522 -0.0800 -0.1825 -0.1127
29316W        W44785   1.596   5.503  14.882 -0.2662 -0.1693 -0.0606
29317W        W44786  17.935  17.992   1.945 -0.0367 -0.3029  0.5232
29318W        W44787   0.888   0.557   2.873 -0.1135  0.1195  0.0507
29319W        W44788   6.258   4.307   3.247 -0.1119 -0.0735  0.0663
29320W        W44789   0.190   8.845   2.157  0.0787 -0.0565  0.0767
29321W        W44790  11.420   8.910   0.495 -0.3182  0.5214 -0.0746
29322W        W44791   5.783  10.986   4.754  0.1855  0.1812  0.0309
29323W        W44792  17.273   6.875  12.873 -0.2196  0.2004 -0.0503
29324W        W44793   2.431  14.202  11.219 -0.0626 -0.0214  0.0853
29325W        W44794  12.391   6.457   1.495  0.4978 -0.2696 -0.0201
29326W        W44795  12.653   2.137   1.025 -0.2258  0.0869  0.1157
29327W        W44796   5.583   4.821  14.073  0.1718  0.0529 -0.0768
29328W        W44797   8.412   9.523   2.911 -0.3067 -0.2600  0.2131
29329W        W44798   4.974   5.689  14.465 -0.3145 -0.2291  0.2485
29330W        W44799  11.260   3.749   4.645 -0.1834 -0.0093 -0.1547
29331W        W44800   6.174   4.532   5.160 -0.1844  0.1062 -0.1950
29332W        W44801   8.160   4.455  14.396 -0.0121 -0.2806  0.2136
29333W        W44802  17.823  15.984  14.966  0.1465  0.0212 -0.0694
29334W        W44803   2.940   4.887   2.251 -0.1273 -0.1925 -0.2054
29335W        W44804  14.895   6.382   0.306 -0.1468  0.1613  0.0782
29336W        W44805  10.176   9.924  13.084  0.0061 -0.0158  0.2351
29337W        W44806   4.655  15.561  11.922  0.1786 -0.0175  0.2986
29338W        W44807  11.235  15.651   0.089 -0.3835  0.1925 -0.2865
29339W        W44808   8.361  11.339  13.378  0.0957 -0.3084 -0.2343
29340W        W44809  14.424   5.215   3.769 -0.1248 -0.0249  0.0125
29341W        W44810  17.700   8.845  10.274  0.2415  0.1999 -0.3233
29342W        W44811  17.464   2.963   1.325 -0.1656  0.0322 -0.2245
29343W        W44812  15.801   3.385  14.997 -0.1388 -0.0198 -0.0359
29344W        W44813  16.337  11.085  15.055  0.0614  0.2557 -0.1005
29345W        W44814  13.040  11.786   4.440 -0.0966 -0.1222 -0.2887
29346W        W44815   3.869   5.043  11.499  0.1305 -0.0650 -0.1104
29347W        W44816   2.201   6.367   4.028  0.4209  0.0625  0.2883
29348W        W44817   7.326   0.241  11.961  0.0282  0.1115  0.2654
29349W        W44818   1.968   1.164   0.525 -0.2060  0.1895  0.2141
29350W        W44819  15.245   9.058   1.456 -0.0998 -0.4293 -0.1400
29351W        W44820  10.354  15.548   0.937 -0.0845  0.1122  0.3981
29352W        W44821   9.851  11.416   2.627 -0.1781  0.1121 -0.3506
29353W        W44822   7.656   7.951  12.656 -0.0758 -0.5874  0.0634
29354W        W44823   1.344   2.480  12.655  0.1026  0.1449 -0.0726
29355W        W44824   2.143  10.135  15.042 -0.0891 -0.0903  0.2652
29356W        W44825  11.877   6.368  10.593 -0.0335  0.0254 -0.3008
29357W        W44826  15.037   1.657   1.943  0.0604 -0.3251 -0.3512
29358W        W44827   8.159   5.661   2.812  0.2209 -0.0143 -0.1698
29359W        W44828   7.334  11.905  12.085 -0.0311 -0.1143  0.0429
29360W        W44829  15.022  16.577   6.053 -0.1225  0.0062 -0.1818
29361W        W44830  11.021   9.077  15.033  0.1612  0.1606  0.3107
29362W        W44831   1.232   4.187   0.038  0.0600 -0.1489 -0.2039
29363W        W44832  14.781   0.480  12.655 -0.2244  0.0054  0.1636
29364W        W44833   9.153   4.255   2.146  0.1236 -0.3347 -0.0872
29365W        W44834   6.820  18.613   4.921 -0.4620  0.2887 -0.2756
29366W        W44835  16.518  17.615  14.766 -0.3550 -0.4488  0.0076
29367W        W44836   2.928   3.137  14.376 -0.1287  0.1094  0.1685
29368W        W44837   9.059  17.548   3.383  0.1698 -0.0172 -0.1255
29369W        W44838   1.705   0.354  11.143  0.0845  0.1779  0.1933
29370W        W44839   7.743  16.197  14.139  0.5074  0.5152  0.2158
29371W        W44840   5.264  17.467  12.061  0.4669 -0.1151  0.1486
29372W        W44841  10.825  15.456   5.039  0.1335 -0.2347  0.0425
29373W        W44842   7.738  17.805  12.948 -0.0505 -0.3586  0.1329
29374W        W44843  17.260   6.227  14.655  0.0735  0.0495  0.1150
29375W        W44844   4.813   5.224  14.693  0.0565 -0.1698 -0.1242
29376W        W44845   8.960   3.074  13.263 -0.1637 -0.3639 -0.3190
29377W        W44846  11.037  10.904   2.062 -0.3437  0.2000 -0.1674
29378W        W44847  15.113   7.940  11.774  0.0537  0.1076 -0.0467
29379W        W44848  14.169   3.478   2.324  0.0756  0.1166  0.0460
29380W        W44849   7.363   4.244  15.465  0.0269  0.1035  0.0032
29381W        W44850  15.210   5.563  12.282  0.0415 -0.0122  0.3099
29382W        W44851  14.567  12.695  15.561  0.2932  0.0460 -0.2660
29383W        W44852   2.438   4.918   1.981 -0.0466 -0.4340  0.0222
29384W        W44853  15.120  16.458  15.067 -0.1127 -0.0782 -0.0391
29385W        W44854  10.638  10.929   3.285  0.0080 -0.1247 -0.0547
29386W        W44855  11.812   1.237  15.079  0.0055 -0.0014 -0.1107
29387W        W44856  16.423   0.066   3.535 -0.1168  0.1333  0.0733
29388W        W44857   8.285   8.912   4.274 -0.0930  0.2372 -0.1026
29389W        W44858  17.468   1.731   1.128 -0.2534 -0.0954 -0.0302
29390W        W44859   2.368   0.655  11.793 -0.1991  0.0461  0.1705
29391W        W44860   7.203  13.656   9.642  0.0265 -0.1650 -0.3907
29392W        W44861  14.165   4.277  11.521 -0.2367 -0.1150  0.1444
29393W        W44862   8.665  10.885  13.415 -0.3126 -0.1678  0.1249
29394W        W44863   9.000  11.185  12.448  0.0687 -0.1547 -0.2487
29395W        W44864   0.510   4.962   0.374  0.1620  0.0396 -0.4314
29396W        W44865  18.257  11.412  11.060  0.0568  0.1285 -0.0717
29397W        W44866  15.013   9.593   2.809 -0.1336  0.0377 -0.0738
29398W        W44867   6.132  13.785  11.360 -0.1284  0.1027 -0.2131
29399W        W44868  14.533   6.840   1.252 -0.0343  0.0732 -0.1511
29400W        W44869  10.042   8.300   0.776  0.0459  0.0568  0.2469
29401W        W44870   0.029   3.362   4.941  0.0849  0.1479  0.2189
29402W        W44871  12.666  11.070   1.447 -0.0221 -0.3698 -0.1341
29403W        W44872  13.302   3.473  14.868  0.2063 -0.0379 -0.6044
29404W        W44873  15.733   4.313   1.535  0.2398 -0.1528  0.1065
29405W        W44874   5.885  11.996  11.551 -0.0659 -0.1830 -0.1722
29406W        W44875   3.039  13.029  14.229 -0.0905  0.1622 -0.0081
29407W        W44876   2.370   9.709   2.185  0.0809  0.2958  0.1993
29408W        W44877   7.631  16.566  11.779 -0.0087 -0.0150 -0.2109
29409W        W44878  12.041  13.980  12.744 -0.1000  0.0735  0.0805
29410W        W44879  13.433   7.089  10.792  0.2214  0.1674  0.3128
29411W        W44880   7.075   3.540  12.194 -0.0157 -0.0042  0.0348
29412W        W44881  10.144   7.469   4.387  0.0314 -0.0740  0.1856
29413W        W44882   8.227   4.472   3.905 -0.0191  0.0424  0.1549
29414W        W44883  18.034  17.000  13.741  0.1302  0.2677  0.0304
29415W        W44884   3.892  15.202  14.810  0.0123  0.2610  0.0689
29416W        W44885   9.118   5.683  12.378  0.0224  0.1483  0.2281
29417W        W44886  15.675  18.496  11.017 -0.0669 -0.3637  0.1964
29418W        W44887   9.324   3.221  14.964  0.1567 -0.1412  0.1109
29419W        W44888  17.663  15.722  13.449 -0.1223 -0.1844  0.2253
29420W        W44889   4.172   4.780   0.476 -0.1297  0.0047  0.1660
29421W        W44890  11.051  17.112   0.402  0.0645 -0.3658 -0.0621
29422W        W44891   1.903   7.850  15.284  0.0776  0.2448 -0.1002
29423W        W44892  14.588   5.252  10.481 -0.2725 -0.2395 -0.0431
29424W        W44893  13.841  18.208   2.677 -0.3866  0.1155 -0.3491
29425W        W44894   2.433   4.046   4.285 -0.2489 -0.3720 -0.2491
29426W        W44895  14.110   6.844  12.306 -0.0772 -0.0578  0.1542
29427W        W44896   4.624   0.480   0.944 -0.1694  0.0964  0.0629
29428W        W44897  13.562   7.075  15.345 -0.2727 -0.0356  0.0149
29429W        W44898  16.616  15.503  11.918  0.0038 -0.3595  0.1006
29430W        W44899  10.230  11.815   5.219  0.2189  0.1451  0.2969
29431W        W44900   1.938   9.606  14.233  0.3053  0.0726  0.0379
29432W        W44901   0.446  16.276  10.909  0.0115 -0.1363  0.1225
29433W        W44902  10.449  17.219  12.752  0.3719  0.2252  0.2867
29434W        W44903  17.192   4.150  14.702 -0.2241 -0.0428 -0.0731
29435W        W44904   6.031   1.147  11.279 -0.2719  0.2974  0.2393
29436W        W44905  18.051  15.805  10.641  0.1646  0.0016 -0.0571
29437W        W44906  16.884  14.406   3.239 -0.1161 -0.2762 -0.5246
29438W        W44907   8.931   5.036  11.387 -0.3336 -0.2072  0.2583
29439W        W44908   2.972  12.925  11.263 -0.0936  0.4145 -0.0027
29440W        W44909  14.434  14.523   1.413  0.2152 -0.3595 -0.3453
29441W        W44910   9.140   3.705   3.912 -0.3238 -0.1408 -0.3659
29442W        W44911  15.517  10.895   2.449 -0.3959  0.2428  0.2215
29443W        W44912  15.776   9.090   3.117  0.1373  0.1357  0.1268
29444W        W44913  10.471   8.505  13.787 -0.2060  0.2273  0.0192
29445W        W44914  16.714   6.970   1.212 -0.2992 -0.0736 -0.1988
29446W        W44915   6.574  15.960  12.383  0.0006 -0.1753  0.0585
29447W        W44916  12.128  10.065  12.341  0.2417  0.2441  0.2594
29448W        W44917  13.529  18.097   1.053  0.0374 -0.4260 -0.2426
29449W        W44918  17.137  10.027   3.651 -0.0569  0.2207  0.0508
29450W        W44919  15.198  15.274  12.485  0.1604 -0.1675  0.2454
29451W        W44920  15.363   9.007   0.082 -0.0585 -0.0343  0.1458
29452W        W44921  13.756   1.246   4.813 -0.4080 -0.2714 -0.0526
29453W        W44922  15.959  17.098   3.937 -0.2169 -0.3165  0.0879
29454W        W44923   7.485   7.429   1.954 -0.0502  0.1365 -0.0081
29455W        W44924   3.306   5.588  14.533  0.1477  0.0011  0.1632
29456W        W44925  14.594   4.746  14.179  0.1199  0.0395  0.1355
29457W        W44926  16.939   2.058   3.274  0.0847 -0.2088 -0.5120
29458W        W44927  16.896   8.805  11.730  0.1653  0.0177  0.3753
29459W        W44928  17.363   1.495  11.632  0.3014 -0.1152  0.3284
29460W        W44929  18.011   4.226   5.242  0.0409 -0.0815 -0.1246
29461W        W44930  11.749   9.218  11.995 -0.1775  0.3454 -0.2136
29462W        W44931   7.964   6.166  13.190  0.0096  0.1753 -0.0963
29463W        W44932  15.744   3.025  10.250  0.1313  0.0689 -0.2269
29464W        W44933  11.244   3.001  14.893 -0.0751 -0.1331 -0.0011
29465W        W44934  12.698  13.796   1.988 -0.1130  0.0922  0.2593
29466W        W44935  10.070   0.944   0.165  0.0440  0.1285  0.1201
29467W        W44936   6.638   2.657  14.040  0.1150  0.3132 -0.1712
29468W        W44937   4.747  13.220  15.026  0.2114  0.0595 -0.3893
29469W        W44938  12.038  10.107  13.688 -0.2115  0.1341  0.0556
29470W        W44939   0.664   8.844   4.086 -0.2330 -0.2081  0.0407
29471W        W44940  11.664  15.464   3.249  0.0603 -0.3030  0.0523
29472W        W44941  17.685  12.306  13.218 -0.0879  0.0298 -0.2881
29473W        W44942   2.646   2.842  10.224 -0.1849 -0.0506 -0.3202
29474W        W44943  15.412  12.483  15.325 -0.1428  0.1834  0.2741
29475W        W44944   2.235  16.875   5.048 -0.1218  0.0380 -0.3298
29476W        W44945  16.813  14.923   3.215  0.3828  0.3380  0.0540
29477W        W44946   2.788   1.133  15.072 -0.4383 -0.2451 -0.1052
29478W        W44947   4.265   2.410  15.395  0.1549  0.0784 -0.0247
29479W        W44948  12.631  12.730  12.915 -0.1784  0.0996  0.0556
29480W        W44949  13.844  14.901  15.731 -0.0157 -0.0112 -0.1298
29481W        W44950  13.652   5.203  10.977 -0.0409  0.3643 -0.0127
29482W        W44951  11.434   1.142   5.134  0.2652 -0.1271  0.2496
29483W        W44952  13.286  16.940   6.506  0.1120  0.0591  0.5832
29484W        W44953   9.716  14.526  11.048 -0.1374  0.4037 -0.0650
29485W        W44954   5.213   2.094  10.738  0.0492  0.3484  0.0302
29486W        W44955  16.509   0.920   3.968 -0.0800 -0.0313  0.0416
29487W        W44956  11.447  17.895  12.996  0.1484 -0.1965 -0.1792
29488W        W44957   4.532  12.885  12.128  0.0538  0.3601  0.3615
29489W        W44958   0.384   1.909  14.681  0.1077  0.0484 -0.4348
29490W        W44959  13.022   2.261   1.549  0.2198 -0.1283 -0.4223
29491W        W44960   8.823  13.934  12.362 -0.0973  0.1455  0.1896
29492W        W44961   5.994  15.535  12.491  0.1339 -0.3423 -0.3428
29493W        W44962  10.458  13.086  10.897 -0.3517  0.1933  0.0984
29494W        W44963   2.897  10.956   2.533  0.3975  0.0218 -0.0222
29495W        W44964   6.954  17.191  13.815 -0.5299 -0.2028 -0.2099
29496W        W44965  10.608   3.556   5.754  0.3598 -0.1245  0.0341
29497W        W44966  12.861   8.396  13.180 -0.0258 -0.0589  0.1697
29498W        W44967  18.329  10.388  14.355 -0.0169  0.2312 -0.2328
29499W        W44968  10.595   4.259   2.106 -0.0701 -0.0393  0.1133
29500W        W44969  12.217   9.232   2.733 -0.2673 -0.1812 -0.3136
29501W        W44970  10.952   7.334  10.933  0.2672 -0.1136  0.0419
29502W        W44971   1.059   6.750  11.373  0.2657  0.2069  0.0634
29503W        W44972  10.540  18.391  15.433  0.2415  0.2124 -0.2212
29504W        W44973   3.497   6.246   1.237 -0.1899  0.0739 -0.1984
29505W        W44974  17.283  15.765  14.803 -0.2314 -0.1448  0.1103
29506W        W44975  10.087  11.177   3.020 -0.1503 -0.0751  0.0979
29507W        W44976   8.784   7.276   5.110  0.3587  0.2701 -0.1120
29508W        W44977   1.345  16.413   2.060  0.2591 -0.0969  0.0005
29509W        W44978  16.134   2.465   5.199 -0.0410  0.2024 -0.0463
29510W        W44979  18.542   5.330   2.817 -0.1990 -0.2111  0.2781
29511W        W44980  18.064   0.424   3.197 -0.1855 -0.0047 -0.0745
29512W        W44981   4.166   4.200   1.371  0.4340  0.2185 -0.0089
29513W        W44982   5.672   7.500   1.905 -0.0527 -0.1636  0.2120
29514W        W44983  10.549  13.280   1.890 -0.2048  0.0422  0.1579
29515W        W44984  15.284  11.991  13.184  0.3008  0.1408 -0.1324
29516W        W44985  15.319   4.427   1.128 -0.0142 -0.0091  0.3019
29517W        W44986   1.204   0.854  14.631  0.3721  0.3239 -0.1916
29518W        W44987   0.324  11.147   2.312  0.0828 -0.0233  0.1552
29519W        W44988  12.482   8.574  15.293 -0.0230 -0.1222  0.0156
29520W        W44989  17.139  14.199   1.275  0.2236 -0.0269 -0.0614
29521W        W44990  10.471   7.032   1.544  0.0065 -0.2799 -0.1487
29522W        W44991   5.061   2.123   1.092 -0.1009  0.2433  0.2525
29523W        W44992   8.853  14.074  11.356 -0.2576  0.3764  0.2356
29524W        W44993   8.532   0.738   4.355 -0.1371  0.0839 -0.0284
29525W        W44994   0.258  16.298  12.608 -0.3967 -0.1221 -0.0364
29526W        W44995   3.766   7.106   9.956 -0.1006  0.1048  0.4080
29527W        W44996   8.082   5.794   5.847 -0.1149  0.1391  0.1691
29528W        W44997   9.940  17.197   2.796  0.0507  0.0453  0.1019
29529W        W44998   3.256  11.309   2.536 -0.2968  0.2146  0.0049
29530W        W44999  17.941   1.843  10.080 -0.0600 -0.2010 -0.1301
29531W        W45000   4.856   1.547  14.481  0.1967 -0.2709  0.4116
29532W        W45001  17.809   1.188  14.389  0.2012  0.2709  0.1177
29533W        W45002  15.046  11.835   4.973 -0.2603 -0.0288  0.2324
29534W        W45003  14.447   1.909   5.990  0.1689  0.0879  0.1251
29535W        W45004   2.469  11.701  13.697 -0.2071 -0.0527 -0.1642
29536W        W45005   2.438   1.324   4.254 -0.0324 -0.0360 -0.1106
29537W        W45006   0.523   1.827   0.355 -0.3559  0.3817 -0.0633
29538W        W45007  15.745  18.347   5.025 -0.0312  0.0135 -0.1405
29539W        W45008  11.682   5.542   0.888 -0.2138 -0.0249 -0.1824
29540W        W45009   8.248  13.951   0.797 -0.1130 -0.0325  0.2865
29541W        W45010   3.461  17.208   4.492 -0.1775  0.0757 -0.3618
29542W        W45011  11.646  17.086   5.833 -0.1219  0.0058 -0.2013
29543W        W45012   8.839  17.508   4.709 -0.1115  0.1734  0.1433
29544W        W45013   1.194  14.221  14.841 -0.0049  0.1509  0.1113
29545W        W45014   4.818  18.607  11.465 -0.2235  0.0488  0.0918
29546W        W45015   9.409   8.459  14.927  0.1146  0.0755 -0.2288
29547W        W45016  14.037  15.300  15.301 -0.1876 -0.0415 -0.4985
29548W        W45017  13.160   5.283   1.303 -0.1809  0.1399  0.1724
29549W        W45018  13.910   9.893   2.167 -0.3119  0.0551 -0.1205
29550W        W45019  10.355  17.860   2.222  0.0556  0.2035  0.5042
29551W        W45020   5.671   2.037   5.757 -0.2364  0.0416 -0.1213
29552W        W45021  13.853   2.404  13.263 -0.3921 -0.0070  0.0955
29553W        W45022   7.099   6.375  13.105 -0.2704 -0.0550 -0.0940
29554W        W45023  18.333  11.434   1.497 -0.0702 -0.0850 -0.0275
29555W        W45024   9.512  15.528  14.589  0.1172  0.0793 -0.1959
29556W        W45025   7.021  15.643   9.542  0.0739  0.0214 -0.1608
29557W        W45026   3.454   6.621  13.440  0.2483  0.2440  0.1893
29558W        W45027   5.783   1.247   5.571 -0.2034  0.0888  0.3408
29559W        W45028  15.598   8.002  11.586  0.3076 -0.4478  0.0098
29560W        W45029   8.285   5.435  14.190  0.1357  0.2690  0.3328
29561W        W45030   2.289   1.316   4.759 -0.1163 -0.0167  0.1496
29562W        W45031  15.939  14.788   4.472  0.3924 -0.0974  0.1443
29563W        W45032  17.324   8.417  11.023  0.0030 -0.1024  0.2670
29564W        W45033   8.265   3.784  11.381  0.0042  0.0046  0.3642
29565W        W45034  14.111  18.096   5.775 -0.2872 -0.1197 -0.2054
29566W        W45035   9.454  14.501   5.990  0.2915  0.2972  0.3506
29567W        W45036  15.470   4.926  12.717  0.0981 -0.0743 -0.0949
29568W        W45037  17.344   4.860   0.391 -0.0105  0.2556 -0.2643
29569W        W45038   7.995   2.124   4.927  0.1732  0.2047 -0.2173
29570W        W45039   5.303  17.716  12.940  0.1159  0.1855 -0.0736
29571W        W45040  11.466  15.023   3.583 -0.0339 -0.2018 -0.0446
29572W        W45041  16.663  18.237   4.433  0.0899  0.3233 -0.0926
29573W        W45042  14.449   8.045   4.695 -0.2506  0.0082 -0.2731
29574W        W45043   1.797  12.468   1.724 -0.2223 -0.0052 -0.1237
29575W        W45044   3.139  17.471  13.080 -0.1364 -0.1145  0.0293
29576W        W45045  13.453  11.905   2.331  0.0839 -0.1462 -0.0500
29577W        W45046   3.240   9.156  15.622  0.1703  0.0096  0.0758
29578W        W45047  13.173  16.356  14.827  0.0666  0.0669  0.0052
29579W        W45048  18.392  15.328  11.518  0.1054 -0.3182  0.0335
29580W        W45049  16.486  15.831   2.288  0.2734  0.1377 -0.1076
29581W        W45050  12.223  10.820   3.507  0.1845 -0.1136  0.1041
29582W        W45051   6.679   5.602  15.177  0.0228  0.1843 -0.2163
29583W        W45052   4.706   1.418  12.478 -0.1484 -0.1191  0.0795
29584W        W45053   8.680  11.935  13.814  0.0665  0.0060 -0.0137
29585W        W45054  12.482  11.754   4.443 -0.0191 -0.2796  0.1669
29586W        W45055  13.196   4.110   1.874 -0.0592 -0.0082  0.1312
29587W        W45056   3.495  15.628  12.088  0.1741  0.2036  0.2240
29588W        W45057   3.413   2.378  11.702 -0.0793  0.1407 -0.2208
29589W        W45058   5.412  13.868   1.708  0.3778  0.0131  0.1240
29590W        W45059   1.078   0.778   0.420  0.3339 -0.0434  0.1561
29591W        W45060  11.706   7.402   3.241 -0.1253 -0.0458 -0.0862
29592W        W45061   0.317  14.376  15.629 -0.2553 -0.1596 -0.1587
29593W        W45062  16.395   8.516  11.149 -0.1731 -0.1104 -0.2136
29594W        W45063   8.712  10.248  12.332 -0.2287 -0.0516 -0.2269
29595W        W45064  12.896   5.765  10.881  0.2429 -0.0454  0.2692
29596W        W45065  12.152   7.654  13.427  0.1057 -0.1833 -0.0086
29597W        W45066  18.413   5.947   2.334  0.0562  0.0257 -0.2928
29598W        W45067   1.364  10.090   3.910 -0.2160 -0.1970 -0.1781
29599W        W45068   1.006   5.593  14.905 -0.1196  0.2806  0.1697
29600W        W45069  14.657   9.714   0.776  0.3942 -0.0104  0.3864
29601W        W45070  18.334   2.079  12.856  0.2013 -0.0802  0.0781
29602W        W45071  15.945   7.570  10.659 -0.1710 -0.2019  0.3595
29603W        W45072  18.357  13.194   1.100  0.3457  0.2800 -0.1732
29604W        W45073  13.723   9.398  10.698 -0.0873 -0.2167 -0.2150
29605W        W45074  12.390  11.947  11.070  0.2100 -0.0753  0.0102
29606W        W45075  11.270  17.011  15.303  0.0056 -0.1488  0.1512
29607W        W45076  18.509   2.767  13.784  0.0374  0.0004  0.2892
29608W        W45077   7.410   8.385   3.611 -0.1738  0.1110  0.4931
29609W        W45078   0.838   2.439   5.581  0.2743  0.2667  0.0661
29610W        W45079   9.966   6.127  14.975 -0.1434 -0.0889 -0.1866
29611W        W45080  16.144  12.554  14.182 -0.0826  0.1698 -0.2933
29612W        W45081   8.593  17.313   0.726 -0.1043 -0.2265  0.0331
29613W        W45082   9.685   0.028  11.020  0.0393  0.1140 -0.1556
29614W        W45083  12.294  10.797   2.169  0.2195  0.1973  0.1018
29615W        W45084  11.707  10.938  12.628  0.0801 -0.1830 -0.0378
29616W        W45085  15.964  17.513  10.448 -0.0039  0.0650  0.1753
29617W        W45086  10.863  11.621  12.516  0.0144 -0.1314 -0.0712
29618W        W45087   9.338   2.174   5.072 -0.2310  0.2458 -0.2573
29619W        W45088   4.175  18.508  11.540  0.2990  0.1116 -0.0098
29620W        W45089  16.629  16.350  13.746 -0.2232  0.2682  0.0085
29621W        W45090  14.934   7.244  11.577  0.0984  0.0205 -0.1530
29622W        W45091  18.058   8.367  11.257  0.0800 -0.1607 -0.1560
29623W        W45092  16.195  13.614  12.477 -0.0341 -0.1101  0.0379
29624W        W45093   5.781  12.416  11.231  0.2961  0.0000 -0.0209
29625W        W45094  16.806   1.182   1.695 -0.3946  0.0162 -0.0395
29626W        W45095   8.870   1.435   5.683  0.0888 -0.3546  0.1198
29627W        W45096   1.426   9.821  10.784  0.1382 -0.0498  0.0950
29628W        W45097   1.031   1.263   1.604 -0.2481  0.0656 -0.2407
29629W        W45098  14.080   6.566   1.087  0.1725  0.0613  0.0661
29630W        W45099   4.346   7.856   3.289 -0.2889  0.2934 -0.0679
29631W        W45100  13.941   4.612  13.001  0.0669 -0.3774  0.1039
29632W        W45101   6.890   3.455  13.792 -0.0011  0.1435  0.0697
29633W        W45102   9.134  13.198  11.356 -0.1882 -0.0562 -0.2485
29634W        W45103  14.160  14.959   1.943 -0.0451 -0.0126 -0.0280
29635W        W45104  14.098   4.315   1.814  0.1287 -0.0248 -0.2967
29636W        W45105  18.154   9.455  12.703 -0.1879 -0.0874 -0.2981
29637W        W45106   9.613  16.036   5.214 -0.1962  0.0784  0.3059
29638W        W45107   5.931   6.702   5.523 -0.2782  0.1131 -0.4333
29639W        W45108   3.358   9.364   4.760  0.2094 -0.3217 -0.3116
29640W        W45109  15.047  17.309  13.551  0.1001 -0.0220 -0.1531
29641W        W45110  13.952   5.049   3.957  0.0042 -0.1559 -0.0386
29642W        W45111  16.603   5.085   4.080  0.0119  0.1004  0.0303
29643W        W45112  11.429   2.424  15.486 -0.0357  0.2044 -0.2131
29644W        W45113   8.804   4.745   4.333  0.1241  0.0071 -0.1197
29645W        W45114   4.010  16.352   6.116  0.2996  0.0706  0.0652
29646W        W45115  12.770   5.752  12.913  0.2334 -0.0597  0.1404
29647W        W45116   8.933   0.156  13.002 -0.1445  0.1615 -0.0210
29648W        W45117  12.406   3.011  14.249 -0.3922 -0.2469  0.1727
29649W        W45118   2.445   9.425  12.923  0.0069 -0.0941  0.1975
29650W        W45119  13.144  12.908   0.301  0.0434  0.3147 -0.1096
29651W        W45120  17.911   7.118  12.056  0.0139 -0.1201  0.0945
29652W        W45121   1.515  13.754  13.714  0.2369 -0.1516 -0.0367
29653W        W45122  10.356   1.576  11.649  0.1010  0.1140  0.0771
29654W        W45123   1.958  17.240   0.055  0.1848 -0.2278  0.2389
29655W        W45124   9.354   6.438   1.747 -0.1300  0.0799 -0.3416
29656W        W45125   0.298  13.320   4.071 -0.0775 -0.1221  0.4175
29657W        W45126  15.422  10.328   1.712 -0.1372  0.1421  0.3206
29658W        W45127   1.464   8.128   9.860  0.0773 -0.0983 -0.1009
29659W        W45128   8.542  13.236  14.323 -0.1557 -0.0188  0.0225
29660W        W45129  18.564  11.231   4.960 -0.3298 -0.2103 -0.2144
29661W        W45130  17.145  17.656  13.914  0.0174 -0.0142 -0.0858
29662W        W45131   3.124  11.008  12.948  0.4831  0.2361 -0.0497
29663W        W45132   8.045  10.869   9.959 -0.1299  0.1666 -0.2468
29664W        W45133  16.337  14.615  12.310 -0.3490  0.1390  0.1891
29665W        W45134   9.144  13.567  12.315  0.1538 -0.2289  0.3044
29666W        W45135  12.212  12.452   0.124 -0.0432  0.0410 -0.0516
29667W        W45136   0.105  11.234  12.173 -0.3570  0.2626 -0.1805
29668W        W45137   0.324  15.763   1.304 -0.0119  0.1932  0.2770
29669W        W45138   8.876  10.896   2.357  0.1136  0.2413 -0.0971
29670W        W45139  12.978   3.577  11.730  0.1137 -0.0150 -0.1930
29671W        W45140  15.198  15.076   0.085  0.1175  0.1614 -0.0356
29672W        W45141  13.529   7.828   2.254  0.2381 -0.2426 -0.0809
29673W        W45142   0.515   2.158  15.132  0.3231  0.0288 -0.5460
29674W        W45143  17.521   7.007  10.541 -0.1178  0.1717 -0.0017
29675W        W45144  11.435  11.487   2.791 -0.1943 -0.1888  0.0382
29676W        W45145  17.158  12.760   2.060  0.0532  0.0581 -0.0209
29677W        W45146  12.316   1.584  14.064  0.0302 -0.0763 -0.3533
29678W        W45147  11.808   3.242  14.793  0.0578 -0.0881  0.0163
29679W        W45148  17.170   3.421   2.197  0.2123  0.1086  0.3038
29680W        W45149   3.779   9.251   3.843 -0.5538 -0.0901  0.3075
29681W        W45150  14.811  14.797   5.297 -0.2012 -0.0952 -0.0553
29682W        W45151  10.994  14.739   1.453  0.0820 -0.0610 -0.0742
29683W        W45152  13.130   5.395  15.431 -0.2013 -0.1268  0.0429
29684W        W45153  14.021  12.449  15.506  0.1144  0.4279 -0.0440
29685W        W45154   5.499   0.676  11.639 -0.1660 -0.0068 -0.2456
29686W        W45155  16.134   4.847   2.081  0.2476 -0.1698 -0.0616
29687W        W45156   6.397  16.187  13.728  0.0006  0.0187 -0.1434
29688W        W45157   8.010   0.561   1.758  0.0392  0.0949  0.2017
29689W        W45158  11.752   8.218   1.209  0.1057 -0.0117  0.2636
29690W        W45159  11.146   3.693  11.444  0.2631  0.0230 -0.0699
29691W        W45160   9.457  12.449   9.726 -0.2219 -0.2194  0.1251
29692W        W45161  13.955  16.437   4.836  0.2558  0.3866 -0.3423
29693W        W45162   1.519   5.468   0.340  0.2503  0.1364 -0.1473
29694W        W45163  10.977   0.721  12.184  0.1154  0.0170 -0.0558
29695W        W45164  14.662  16.613  15.715 -0.2465  0.4061 -0.1819
29696W        W45165  17.726  11.402  12.268 -0.3057 -0.2402  0.2847
29697W        W45166   0.548   2.340   0.979  0.2043 -0.1118  0.1261
29698W        W45167   2.840  12.128  14.411  0.0243  0.0923  0.1213
29699W        W45168  11.906  16.950  13.726 -0.1061  0.0276 -0.1329
29700W        W45169  15.880  13.063   0.911  0.3096  0.3562 -0.3038
29701W        W45170   0.643  13.887   1.700  0.0740 -0.4412 -0.0661
29702W        W45171  14.618   7.012   3.506  0.0772 -0.0425 -0.1853
29703W        W45172  14.414  16.730   3.998  0.1356  0.1693  0.1902
29704W        W45173   9.144  12.623   0.964  0.0093 -0.1350 -0.0490
29705W        W45174   0.020   9.444   2.713 -0.1212 -0.1912 -0.0398
29706W        W45175  14.244   1.488   5.365 -0.1767  0.1071 -0.0574
29707W        W45176   2.360   7.501   0.397 -0.1017  0.1883 -0.0417
29708W        W45177  17.971   1.258   4.601 -0.0813  0.2176  0.2239
29709W        W45178   5.290   2.771   3.810 -0.0210  0.1687 -0.2586
29710W        W45179  14.274  13.873   4.352 -0.2108 -0.2201  0.0310
29711W        W45180   2.952  11.447  14.738 -0.1988 -0.0286  0.0438
29712W        W45181   7.810   5.168   5.304  0.3191  0.0455 -0.2377
29713W        W45182  14.399  12.091  10.245 -0.1240  0.0061 -0.1771
29714W        W45183   2.709   5.112   4.360  0.4009 -0.1691  0.0523
29715W        W45184  17.932   8.576  12.053 -0.4461  0.2574 -0.0005
29716W        W45185  12.728  12.835  11.087 -0.3835 -0.0879 -0.1369
29717W        W45186  10.886   1.117  12.854  0.0412 -0.1132  0.1594
29718W        W45187   6.854  10.674  12.032 -0.2238  0.0060  0.1012
29719W        W45188   7.302   4.796   1.562  0.2316  0.0929 -0.2064
29720W        W45189   2.203  18.504   4.685  0.1732 -0.3564  0.2385
29721W        W45190  15.934   2.658  13.892  0.1102 -0.4277 -0.2543
29722W        W45191   5.291   3.375   3.914 -0.1589  0.1543 -0.0357
29723W        W45192  15.021   1.387   4.380 -0.2140 -0.1186  0.2548
29724W        W45193   0.606  10.169  12.025  0.3468  0.2399 -0.1742
29725W        W45194  11.506  15.349   1.909 -0.0011  0.1149  0.3022
29726W        W45195  15.643  14.530  13.802  0.1257 -0.0698  0.0316
29727W        W45196   9.537  18.250   2.032 -0.0684 -0.3315 -0.1937
29728W        W45197   6.509  12.041   9.983  0.1264  0.4857 -0.0608
29729W        W45198   0.397   3.255   1.231  0.0215 -0.1809  0.1301
29730W        W45199   4.794   0.197  13.626  0.3650 -0.2805  0.2369
29731W        W45200   9.921  14.119   1.950 -0.2422  0.0494  0.2346
29732W        W45201   5.599  15.877   2.955  0.0368 -0.0972  0.1199
29733W        W45202  10.999  10.287  15.743  0.2389  0.1109 -0.2208
29734W        W45203  10.728  17.801  15.175 -0.2326 -0.0480 -0.0492
29735W        W45204   7.467  11.035   1.612 -0.0386 -0.1999  0.1726
29736W        W45205   3.346  13.896   5.175  0.1698 -0.3376 -0.3489
29737W        W45206   5.318   9.670   1.377  0.2480 -0.2288  0.3028
29738W        W45207  10.233   8.843   0.001  0.1561  0.1514 -0.0948
29739W        W45208  17.866   7.035   2.198  0.0073  0.0714  0.2733
29740W        W45209  15.530  16.947   4.786 -0.0153 -0.2663  0.0330
29741W        W45210   3.706  13.590   3.914  0.1934 -0.0251 -0.2024
29742W        W45211  16.467  17.752  13.228 -0.3916  0.0148  0.0175
29743W        W45212  13.776  15.734  14.481 -0.1369 -0.0444 -0.1122
29744W        W45213   4.816   0.160   4.979  0.2466  0.1966  0.0506
29745W        W45214  13.459   5.780  15.444 -0.1032  0.1435  0.0955
29746W        W45215   6.907   5.592   1.456  0.1305 -0.1827  0.2184
29747W        W45216   1.863   0.390  11.677 -0.0046 -0.0753  0.2057
29748W        W45217  16.723  15.139   1.517  0.2029 -0.1129  0.1987
29749W        W45218   4.446   1.629  14.787  0.1395 -0.1280  0.2012
29750W        W45219  15.957  12.066  12.495  0.3654 -0.1492  0.4039
29751W        W45220  18.578  15.758   2.378  0.0132  0.0045 -0.2359
29752W        W45221  15.465  12.250   4.269  0.1758 -0.0057  0.2332
29753W        W45222  15.450   4.891   0.115 -0.0592 -0.0435  0.1251
29754W        W45223   1.631   0.923  12.386 -0.2693 -0.1397 -0.1135
29755W        W45224   6.852   6.473  14.600  0.0676 -0.1725  0.1133
29756W        W45225  13.571   2.469  13.637  0.0458 -0.2989 -0.2998
29757W        W45226  12.733   2.692   5.266  0.0846 -0.1903 -0.0844
29758W        W45227  17.921  15.811  11.211 -0.2730 -0.0024  0.1371
29759W        W45228   0.985   9.076   9.989  0.3580  0.1349 -0.0094
29760W        W45229   3.190   6.835   4.042 -0.3076 -0.0243 -0.3492
29761W        W45230  15.134   9.814   1.898  0.0357 -0.2264 -0.0910
29762W        W45231   1.699   8.369   1.939  0.2532  0.0023 -0.2299
29763W        W45232  14.295  17.831  14.562 -0.1829 -0.2308 -0.0406
29764W        W45233   4.627  10.588  11.854  0.0251  0.0466  0.2385
29765W        W45234  15.579   8.432   4.980  0.1297 -0.1699  0.2803
29766W        W45235  13.555  14.736  13.831 -0.3362  0.1492 -0.1445
29767W        W45236   8.118   7.726   2.962  0.1185 -0.1163 -0.1049
29768W        W45237   1.874  11.384   0.864  0.0676 -0.3453 -0.1702
29769W        W45238   3.538   2.316   3.954 -0.2109 -0.0845  0.1745
29770W        W45239   9.846  14.634   0.541  0.0525 -0.0171 -0.0485
29771W        W45240  14.150  17.814  10.597  0.3017 -0.0750 -0.2542
29772W        W45241   9.647  13.363   0.305  0.2812 -0.0648  0.0358
29773W        W45242  15.345  12.545  13.614  0.0635 -0.1225  0.2108
29774W        W45243   9.318  10.572   4.711  0.0656  0.1510 -0.1474
29775W        W45244  11.351  14.725  15.227  0.1526 -0.3846 -0.0876
29776W        W45245   9.929   4.970  13.599 -0.0013  0.0651  0.1278
29777W        W45246   7.633  11.737  11.162  0.1803  0.1868 -0.3581
29778W        W45247   9.818   5.587   4.432 -0.1492  0.0248 -0.3743
29779W        W45248  16.631  12.751  14.094 -0.0450  0.3502  0.0795
29780W        W45249  15.318  15.847  12.682 -0.2235 -0.0767 -0.1075
29781W        W45250   9.564   5.903   2.249 -0.1813 -0.3966  0.0539
29782W        W45251   7.978   1.763   3.373 -0.0818 -0.1114 -0.1993
29783W        W45252   4.977  14.791   2.839 -0.0568 -0.2241 -0.2672
29784W        W45253  16.736  13.111  11.384 -0.1764  0.1639  0.0776
29785W        W45254   0.693  17.533  14.482 -0.3286 -0.1768 -0.0327
29786W        W45255  18.182   0.510  13.278 -0.3643 -0.0101 -0.0972
29787W        W45256   1.683  12.444  11.939 -0.1497  0.0241 -0.0827
29788W        W45257  15.550  12.693   4.466  0.1229 -0.0499 -0.3881
29789W        W45258   3.858   6.765   2.925 -0.2475  0.0258  0.0801
29790W        W45259  11.929   8.911   2.382  0.1170 -0.3198 -0.0618
29791W        W45260  11.679   3.739   1.693 -0.5287 -0.1231  0.2821
29792W        W45261   1.310   3.892   2.846 -0.1207  0.0512 -0.1388
29793W        W45262   9.555   3.858   0.482 -0.0727  0.0195 -0.2455
29794W        W45263  15.975   4.074   2.276 -0.0353  0.1011 -0.0289
29795W        W45264  12.682  10.694  15.251 -0.3600  0.3422 -0.2936
29796W        W45265  13.262  16.643  11.306 -0.0232  0.2381 -0.0395
29797W        W45266  13.150   0.206   4.680 -0.1582  0.3126 -0.1123
29798W        W45267   2.393   6.043   1.274 -0.0240  0.1033 -0.0139
29799W        W45268  10.310   5.068   2.138 -0.1767  0.2452  0.0948
29800W        W45269  15.728   5.139   1.844 -0.2057  0.1737  0.0572
29801W        W45270   7.463   2.441  11.924 -0.1410 -0.3768  0.0888
29802W        W45271   5.224  10.789   4.399 -0.1970 -0.0742 -0.3517
29803W        W45272   8.002   9.718  12.953 -0.0693 -0.0029 -0.0314
29804W        W45273  12.102   2.455  11.875 -0.2776 -0.1386 -0.2815
29805W        W45274  17.349   7.163   2.316 -0.0606  0.1400 -0.1909
29806W        W45275  13.397  13.216  12.578  0.1083  0.3368 -0.0174
29807W        W45276   5.234   7.725  13.007  0.1132 -0.0061  0.0152
29808W        W45277  12.029   1.848   5.018  0.0240 -0.1658 -0.2490
29809W        W45278   8.461   3.307  11.970  0.0328  0.3131 -0.0890
29810W        W45279   4.985   3.445   0.685  0.1428 -0.1848 -0.0815
29811W        W45280  14.357   8.156  12.278 -0.3390  0.0468  0.3045
29812W        W45281   3.952  15.348   3.584  0.0544  0.2507 -0.0811
29813W        W45282   5.039  10.033   3.451 -0.0134 -0.3675 -0.1855
29814W        W45283   5.310  14.344  11.526 -0.2502 -0.0119 -0.3116
29815W        W45284  17.436   1.315   4.714 -0.1222  0.0812 -0.4336
29816W        W45285   0.485  13.675   5.635 -0.0050 -0.0306  0.1787
29817W        W45286   8.826   3.479  12.709 -0.0118 -0.0900 -0.4574
29818W        W45287  12.121  16.737  13.239  0.0209 -0.2598  0.0086
29819W        W45288   3.414   8.139  10.845  0.3562  0.2935 -0.2021
29820W        W45289  10.070   5.787  14.021 -0.0606 -0.1166 -0.0393
29821W        W45290  16.984   5.904   1.851  0.0570  0.3143 -0.1215
29822W        W45291   0.145  13.782   0.278 -0.1040 -0.0832 -0.2084
29823W        W45292  12.645  15.688  13.363  0.1468  0.0073 -0.0803
29824W        W45293   7.808  17.507   5.086 -0.1349  0.2678  0.1420
29825W        W45294   5.715  13.908   3.009 -0.0196  0.0321 -0.0790
29826W        W45295  15.125  16.227  14.086  0.0801  0.3523  0.0218
29827W        W45296   3.532  16.568  15.218 -0.3636  0.0852  0.0659
29828W        W45297  10.997  16.197   2.104 -0.0878  0.1338  0.0206
29829W        W45298   2.395  14.923   5.277  0.1410  0.0780 -0.0724
29830W        W45299   9.394   8.033   2.917  0.3509  0.0298 -0.1687
29831W        W45300  12.140   8.706   0.951  0.0915 -0.1468  0.1277
29832W        W45301  17.309   1.727  14.930  0.2031  0.3308 -0.1352
29833W        W45302  17.438   4.282  11.160  0.0422 -0.0247 -0.1276
29834W        W45303  15.054  11.954  14.854  0.0147 -0.2595  0.2237
29835W        W45304   1.289  17.777  15.124 -0.3285  0.1347 -0.1865
29836W        W45305   8.420  17.856  15.347 -0.1200  0.1159  0.0856
29837W        W45306  18.327  11.307  13.976 -0.0192  0.0866  0.0204
29838W        W45307  12.978   5.237  11.610 -0.1161  0.0899  0.0533
29839W        W45308  12.045   4.187   2.384 -0.1427  0.0882 -0.2150
29840W        W45309  12.798  11.440   1.784 -0.0372  0.1724 -0.1110
29841W        W45310  11.964   8.322   5.013 -0.0163  0.1050  0.0065
29842W        W45311   2.910  14.519  12.719  0.3226 -0.0653  0.1224
29843W        W45312  11.733  17.277  14.952  0.0377 -0.1623 -0.0549
29844W        W45313   1.835  13.488   0.798  0.0786 -0.2339  0.2248
29845W        W45314   2.344   3.848   3.828 -0.0747  0.0340  0.0023
29846W        W45315  12.615   2.158   0.055 -0.1068  0.3442  0.1599
29847W        W45316  12.462   4.203  10.749 -0.2074  0.1170 -0.2267
29848W        W45317   0.848   2.002   0.720  0.1287  0.0030  0.1727
29849W        W45318   8.982   6.561   2.162 -0.0151 -0.1175  0.4334
29850W        W45319  10.067  15.964  12.930  0.4291  0.3571  0.2686
29851W        W45320   1.542   4.940  11.182 -0.0368  0.3101  0.1012
29852W        W45321   1.622   9.274   2.221 -0.2640  0.0469 -0.3549
29853W        W45322  17.343   1.108   5.203 -0.1185  0.0336  0.0976
29854W        W45323  18.043   2.328   1.685 -0.0875 -0.1164  0.1023
29855W        W45324   8.379   9.141   1.919  0.0739  0.1911 -0.0327
29856W        W45325  16.632  16.139   1.145  0.0812 -0.1623 -0.2656
29857W        W45326   2.842   3.757   4.477  0.1143  0.0482 -0.0146
29858W        W45327  18.278   7.794   4.240  0.3010  0.1328  0.0121
29859W        W45328  15.089  15.315   2.595 -0.0785 -0.1051  0.0966
29860W        W45329   0.702   0.654   6.068 -0.0845 -0.0543  0.0850
29861W        W45330   0.002   5.223  10.093  0.2318 -0.0388  0.1428
29862W        W45331   4.759   4.581   1.836 -0.1904  0.0819 -0.0454
29863W        W45332  17.077   5.355   0.445 -0.1415  0.0920 -0.1227
29864W        W45333  15.015   0.595  11.350  0.0491 -0.5096 -0.0461
29865W        W45334  16.343   3.158  11.853 -0.2787 -0.3338  0.0760
29866W        W45335  11.696  13.242  14.486 -0.1190 -0.3510 -0.2111
29867W        W45336   3.759  12.405  11.621 -0.1907  0.0696 -0.2645
29868W        W45337  10.967  18.080   5.633  0.0177 -0.0591  0.2208
29869W        W45338  17.579  16.981  15.567  0.0409 -0.2887  0.2121
29870W        W45339   2.887   6.866   0.997  0.2526  0.0148 -0.1457
29871W        W45340   7.080   0.324   0.784 -0.2314  0.1503 -0.1510
29872W        W45341   7.009  16.730   2.010 -0.2268 -0.1179 -0.0161
29873W        W45342  17.727   3.104  15.613 -0.3675  0.2985 -0.0313
29874W        W45343   6.868  15.458  13.670 -0.0313 -0.0317  0.2039
29875W        W45344   1.398   2.320   3.402  0.3596  0.0423 -0.2699
29876W        W45345   9.049  10.330   0.309  0.2355  0.0277  0.1203
29877W        W45346  15.239   5.839  11.285 -0.0817 -0.1474  0.1480
29878W        W45347  16.902   2.736  14.625  0.1698  0.3945  0.4469
29879W        W45348  10.420   5.984  10.283  0.0100 -0.3953 -0.1670
29880W        W45349   6.416  13.039   3.184  0.1269  0.2399  0.1386
29881W        W45350   8.951   6.362   3.100  0.2143  0.2056  0.0712
29882W        W45351  12.504  16.062  11.400  0.0391 -0.1087 -0.0225
29883W        W45352  16.602  13.709   4.033 -0.0487 -0.0648  0.0385
29884W        W45353  10.339  12.726   4.131  0.0342  0.0079 -0.1244
29885W        W45354  11.720  18.332   1.976  0.1731 -0.2301  0.2958
29886W        W45355   1.435  14.106  11.486  0.0560  0.2265  0.1820
29887W        W45356   7.367  17.406   1.316  0.2382  0.2368 -0.2787
29888W        W45357   3.082   1.747   3.851 -0.0615  0.2474  0.3964
29889W        W45358   2.612  13.629  12.401  0.1263  0.0374  0.0038
29890W        W45359   7.236   5.368   0.354  0.0502 -0.2052 -0.0043
29891W        W45360   5.296  13.844   0.284 -0.0768  0.3145  0.1456
29892W        W45361  14.805   8.674   2.140  0.4543  0.3869  0.1406
29893W        W45362  14.813  12.721   1.415 -0.4356 -0.0468 -0.1930
29894W        W45363   1.016  13.586   1.321  0.2064  0.1463 -0.2571
29895W        W45364   9.813   7.904   6.265  0.1987  0.4121 -0.0249
29896W        W45365  13.024   2.778   4.861 -0.0570  0.0802  0.0868
29897W        W45366   0.838  17.051   4.195  0.0688 -0.0855  0.2005
29898W        W45367  17.878   3.710  14.188  0.1414 -0.0807  0.1706
29899W        W45368  18.400   8.810  13.214  0.3374  0.0455  0.1376
29900W        W45369  14.531  16.940   9.960 -0.0103 -0.0844 -0.0771
29901W        W45370  12.007  12.256  14.816 -0.3257  0.1154  0.0254
29902W        W45371  16.066   9.111   2.116  0.0986 -0.3925 -0.1468
29903W        W45372  18.322   2.564   1.330 -0.1977 -0.0576 -0.1074
29904W        W45373   3.068  15.444   5.485 -0.0952 -0.0788  0.0613
29905W        W45374  18.417   8.761   1.828 -0.0279  0.3978 -0.0869
29906W        W45375   4.905  18.444   2.686 -0.0828  0.0755 -0.4219
29907W        W45376   6.765   8.663  15.033 -0.2423  0.0172 -0.0950
29908W        W45377   5.979   6.408  13.804 -0.4435 -0.2514  0.0531
29909W        W45378  13.896  15.370   2.044 -0.4516  0.0023  0.5049
29910W        W45379   8.296   6.888   3.025  0.2289  0.0024 -0.3581
29911W        W45380   8.995  13.963   3.723  0.0329 -0.2269 -0.2100
29912W        W45381   2.789   3.545   1.902  0.1458 -0.1025 -0.1060
29913W        W45382  13.861   8.734   0.931 -0.2150  0.2938  0.1176
29914W        W45383   3.811   7.972   1.681  0.0082  0.0157 -0.1478
29915W        W45384  11.329   6.638   3.206 -0.1487 -0.1486 -0.1152
29916W        W45385  14.319  18.356  14.472  0.2319 -0.2347 -0.2598
29917W        W45386   9.671  11.789   4.354 -0.1980 -0.3407  0.1654
29918W        W45387   8.839  11.955   4.810 -0.1283  0.2385  0.0267
29919W        W45388  12.559  16.175  13.515  0.1641  0.3584 -0.4203
29920W        W45389   9.094  14.284   1.601  0.1175  0.1777 -0.1373
29921W        W45390   4.119  17.186   0.343  0.2146 -0.0409 -0.3306
29922W        W45391   0.758   0.865  13.700  0.2505 -0.2098  0.1018
29923W        W45392  15.738  13.219  14.813 -0.0745  0.2352 -0.2122
29924W        W45393   9.424  12.922   1.662  0.1406 -0.3840 -0.4347
29925W        W45394   3.048  17.236  11.483 -0.1843 -0.0091  0.1017
29926W        W45395   7.657   1.039  14.793 -0.0788 -0.1003 -0.2691
29927W        W45396   2.527   1.302  12.263  0.2879  0.1322 -0.2134
29928W        W45397  18.018  17.172   0.899 -0.1788 -0.0336 -0.0660
29929W        W45398   3.346   7.246   3.738  0.1566 -0.1462  0.2511
29930W        W45399   1.358   5.952   0.371 -0.2197 -0.0863  0.1341
29931W        W45400   6.825  10.974  12.844  0.1817 -0.1023 -0.4818
29932W        W45401   2.300  13.192   1.045  0.0444  0.4205 -0.0532
29933W        W45402  17.477   0.002   3.830  0.1269  0.1479 -0.2633
29934W        W45403  15.361  12.074  14.432  0.5214 -0.1648 -0.2349
29935W        W45404   7.024   1.390  15.014  0.0520 -0.1664 -0.1297
29936W        W45405  13.243  12.546  11.040 -0.0074  0.1713  0.1939
29937W        W45406  15.698  15.299  12.438 -0.4008 -0.0891 -0.1166
29938W        W45407   2.767   1.055  14.545 -0.0750 -0.1672  0.2131
29939W        W45408  12.337  16.856   5.074  0.0788 -0.2245 -0.5994
29940W        W45409   0.698   9.032   5.380 -0.0900 -0.0933 -0.1016
29941W        W45410   8.096   4.383  12.219  0.1414  0.1346 -0.1698
29942W        W45411  11.979  16.410   2.378 -0.0550  0.0688 -0.0109
29943W        W45412   6.817  13.606  12.139 -0.0623 -0.2011 -0.2154
29944W        W45413   3.127   4.991  15.391 -0.0263  0.5448 -0.0481
29945W        W45414   9.150  13.069   3.327 -0.0860 -0.0742 -0.0299
29946W        W45415  14.702  14.322   2.498 -0.1375 -0.1925  0.2490
29947W        W45416  14.650   4.679  12.876  0.0235 -0.2621  0.1019
29948W        W45417   2.412   0.642   2.841  0.2657 -0.2603  0.0926
29949W        W45418   8.624  14.376   0.842  0.1376  0.1801  0.0787
29950W        W45419  12.221  17.654  13.722  0.1424 -0.0107  0.1516
29951W        W45420  16.123   8.639   4.285  0.1807 -0.2790 -0.0910
29952W        W45421  14.476   5.495  10.943  0.0517  0.2635  0.3233
29953W        W45422  12.375  18.571  15.609  0.1523 -0.1349  0.0257
29954W        W45423   1.029  18.483  13.158 -0.0470 -0.0434 -0.1877
29955W        W45424  13.084  14.873  13.073 -0.1024 -0.0524 -0.1824
29956W        W45425  15.731  10.601   1.334 -0.2182 -0.0734  0.3669
29957W        W45426   1.401   1.285  11.006  0.0223  0.2530 -0.1340
29958W        W45427  17.793  13.487  10.780 -0.5023 -0.0434  0.1551
29959W        W45428   0.099   3.751  11.174  0.2765  0.0032  0.2721
29960W        W45429  16.801   5.985  11.620 -0.0596  0.0370 -0.2355
29961W        W45430   9.915   6.918  14.329  0.2932  0.0053  0.0525
29962W        W45431   9.178  10.867  11.462 -0.0940 -0.3259 -0.1872
29963W        W45432   5.308  10.934  11.974  0.2600  0.2820  0.1103
29964W        W45433   5.300   9.885  11.994 -0.0966 -0.0340 -0.1523
29965W        W45434  11.231  16.575   3.768 -0.2337 -0.0924 -0.0189
29966W        W45435  17.386   9.219  13.021  0.0142  0.2820 -0.0215
29967W        W45436  12.755  15.961   2.721  0.3742 -0.0050 -0.0164
29968W        W45437  11.254   9.501  13.984  0.1954 -0.3317  0.2167
29969W        W45438  16.772  12.407  15.555 -0.1327 -0.0514  0.3327
29970W        W45439  13.645  15.557   3.682  0.0145  0.1230  0.1039
29971W        W45440  10.355  14.098   2.298 -0.0864  0.0409  0.1771
29972W        W45441  15.723  13.224   1.777 -0.1913 -0.0512  0.0285
29973W        W45442   0.095  13.493  12.613  0.0945  0.2133  0.0566
29974W        W45443  10.558   5.579   3.134 -0.0694 -0.1240 -0.0370
29975W        W45444   6.691   1.460   4.883 -0.0385  0.1273 -0.1223
29976W        W45445  11.648   3.249  11.423  0.1579 -0.1458 -0.3615
29977W        W45446   8.190   4.033   1.299 -0.3470  0.2068  0.4032
29978W        W45447   9.982  11.152  12.574  0.1228 -0.1530 -0.1252
29979W        W45448  16.226   5.119  12.067  0.2519 -0.0713 -0.0853
29980W        W45449   8.392   7.320   5.473 -0.0811  0.0696 -0.1561
29981W        W45450   5.164   3.729  13.317 -0.1068 -0.1972 -0.0047
29982W        W45451  16.744  11.915   2.592  0.2864  0.1313 -0.0005
29983W        W45452  17.448   2.883   2.007  0.3676 -0.0915 -0.1001
29984W        W45453   0.525  10.341   1.287 -0.1643  0.1030  0.0184
29985W        W45454   4.963  13.909  14.286 -0.0669  0.1387  0.3267
29986W        W45455  14.638   4.801   4.021  0.0633  0.1294  0.1092
29987W        W45456  15.612   1.993  13.873 -0.1548 -0.0533  0.0998
29988W        W45457   8.636  17.080  14.909  0.1714 -0.2459 -0.2135
29989W        W45458  16.204   3.006  12.415  0.0019 -0.0792 -0.0736
29990W        W45459  16.791  10.250  12.701 -0.1545  0.0213  0.2935
29991W        W45460  14.990   0.490   2.660  0.3028 -0.1831  0.2396
29992W        W45461   7.020  10.669   4.324  0.3089  0.3455  0.0997
29993W        W45462   0.376   1.372   3.710  0.2189 -0.2313  0.0571
29994W        W45463   9.781  17.653   4.493  0.1950 -0.0357 -0.0373
29995W        W45464  18.245   4.342   1.848  0.2739 -0.1797  0.5782
29996W        W45465   7.297  18.277   2.060  0.3008  0.0276  0.4352
29997W        W45466   1.216  18.501   3.915 -0.0853 -0.2155 -0.0585
29998W        W45467   7.779  14.206  13.941  0.1609 -0.1554 -0.1986
29999W        W45468   3.539   6.313   3.761  0.0027 -0.1610 -0.1319
30000W        W45469   3.917   6.272  12.745 -0.0978 -0.0135  0.3763
30001W        W45470  12.926  13.517  11.662  0.0602  0.0204 -0.2002
30002W        W45471   6.545   1.897   5.618  0.0514 -0.0081 -0.0757
30003W        W45472   0.492   4.345   3.272 -0.1271  0.0596 -0.2933
30004W        W45473   4.771  17.643  13.201 -0.2489 -0.0995 -0.2544
30005W        W45474   8.887  15.286  15.589  0.4208  0.0993 -0.0771
30006W        W45475   5.455  16.039   0.591 -0.0022 -0.0921  0.0811
30007W        W45476  10.279  14.251  14.873  0.0938  0.0214 -0.1744
30008W        W45477  13.606   0.095  15.115  0.1875  0.0114  0.5884
30009W        W45478  18.172  10.058   2.132 -0.0278  0.1759 -0.2272
30010W        W45479   2.574  11.075   2.117  0.0160  0.2026  0.2666
30011W        W45480  18.543  17.081  10.963  0.2174 -0.2358 -0.2753
30012W        W45481   9.328  14.038  12.358 -0.5519 -0.3366  0.0753
30013W        W45482   9.816   8.230   4.304  0.0622  0.1402  0.1690
30014W        W45483  17.285  17.620   3.256 -0.0513  0.1381  0.0260
30015W        W45484   5.829  14.779   2.021  0.2732  0.0817 -0.1627
30016W        W45485  14.651  11.810  12.112 -0.0045  0.1274 -0.0875
30017W        W45486   1.549   8.664   4.385 -0.0682  0.0433 -0.0873
30018W        W45487   5.254   0.926  14.940 -0.2094  0.2065  0.1661
30019W        W45488  17.201  15.996   5.177  0.1334 -0.0428 -0.0083
30020W        W45489  15.466   7.507  12.573 -0.2174 -0.1311 -0.0997
30021W        W45490   4.270  11.223   5.019 -0.1889 -0.1442  0.0548
30022W        W45491  10.511  17.907   0.359  0.0300  0.2727  0.1355
30023W        W45492  12.124   4.975   4.547  0.0864 -0.0104 -0.2967
30024W        W45493   7.267  16.326   1.298 -0.3376 -0.3440  0.0998
30025W        W45494  10.152   3.254  14.539 -0.0706  0.0804  0.2165
30026W        W45495  11.391   0.190  12.870 -0.2987 -0.0556 -0.1069
30027W        W45496   0.691   1.817   5.024 -0.1139  0.1903  0.1500
30028W        W45497  16.769  11.048   4.563  0.1615 -0.0885  0.1085
30029W        W45498   3.236  18.500   5.129 -0.0529 -0.2698  0.1216
30030W        W45499  10.129  10.840   4.179  0.0535  0.1734  0.1832
30031W        W45500   9.453   5.715   0.626 -0.0391  0.0346 -0.0535
30032W        W45501  14.347   8.044  13.006  0.0801 -0.2011 -0.0000
30033W        W45502  13.498   8.050  12.399 -0.2757 -0.2896 -0.0727
30034W        W45503  10.631  14.148  12.056 -0.1515 -0.4716  0.0863
30035W        W45504   8.334   4.789   4.318  0.1595 -0.2674 -0.3272
30036W        W45505   0.804   4.513  13.272 -0.0232 -0.0097 -0.1220
30037W        W45506   7.976  12.727   5.163  0.3091 -0.1660 -0.0375
30038W        W45507   9.159  14.349  13.544 -0.0311  0.1891  0.3399
30039W        W45508  17.471  11.263  11.051  0.0285  0.3473 -0.1887
30040W        W45509  14.599   8.230   0.347  0.1750 -0.0843 -0.0280
30041W        W45510   7.948  11.546   2.208 -0.3748 -0.3698  0.1144
30042W        W45511  11.894   7.755   4.936 -0.0115 -0.3351 -0.2117
30043W        W45512   7.649   8.210  10.730 -0.1286 -0.3376  0.1151
30044W        W45513  12.831  15.175   3.545  0.0710  0.1779  0.1066
30045W        W45514  15.588  11.084   1.064 -0.1228 -0.1577 -0.4069
30046W        W45515   4.722  10.325   5.031  0.1765  0.1679  0.0475
30047W        W45516   0.419   3.748   4.431  0.1595  0.3604  0.0867
30048W        W45517  10.423   0.469  14.384 -0.0865 -0.0590  0.0427
30049W        W45518   0.146   2.649  12.565  0.3442  0.1964  0.1747
30050W        W45519   7.465   4.646  10.005  0.2321 -0.1938 -0.0314
30051W        W45520   9.317  10.999  15.123 -0.0144  0.0548 -0.2165
30052W        W45521  11.743   3.507  15.638  0.2115  0.0804  0.0044
30053W        W45522   5.971   6.706  15.324  0.1317  0.2494 -0.0112
30054W        W45523   4.584  16.173   1.193 -0.1420  0.1820  0.0207
30055W        W45524   2.279  17.877  14.735 -0.1650  0.3040 -0.0632
30056W        W45525   9.261   8.994   1.966  0.0292  0.1902  0.0540
30057W        W45526  11.618  16.664  12.427  0.0230 -0.1685 -0.3929
30058W        W45527   6.973  17.553   0.655  0.3075  0.2226 -0.2084
30059W        W45528   5.762  13.404   5.407  0.4148  0.2228  0.0627
30060W        W45529  16.801  12.899   0.037 -0.1353  0.2237  0.3035
30061W        W45530   5.813  10.481  12.483  0.0758  0.1468  0.2228
30062W        W45531  16.477   9.257  10.415 -0.0446 -0.0788  0.1601
30063W        W45532  15.570  14.077  15.249 -0.1781  0.2406  0.3005
30064W        W45533  17.660   1.567   1.726  0.2888  0.2745  0.1254
30065W        W45534   8.108   5.822   6.430  0.2580 -0.5156 -0.0473
30066W        W45535   0.096   2.356  15.369 -0.0534  0.0689  0.1056
30067W        W45536   5.795  13.551  12.791 -0.1747 -0.0637 -0.3377
30068W        W45537   3.457   1.868  15.335  0.3931  0.0941  0.2471
30069W        W45538   7.212   1.563   4.933 -0.0433  0.2167  0.2145
30070W        W45539  13.145   2.863  13.260  0.0090  0.0587  0.3530
30071W        W45540   7.337   1.362   4.070 -0.1006  0.0669 -0.1357
30072W        W45541  13.308   5.882  12.397  0.1759 -0.0914  0.2361
30073W        W45542  12.296   2.749   3.435 -0.0177 -0.1015 -0.1299
30074W        W45543   1.069   9.091   4.260  0.1066  0.0499  0.0411
30075W        W45544   1.657   3.331   0.221 -0.1181  0.2143 -0.0233
30076W        W45545   7.031  15.970   3.515  0.0644 -0.4558  0.2824
30077W        W45546   2.835  17.515   1.391  0.0324  0.1515 -0.1024
30078W        W45547  15.239  16.477   3.813 -0.1865  0.0417 -0.1344
30079W        W45548   3.228  17.094   1.496 -0.1125  0.0076  0.2271
30080W        W45549  11.442  10.464  12.868  0.0530 -0.0070  0.2778
30081W        W45550   3.461   0.037  11.248  0.0676 -0.1504 -0.2443
30082W        W45551  17.538  15.090   0.999  0.2236 -0.1073  0.1985
30083W        W45552   0.585   1.551   0.748 -0.0832  0.2932  0.1944
30084W        W45553  17.896  12.335   3.794  0.1932  0.1483  0.6353
30085W        W45554   8.217  11.794   5.068 -0.0890 -0.4263  0.0623
30086W        W45555   9.278  13.227   0.676 -0.2446  0.0656 -0.0024
30087W        W45556   6.735   6.667  13.468  0.0035  0.3195 -0.1186
30088W        W45557  15.753   0.643   0.530 -0.2043 -0.0167 -0.2141
30089W        W45558  14.036  16.371   5.810  0.3018 -0.1146 -0.2537
30090W        W45559   0.495   8.581   5.022 -0.0687 -0.0230  0.2007
30091W        W45560  13.495  14.177   3.099 -0.0058 -0.1175 -0.1905
30092W        W45561  14.450   4.551  15.107  0.0597  0.0116  0.2083
30093W        W45562  14.250  10.761   5.233 -0.5736  0.2542  0.1269
30094W        W45563  12.773  13.971   9.999 -0.2261 -0.1850 -0.2653
30095W        W45564  14.175  14.349   4.355 -0.2848  0.2970 -0.0376
30096W        W45565  11.039   9.108   0.725  0.1698 -0.3079  0.0095
30097W        W45566   3.691  17.675   3.833 -0.0206  0.1844 -0.0293
30098W        W45567  10.414  10.888  13.610 -0.1815  0.0697 -0.2487
30099W        W45568   7.597   2.028  14.621 -0.0258 -0.0224 -0.2764
30100W        W45569   9.412  12.950   9.976  0.0857 -0.1457  0.1701
30101W        W45570   2.453  14.719  10.935 -0.2106  0.1907  0.2009
30102W        W45571   6.850   0.191   0.371  0.0218  0.2776 -0.0589
30103W        W45572   4.966   4.592  11.998 -0.2793 -0.1368 -0.1460
30104W        W45573   5.646   6.419  12.562  0.0185 -0.1677 -0.1514
30105W        W45574   1.984   6.669   0.044 -0.0592 -0.3461  0.1289
30106W        W45575  16.157  14.438   3.508  0.1683 -0.2900 -0.1776
30107W        W45576   8.435  16.224  15.132 -0.0145  0.3304  0.2397
30108W        W45577  13.593   6.201   3.717 -0.0558 -0.0766  0.1142
30109W        W45578   9.172   5.106   4.283  0.1777 -0.0353  0.1182
30110W        W45579  18.194   9.332   0.276 -0.0020  0.0807 -0.1892
30111W        W45580   5.636   2.721   4.151 -0.0575  0.0876 -0.0965
30112W        W45581   0.774  11.459  13.402  0.0447 -0.2776  0.1268
30113W        W45582  13.083  13.079  12.139 -0.0805  0.0489  0.2923
30114W        W45583  17.003   7.522   1.232 -0.1087  0.0454 -0.0773
30115W        W45584  18.268   8.948  12.717  0.1156 -0.0668 -0.2308
30116W        W45585   9.546   3.503   5.977 -0.1927 -0.2904 -0.0895
30117W        W45586   1.417   9.218  12.860 -0.0824 -0.2530  0.0540
30118W        W45587   9.131   7.172  10.787 -0.1665  0.1249  0.3130
30119W        W45588   4.593   3.658  14.500  0.4327 -0.1967 -0.2242
30120W        W45589   2.034  10.675   2.150 -0.1631  0.0347  0.1431
30121W        W45590   1.197   4.707  14.993  0.1848  0.0361 -0.1331
30122W        W45591  11.945   8.732  11.863 -0.1607 -0.0164 -0.3675
30123W        W45592  16.456  14.397  14.248 -0.2488  0.0344 -0.2566
30124W        W45593   8.850   6.307   6.334  0.1769  0.1212 -0.2770
30125W        W45594  18.130  15.014   1.268  0.3233  0.0909  0.2150
30126W        W45595   3.692  14.994  15.768 -0.2824 -0.1521  0.3170
30127W        W45596  17.298   0.876  11.395  0.4670  0.3777 -0.3588
30128W        W45597  14.480   6.869  15.493  0.0306  0.0441  0.2087
30129W        W45598  14.410   6.293  12.125 -0.0542 -0.0930 -0.1224
30130W        W45599  11.983  10.239   5.192 -0.0916  0.1055 -0.0446
30131W        W45600  15.837  13.910  13.907  0.0173  0.0265  0.0037
30132W        W45601  17.900   5.654   1.463  0.2529  0.1927 -0.3067
30133W        W45602  11.117   1.306   3.048 -0.0736  0.6595 -0.2876
30134W        W45603   6.401  15.748   0.285  0.2592  0.0891 -0.0190
30135W        W45604   9.096   9.756  15.354  0.1135  0.0853  0.1799
30136W        W45605  17.612   4.799  15.328  0.2882  0.1657 -0.0040
30137W        W45606   5.075  13.189   4.121 -0.0701 -0.2079  0.0418
30138W        W45607   7.625   9.859   3.326  0.0733 -0.1273  0.1761
30139W        W45608  12.069   9.169  14.309  0.0296  0.1789 -0.0701
30140W        W45609   8.041   2.614   4.681 -0.1366 -0.0947 -0.1489
30141W        W45610  10.917   4.663   1.443  0.0025 -0.1533 -0.0326
30142W        W45611   6.291   8.277   4.428 -0.4196  0.2230  0.0416
30143W        W45612   8.361  14.007  11.065 -0.4111 -0.0084 -0.2109
30144W        W45613   6.042  14.179   0.955  0.3177 -0.0483  0.0284
30145W        W45614   4.528   1.628   5.631 -0.1192  0.1059 -0.2493
30146W        W45615  13.195   6.278  13.118 -0.0072  0.1748 -0.1795
30147W        W45616  12.322   0.465   3.406  0.0021 -0.0429 -0.0417
30148W        W45617   1.218  11.471   1.994  0.1046  0.1267  0.2115
30149W        W45618   9.391  17.332  12.594 -0.0983  0.0830 -0.1546
30150W        W45619   1.870  12.976   0.865  0.0844 -0.5459 -0.0959
30151W        W45620   6.249   4.051   2.708 -0.3441 -0.3579  0.0694
30152W        W45621   6.319   3.021   2.176 -0.0242 -0.2152  0.0820
30153W        W45622   2.707  13.876  15.082  0.3908 -0.0899 -0.2353
30154W        W45623  16.350   5.907  14.632 -0.0953  0.1468 -0.0421
30155W        W45624  17.340  15.238  12.223 -0.0944 -0.1694 -0.1641
30156W        W45625   5.127   9.238  13.164 -0.0225 -0.0005  0.0125
30157W        W45626   3.867   9.540  12.040 -0.1289 -0.0927  0.1193
30158W        W45627   2.566   6.925  14.265 -0.3403 -0.0127  0.2063
30159W        W45628  14.770   0.258   0.008 -0.0060  0.1537 -0.0900
30160W        W45629  13.463  13.627   1.381 -0.1788 -0.0857  0.0976
30161W        W45630   8.079  17.895   1.553 -0.2302  0.0580  0.3303
30162W        W45631   2.582   1.977   3.224 -0.3710  0.3257  0.1947
30163W        W45632   8.402   3.573   4.184  0.1545  0.3434  0.0094
30164W        W45633  10.957   7.657  15.034  0.2009  0.0420 -0.1846
30165W        W45634   7.166  11.425   3.190  0.0032  0.1266  0.0180
30166W        W45635  13.335   0.365   3.700  0.0741  0.3881  0.1561
30167W        W45636   3.811  13.434  11.556 -0.3362 -0.0062 -0.0138
30168W        W45637  16.326   7.810  14.685  0.0078 -0.1431  0.2351
30169W        W45638   2.016   3.524  11.349 -0.2308  0.1717  0.0704
30170W        W45639   9.355   0.825  13.646 -0.0216  0.0291  0.0723
30171W        W45640  11.784   0.659   2.364  0.3073 -0.0321 -0.1486
30172W        W45641  14.955   1.515  14.651  0.0178  0.0968  0.1957
30173W        W45642  13.724  11.904   2.758 -0.4693  0.1350 -0.0794
30174W        W45643  15.847   6.040   3.100  0.1984  0.2389 -0.0752
30175W        W45644   5.247   1.644  11.930  0.1453 -0.2448  0.0914
30176W        W45645   4.098   2.424   1.868  0.0644 -0.2738  0.1986
30177W        W45646   7.086   1.054   4.856 -0.1230 -0.1248  0.1165
30178W        W45647   7.132  16.388   3.842  0.3421  0.0421  0.1466
30179W        W45648   0.431   6.860   2.152 -0.0193 -0.1196  0.2849
30180W        W45649   0.500  17.958   5.145 -0.1470 -0.2470 -0.2701
30181W        W45650  18.271  11.291  11.601  0.0301  0.1509 -0.1064
30182W        W45651  12.215  15.595  12.047 -0.1293 -0.2232  0.1644
30183W        W45652   6.307   8.543  14.513 -0.2210 -0.2724  0.2359
30184W        W45653   9.972   8.338   5.083 -0.0455 -0.0056  0.0969
30185W        W45654   2.307   0.756  15.467 -0.0366  0.3394 -0.0523
30186W        W45655  15.431  14.572  15.588  0.1452 -0.1253  0.2227
30187W        W45656   4.686   7.438   2.041  0.3838 -0.0630 -0.3930
30188W        W45657  10.785  12.842   1.815  0.1089  0.0863  0.3468
30189W        W45658   1.788   1.454  15.227  0.0687  0.3343  0.2210
30190W        W45659   6.411   5.226   3.875 -0.1404 -0.2666 -0.0576
30191W        W45660  14.730   3.833  14.106  0.2499 -0.1825  0.0850
30192W        W45661  17.072   6.630   5.328 -0.0795 -0.0284 -0.0265
30193W        W45662  12.504   8.671  14.707 -0.0107 -0.0850  0.1989
30194W        W45663   1.702   7.738   4.989 -0.2325 -0.0527  0.0463
30195W        W45664  12.763  15.740  15.025  0.1125 -0.3754 -0.0976
30196W        W45665   9.862   8.710  14.806 -0.2822  0.0695 -0.1393
30197W        W45666   1.027  16.300  13.096  0.4591  0.3189 -0.1950
30198W        W45667   0.800   5.906   4.494  0.2367  0.0434  0.1260
30199W        W45668  14.004   9.334   2.069 -0.2857  0.3075 -0.4465
30200W        W45669   1.754   9.192  11.270  0.1394  0.1808  0.2920
30201W        W45670  12.295  15.513   4.908 -0.1215  0.1467  0.2631
30202W        W45671  15.461   4.650  12.259  0.3193  0.1513  0.0509
30203W        W45672  15.062  17.539   4.801  0.2041 -0.3726 -0.2057
30204W        W45673   8.188  10.477  10.417  0.1579  0.2498 -0.0810
30205W        W45674  17.663  15.541  15.158 -0.0596  0.0038 -0.3338
30206W        W45675   2.720  15.197   3.500  0.2380 -0.0635 -0.1278
30207W        W45676  18.295  12.310   2.822  0.1193 -0.3787  0.2144
30208W        W45677  15.526   2.498  13.754  0.2377 -0.0433 -0.1231
30209W        W45678   8.983  16.915  11.854  0.1759 -0.2755  0.0964
30210W        W45679  16.063   1.056  11.323 -0.1388 -0.3030 -0.2680
30211W        W45680   0.659  11.453   3.013  0.1144  0.0972 -0.2063
30212W        W45681  12.270  10.440  14.087 -0.0580 -0.0096 -0.2333
30213W        W45682  14.880   0.953   3.258  0.1285  0.2240  0.2555
30214W        W45683   6.739  18.369   2.004  0.0050 -0.0894 -0.0279
30215W        W45684  16.981  10.490  12.301 -0.4342  0.1570 -0.2471
30216W        W45685   0.453   9.781  10.278  0.3012  0.1179  0.1307
30217W        W45686   6.370   4.512   4.229  0.0240  0.1448 -0.0110
30218W        W45687   2.065  16.597  15.289  0.0268 -0.3225  0.0089
30219W        W45688  11.126   8.258  13.082  0.1276 -0.0269 -0.1456
30220W        W45689   9.462   4.282  15.562 -0.1596 -0.4373 -0.0265
30221W        W45690   8.901   2.538  11.524 -0.0175  0.1692 -0.2368
30222W        W45691   9.122   8.677   0.903 -0.3632 -0.2206 -0.0969
30223W        W45692  18.081  10.718  15.464  0.0661  0.3487 -0.0102
30224W        W45693   2.841   8.146  12.569 -0.0287 -0.2750 -0.0793
30225W        W45694   3.306   0.296  13.026  0.1635 -0.0982  0.0888
30226W        W45695  10.552  14.668  12.213  0.0468  0.2102  0.3162
30227W        W45696  14.456  15.952  12.147  0.1717  0.1709  0.1483
30228W        W45697  18.570  12.261  11.206  0.1526 -0.2156 -0.0113
30229W        W45698   5.062  17.244  12.905  0.0804  0.5135 -0.3976
30230W        W45699   7.719  10.598  15.269  0.0253 -0.3067 -0.0422
30231W        W45700   6.761  16.199  14.369  0.0098 -0.4315  0.0304
30232W        W45701  10.099  13.509   3.126 -0.1582  0.1720  0.0336
30233W        W45702   5.069   0.872  11.479 -0.2671 -0.3904  0.1894
30234W        W45703   1.136   9.871   5.223  0.2532  0.0715  0.2466
30235W        W45704   6.526  12.498   4.549  0.2228 -0.1153  0.0665
30236W        W45705   1.314   2.173  12.168  0.0140  0.0221  0.2798
30237W        W45706   6.779   4.701  12.743 -0.2373  0.0856 -0.2468
30238W        W45707  11.519   2.170  12.711  0.0256 -0.0665  0.1055
30239W        W45708   4.893  10.078  13.482  0.2975 -0.2904  0.1263
30240W        W45709  12.074  13.214   1.267 -0.1190 -0.3862 -0.2297
30241W        W45710  18.492   0.671  14.507  0.0387 -0.3676 -0.0884
30242W        W45711   6.136  10.887   4.315  0.2433  0.2613 -0.2646
30243W        W45712   2.356   3.342  15.237  0.1092 -0.0152  0.3220
30244W        W45713   5.867  15.859  14.627  0.2563  0.1838 -0.1904
30245W        W45714  16.354  13.111   0.911 -0.2593  0.0908  0.2152
30246W        W45715   4.253   9.268  15.572  0.2216 -0.0569  0.0765
30247W        W45716  14.106   5.353  11.352 -0.2018  0.0676 -0.0002
30248W        W45717   3.069   8.739   0.128 -0.0177  0.1942  0.1389
30249W        W45718  10.702  18.544   5.700 -0.0118 -0.2148  0.2604
30250W        W45719  14.536   1.554   0.859  0.1720  0.1475  0.3719
30251W        W45720   2.116  12.313  12.324 -0.2614  0.4239  0.3353
30252W        W45721  10.881   6.581   1.324 -0.2691 -0.1264 -0.1598
30253W        W45722   8.498  11.125   1.363 -0.0411 -0.1566 -0.0994
30254W        W45723  15.599  12.480   2.567 -0.2048 -0.1878 -0.0071
30255W        W45724   7.413  17.159   0.328  0.2399  0.1363  0.1390
30256W        W45725   8.451  16.319  12.583  0.1930  0.0809 -0.0676
30257W        W45726   1.162  11.466   4.377 -0.0572 -0.1470  0.2246
30258W        W45727   5.245   0.720  12.113  0.1525 -0.1521 -0.0518
30259W        W45728   1.839   2.686   1.543 -0.0800  0.0563  0.0105
30260W        W45729   9.268  18.185   3.776  0.2545  0.0468  0.1094
30261W        W45730   6.966  17.054   0.356 -0.1274  0.0057 -0.3329
30262W        W45731   7.399  13.845  12.120 -0.0465  0.2568 -0.0081
30263W        W45732  14.611   3.292   1.208 -0.3703  0.2377  0.2871
30264W        W45733   9.739   0.029   5.512 -0.2457  0.2457 -0.2889
30265W        W45734  13.136   4.642   1.551  0.4085 -0.0139 -0.0372
30266W        W45735   6.669  15.284  14.067 -0.0149 -0.1601 -0.2135
30267W        W45736   1.887   6.198   1.141 -0.0355 -0.2484  0.1052
30268W        W45737   8.311  11.750   4.154  0.1533  0.0321  0.0004
30269W        W45738   6.327   7.520   3.077  0.2278 -0.3882 -0.1759
30270W        W45739   0.864  15.064   0.373 -0.2164  0.0027 -0.2419
30271W        W45740  15.259  15.116   4.034 -0.0912  0.2027  0.0419
30272W        W45741  11.714   4.051  13.692  0.2327 -0.0778  0.3093
30273W        W45742   2.208  14.688  11.431  0.1599  0.1204  0.1488
30274W        W45743  15.975  18.033  15.309  0.0692  0.0276  0.3077
30275W        W45744   1.267  17.099   2.888 -0.0744 -0.3397 -0.0420
30276W        W45745   2.812   2.455  15.067 -0.0633 -0.1681 -0.0436
30277W        W45746   5.884  11.269  11.342  0.1403  0.1210  0.0074
30278W        W45747   1.878   0.249  14.086  0.0220 -0.0965 -0.1678
30279W        W45748  15.091   9.247   3.858 -0.0780 -0.0835 -0.0426
30280W        W45749  14.309  12.194   3.058 -0.3645 -0.4329 -0.1338
30281W        W45750  11.315   8.705   9.847  0.2088 -0.1024 -0.3783
30282W        W45751   0.613   6.628   3.322 -0.1385  0.3537  0.1716
30283W        W45752  14.977  10.233  10.938 -0.3131  0.1406  0.1594
30284W        W45753   1.073   2.607   2.247 -0.0486  0.2441  0.0962
30285W        W45754   7.587   5.227   3.271  0.4020  0.1758  0.1554
30286W        W45755  12.838  17.442   0.237 -0.0854  0.1025 -0.0887
30287W        W45756   9.623  10.006   1.875 -0.1772 -0.2722  0.1977
30288W        W45757   8.293   4.248  11.627  0.0413 -0.3713 -0.1014
30289W        W45758  11.445  12.297  14.577 -0.2100  0.3245  0.1239
30290W        W45759  12.101   5.033  10.801 -0.1411  0.1482  0.0235
30291W        W45760   1.256   3.655   4.724 -0.2211 -0.0419 -0.0259
30292W        W45761  10.416  13.504  15.212  0.2475  0.0900 -0.0344
30293W        W45762   4.261   2.341   5.169 -0.5277 -0.1826 -0.1645
30294W        W45763   9.372   9.055   5.326  0.1378 -0.1320  0.4491
30295W        W45764  12.231   0.511   2.729 -0.0183 -0.1903 -0.2176
30296W        W45765   1.805  12.568  15.331  0.1041 -0.3192 -0.3736
30297W        W45766   5.256  10.791   1.717  0.0613 -0.0290  0.0941
30298W        W45767   4.289  17.329   4.345  0.3322 -0.4057  0.1394
30299W        W45768   4.214  14.926  11.664 -0.3457  0.1812 -0.1552
30300W        W45769   4.468   7.011   3.338  0.0174  0.1003  0.0958
30301W        W45770  17.979  18.101   4.999 -0.0392 -0.2396 -0.1619
30302W        W45771   2.722  14.312  13.681  0.0106 -0.1226  0.1407
30303W        W45772  10.993  13.896   0.416 -0.3675  0.3125 -0.1802
30304W        W45773   6.616  14.643  12.813  0.0696  0.0815 -0.2558
30305W        W45774   5.802  16.145   1.565 -0.0677 -0.2362  0.1092
30306W        W45775   2.745  16.262   1.096 -0.0073 -0.3156  0.1367
30307W        W45776  14.408  15.259   4.283  0.1953 -0.2516  0.0288
30308W        W45777   6.143  15.639   2.341 -0.0217  0.1247 -0.0802
30309W        W45778   2.349  14.236   2.920 -0.0732 -0.1051  0.1421
30310W        W45779  11.937  12.347   3.897  0.1819 -0.7366 -0.0278
30311W        W45780   8.062   5.094   3.300  0.0735  0.3094  0.1448
30312W        W45781   7.175   5.954   4.761  0.0241  0.1266  0.1734
30313W        W45782  11.333   7.740  14.198  0.0664  0.0236 -0.2305
30314W        W45783   0.588   9.742  11.276 -0.1251  0.1641 -0.0300
30315W        W45784   0.047  10.615  10.565  0.1144 -0.0791  0.4085
30316W        W45785   6.102  17.246  12.909 -0.1742 -0.1330 -0.0958
30317W        W45786   4.704  17.909   4.821  0.2716 -0.0228 -0.2232
30318W        W45787   7.594  14.536  12.659 -0.0511 -0.0382  0.0799
30319W        W45788  16.663  15.850   5.594  0.0543  0.3898  0.0725
30320W        W45789  10.249  13.166   2.445  0.0880  0.1699  0.1544
30321W        W45790   5.855  14.100   1.589 -0.1797  0.3043  0.0646
30322W        W45791   8.173  10.505  13.350  0.0598  0.0364  0.1397
30323W        W45792   4.822  14.322   4.119 -0.1408 -0.1972 -0.0337
30324W        W45793   8.906   9.855  14.909  0.0400 -0.4571  0.0710
30325W        W45794  17.796  11.370  14.453 -0.1453 -0.0572  0.0598
30326W        W45795  10.251   6.312  12.665 -0.0295  0.1941  0.1990
30327W        W45796   6.093  16.369  14.793 -0.0259 -0.2170  0.2930
30328W        W45797  15.837   1.576   5.036  0.1544 -0.0245 -0.4897
30329W        W45798  15.197   2.829  15.380  0.0719  0.0728  0.2671
30330W        W45799  10.809   0.540   3.525  0.0166 -0.2153  0.0180
30331W        W45800  17.681  15.874   4.997  0.1566  0.2092  0.0100
30332W        W45801  10.633  11.869   3.216 -0.2759  0.2491  0.1205
30333W        W45802  13.750  13.422  11.836  0.1533 -0.0264 -0.2584
30334W        W45803   6.210   7.246  13.820 -0.0351  0.0859  0.0704
30335W        W45804  10.535  11.775   4.829  0.0065 -0.0769  0.0522
30336W        W45805  13.593   1.901  12.507  0.0056 -0.0064  0.3795
30337W        W45806   5.006  15.301  14.983  0.0980  0.4278 -0.0600
30338W        W45807   7.351   8.749  14.607  0.2904 -0.1833 -0.1236
30339W        W45808   0.623  10.426   3.554  0.1623 -0.1065 -0.1047
30340W        W45809   4.379  16.083   2.620  0.4353  0.0593  0.2397
30341W        W45810  10.185   5.560   2.788  0.0200 -0.0049 -0.1649
30342W        W45811   0.970   3.114   4.766 -0.0589  0.1434 -0.0961
30343W        W45812  13.629  15.661   3.154 -0.2420 -0.1000  0.1801
30344W        W45813   0.162  11.303  14.491 -0.1552 -0.1259  0.2669
30345W        W45814  15.488  11.819  11.745 -0.0310 -0.0826 -0.2667
30346W        W45815   0.430   2.986  13.045  0.2153 -0.0655  0.0254
30347W        W45816  13.368  16.949   1.533  0.2455 -0.0062 -0.2058
30348W        W45817  12.245   2.600   1.858 -0.0337  0.0224 -0.1628
30349W        W45818  15.633   8.685  13.483  0.2778  0.0079 -0.5492
30350W        W45819  14.244   5.789  12.311 -0.2981 -0.1245 -0.1929
30351W        W45820   3.989   2.717   2.693  0.1833 -0.2556 -0.2980
30352W        W45821   3.005  12.884  12.717  0.3937 -0.0322 -0.1707
30353W        W45822  10.995  16.921  14.695 -0.1392  0.0874 -0.1538
30354W        W45823  13.740  13.473   4.328  0.0447  0.0513 -0.0335
30355W        W45824  14.324  17.861   1.290  0.1380 -0.1642 -0.1657
30356W        W45825   2.275  17.400  11.992  0.0179 -0.0883  0.1782
30357W        W45826  12.759  16.028  11.934 -0.1773 -0.1977  0.2265
30358W        W45827   4.927   1.086   1.805 -0.0847  0.0972 -0.0705
30359W        W45828  11.999   5.734  14.676 -0.1099 -0.1808  0.1154
30360W        W45829   8.382  12.505  12.781  0.0584  0.4074 -0.1166
30361W        W45830   9.983   9.403  15.554  0.0222  0.4975 -0.0946
30362W        W45831  13.569   1.138  14.741 -0.2419 -0.1596 -0.0256
30363W        W45832  18.372   1.917  13.413  0.0558  0.0937 -0.0808
30364W        W45833   5.102  11.562  14.106 -0.3771 -0.1056 -0.1954
30365W        W45834  10.077   2.470   4.435 -0.1775  0.1144  0.1109
30366W        W45835  14.669  17.342  15.710 -0.1741  0.0421  0.2828
30367W        W45836  17.203   0.462   4.463 -0.1804 -0.1630  0.2264
30368W        W45837  13.942  16.703  12.119 -0.1195  0.1618 -0.2363
30369W        W45838  16.686   0.815   3.359  0.2876 -0.1506 -0.1508
30370W        W45839   6.353  11.569   1.271  0.1877  0.1242 -0.2176
30371W        W45840   1.191  15.784  11.919  0.2500 -0.2326 -0.0828
30372W        W45841  10.637   4.335   1.074 -0.0763 -0.0375  0.0139
30373W        W45842   9.170   8.057   5.132  0.2922  0.2467 -0.1473
30374W        W45843   6.575  12.458  14.746  0.1769 -0.0897  0.1134
30375W        W45844   4.332  15.197  15.290 -0.4733 -0.3176 -0.2034
30376W        W45845   4.391   3.766   3.827  0.0231 -0.0841  0.0430
30377W        W45846   0.180  17.212  11.499  0.1394 -0.1315  0.0380
30378W        W45847   0.836   3.373   4.371  0.0053  0.2066 -0.2062
30379W        W45848   0.211  14.204  10.525 -0.1612 -0.0296  0.0576
30380W        W45849  12.772   5.166   0.751 -0.0136  0.1056 -0.1078
30381W        W45850   8.198  15.669   2.700 -0.2406  0.0571 -0.3506
30382W        W45851   9.243  12.528  10.333  0.3962  0.0552 -0.0034
30383W        W45852  13.645  16.438   0.861 -0.0109 -0.0721  0.0343
30384W        W45853  14.581  14.073  12.569 -0.3103  0.2306  0.0298
30385W        W45854  14.747  15.083   1.293  0.2006  0.3860 -0.1331
30386W        W45855   9.279  11.607  14.673  0.1412 -0.1206  0.1250
30387W        W45856   7.064  18.265   2.928  0.2730 -0.0501 -0.0670
30388W        W45857  11.253   8.565   1.396 -0.0477 -0.1565  0.2153
30389W        W45858  16.921   5.863   3.282 -0.0850  0.0942 -0.0059
30390W        W45859  14.485  12.428   1.652 -0.0852  0.1079 -0.0581
30391W        W45860   1.348   9.443   9.932 -0.1486  0.1832 -0.0797
30392W        W45861   9.947   0.198   2.185 -0.2387  0.0022 -0.1214
30393W        W45862  14.075  11.168  14.458 -0.1777 -0.0378  0.0702
30394W        W45863   9.269   9.755  12.913  0.0815  0.0916  0.0234
30395W        W45864   3.201  10.545  15.051  0.4323 -0.1407 -0.2353
30396W        W45865   9.024   2.629  10.699 -0.0230 -0.0899 -0.1213
30397W        W45866   7.885   5.307   1.081 -0.1372  0.2483  0.1731
30398W        W45867   5.581   8.518   3.410  0.2105  0.0533 -0.1306
30399W        W45868   9.347   5.603   1.109 -0.1113 -0.0800  0.0597
30400W        W45869  11.536  17.540  15.519  0.1339 -0.0142 -0.0215
30401W        W45870   8.290  10.746  12.547  0.0848 -0.2066 -0.0362
30402W        W45871   1.868  17.833   3.962  0.0179  0.0784 -0.0730
30403W        W45872  18.320  17.996   4.630  0.1169  0.0691  0.0479
30404W        W45873   3.601  15.680   2.462  0.0252 -0.3223  0.1506
30405W        W45874  16.927  18.422  12.128  0.0588 -0.0392  0.1321
30406W        W45875  16.854  16.862   4.524  0.3923  0.2343 -0.0846
30407W        W45876  14.171   6.508  11.447  0.0677 -0.0106  0.1085
30408W        W45877   6.376   1.830   0.062  0.1364 -0.0508 -0.0697
30409W        W45878   3.668   7.437   1.292  0.0060  0.0181 -0.2272
30410W        W45879   6.346   0.895  11.670 -0.0511  0.0522  0.0650
30411W        W45880   4.676  14.073   2.150  0.1457 -0.1960  0.1382
30412W        W45881  14.386   9.780  11.858 -0.0161  0.0769  0.3426
30413W        W45882  15.831   7.225   0.112  0.0662 -0.1967 -0.0358
30414W        W45883   6.150   1.961  13.969 -0.2111  0.0277  0.1629
30415W        W45884   1.185   9.067   0.594 -0.1979 -0.0650  0.0135
30416W        W45885   0.228  15.404   5.051  0.0119 -0.1196  0.0476
30417W        W45886  18.449   1.931  15.555 -0.0887 -0.0040 -0.1985
30418W        W45887  13.282   8.151   4.011 -0.1612 -0.2543 -0.0939
30419W        W45888   9.341  13.095   1.166 -0.0400 -0.1566 -0.0262
30420W        W45889   1.141  18.110   3.563 -0.1171 -0.0095 -0.3638
30421W        W45890  17.500   3.888  15.385 -0.0147  0.1466 -0.2443
30422W        W45891   5.445   8.485  13.124 -0.2077  0.1655 -0.1143
30423W        W45892  18.201  12.407  12.178  0.0360 -0.2778 -0.2523
30424W        W45893  11.113   3.736   3.895 -0.0658 -0.0655 -0.0562
30425W        W45894  14.103  15.352  14.587  0.0850 -0.0494 -0.0310
30426W        W45895   1.837  11.469  12.575 -0.0301 -0.0336 -0.3762
30427W        W45896   7.936  11.712  11.627  0.0838 -0.1734 -0.0029
30428W        W45897   8.198  10.299   2.287  0.2299  0.0119  0.0891
30429W        W45898  11.849  11.001   4.839 -0.0780  0.1218  0.0141
30430W        W45899   6.518   7.284   2.030  0.0805 -0.1926 -0.2220
30431W        W45900   6.243   1.256   4.686 -0.0873  0.0450  0.2742
30432W        W45901  18.525  10.859   1.502 -0.0612  0.0873 -0.0097
30433W        W45902   7.098   0.251   3.669 -0.0096  0.0723  0.2817
30434W        W45903  17.994   7.598   3.129 -0.1042  0.1140 -0.0457
30435W        W45904   5.226   1.675   2.032  0.2397  0.0391  0.2095
30436W        W45905   9.417  14.512   4.967 -0.1326  0.0529  0.0553
30437W        W45906  13.494   6.583   4.640  0.0329 -0.2229 -0.1920
30438W        W45907   3.498  17.061  15.128 -0.0042  0.1679  0.1379
30439W        W45908   2.262   6.178  11.496 -0.1715  0.1501  0.0010
30440W        W45909  14.070  11.176   0.694  0.0365  0.0028  0.1294
30441W        W45910  16.122  14.579   1.951 -0.0529 -0.1363 -0.0587
30442W        W45911   4.931   2.901   0.375 -0.1689  0.0375 -0.0704
30443W        W45912  14.978  14.911   2.286 -0.0455 -0.0684 -0.1119
30444W        W45913  17.362   6.900  14.175  0.2072 -0.0036 -0.1076
30445W        W45914  15.372  16.677   2.305 -0.0877 -0.0468  0.0440
30446W        W45915  10.750  13.855   4.870 -0.0770 -0.1497 -0.1566
30447W        W45916   5.036   0.549  14.657  0.2888 -0.1372  0.1374
30448W        W45917  13.684   9.169   2.496  0.1363 -0.2333 -0.0565
30449W        W45918   8.084  17.426  14.855  0.0384 -0.0992  0.0175
30450W        W45919  15.715   8.620  12.700 -0.0443  0.2838  0.0289
30451W        W45920  13.438   9.170   2.050  0.0459  0.1422 -0.1064
30452W        W45921   1.832   7.123   4.031 -0.0901 -0.1848  0.0517
30453W        W45922  11.304  13.028   0.448 -0.1556 -0.2143 -0.3659
30454W        W45923   2.156  10.673   4.691 -0.2018 -0.0872  0.0805
30455W        W45924  17.066  15.732  12.189 -0.2612  0.1754  0.0196
30456W        W45925  11.175   1.153   0.730 -0.2723 -0.1237  0.0749
30457W        W45926   3.104  10.756  11.384 -0.3427  0.0380  0.0498
30458W        W45927  16.634  15.193   3.919  0.0267  0.1772  0.0996
30459W        W45928  14.354   1.935   1.112  0.0480  0.0677  0.0774
30460W        W45929  18.205  14.520  11.118 -0.1277 -0.1884 -0.1121
30461W        W45930   2.134   0.821   3.321  0.0328 -0.2279 -0.0937
30462W        W45931   9.459   8.865  12.436 -0.0609  0.2201 -0.2811
30463W        W45932   7.524  15.359   3.384 -0.1354 -0.0582  0.3089
30464W        W45933  16.582  13.660  14.718  0.1384  0.1760  0.0863
30465W        W45934   8.231   3.743   3.105  0.1248 -0.5903 -0.0542
30466W        W45935  13.646   7.756  13.754  0.0744  0.0526 -0.1948
30467W        W45936  12.987  12.598   4.050 -0.2475  0.3316  0.0617
30468W        W45937   9.491   2.961  13.360  0.0361  0.0164 -0.3908
30469W        W45938  15.766  14.662   2.400 -0.0912  0.1538  0.2450
30470W        W45939  16.592   3.461  15.683 -0.0378 -0.2694  0.0712
30471W        W45940   5.150  16.789   1.883  0.1551  0.1875  0.1748
30472W        W45941  18.198   0.441   4.071  0.0915  0.1240  0.0258
30473W        W45942   0.992   2.805   4.242 -0.3071  0.1414  0.0379
30474W        W45943  17.517   3.318   1.782  0.1227  0.1094 -0.0005
30475W        W45944  10.736   7.215  14.844 -0.0156 -0.0661 -0.4746
30476W        W45945   9.452  12.572   1.346  0.0005  0.0372  0.1649
30477W        W45946   7.990   7.553   4.588  0.3420 -0.2938  0.0427
30478W        W45947   7.633  16.921  12.271  0.1915  0.2392 -0.1139
30479W        W45948   4.453  18.306   2.323 -0.1860  0.0151  0.3480
30480W        W45949  15.659   1.233  15.325  0.0619 -0.1399 -0.1729
30481W        W45950   1.202  16.991  11.096 -0.3100 -0.0246  0.1099
30482W        W45951   6.384   8.953   9.486  0.2262  0.0803  0.4522
30483W        W45952  14.934  14.239  11.471 -0.0189  0.0913  0.0168
30484W        W45953   3.164   0.960  13.427  0.1372  0.0588  0.1721
30485W        W45954  18.235   8.288  13.321 -0.2366  0.1221 -0.1679
30486W        W45955   7.146  11.635  15.012 -0.2394 -0.1449 -0.0627
30487W        W45956  11.673  10.299   0.700  0.0615 -0.5613  0.0436
30488W        W45957   0.477  16.019  14.234  0.0035 -0.3264 -0.1941
30489W        W45958   5.517   1.797   3.604  0.1030 -0.1359  0.0081
30490W        W45959   8.329   3.999   1.770  0.3575 -0.1205  0.1686
30491W        W45960   3.385   0.202   0.768  0.1943  0.2715 -0.1123
30492W        W45961   4.959  14.064  14.749 -0.1847  0.1505  0.1119
30493W        W45962   1.116   7.374  11.995 -0.2302 -0.4428  0.0055
30494W        W45963  12.414  16.914   0.510 -0.1185  0.2383 -0.2150
30495W        W45964  18.500   0.533  15.022 -0.0717 -0.0835 -0.2075
30496W        W45965   1.917  14.591   0.996  0.0325 -0.0276  0.2199
30497W        W45966  17.258   7.514  10.349  0.2180 -0.0174 -0.0080
30498W        W45967   4.798   9.602  13.356  0.0908  0.5496 -0.1198
30499W        W45968  13.712   8.402   4.081  0.3522 -0.1045 -0.2791
30500W        W45969   5.365   3.988   5.144  0.4445  0.3895  0.0736
30501W        W45970  12.278   3.334  14.742  0.3575 -0.4905  0.0841
30502W        W45971  15.812   7.982   4.056 -0.1745  0.3396 -0.2119
30503W        W45972  12.304   5.907   4.943  0.2246  0.0043 -0.0492
30504W        W45973  12.083   7.072   4.608  0.0255  0.0082 -0.1046
30505W        W45974  18.460  12.720  14.112 -0.0169 -0.3008  0.2635
30506W        W45975  10.681   2.552  12.014 -0.0336  0.1998  0.1767
30507W        W45976   1.338   7.215   3.837 -0.1223 -0.0319  0.0459
30508W        W45977  15.254   6.382   4.333 -0.2276 -0.1381  0.0731
30509W        W45978   6.477  17.923   5.201 -0.0152  0.1316 -0.3891
30510W        W45979   8.846  13.820   5.388  0.0582  0.2252 -0.2509
30511W        W45980  17.693  10.910   1.471 -0.3154  0.2035  0.0908
30512W        W45981  18.559   0.588  14.036  0.1055  0.1583 -0.1227
30513W        W45982   4.992   0.495   2.885  0.1962 -0.0331  0.0332
30514W        W45983   0.958   2.179   2.466 -0.0934  0.1208  0.1690
30515W        W45984   0.418   4.753  13.710  0.0144  0.2254  0.1505
30516W        W45985  18.588  16.462   5.074 -0.1381  0.3101  0.3668
30517W        W45986  14.703   8.134  14.204 -0.2894 -0.0406  0.1833
30518W        W45987  16.988   5.048   1.957  0.3096 -0.1674 -0.0646
30519W        W45988   9.415   7.704   5.680  0.0245 -0.2502  0.1943
30520W        W45989   5.349  17.624   5.697  0.0933  0.1586  0.3019
30521W        W45990   2.475   7.860   2.496 -0.0319  0.3133  0.0399
30522W        W45991   1.390  10.652  13.298  0.1206 -0.4637 -0.0525
30523W        W45992   8.733  16.404   5.055  0.0362  0.1787 -0.0414
30524W        W45993   8.780  13.443   3.150 -0.0257 -0.1971  0.1003
30525W        W45994   4.118   2.805   2.165  0.2520 -0.1461 -0.3144
30526W        W45995   4.689   9.355   0.017 -0.3227 -0.1333  0.1451
30527W        W45996   7.855   2.001   5.364  0.4150  0.0782  0.0740
30528W        W45997   6.631   8.989   3.815  0.1900 -0.0235 -0.0191
30529W        W45998   4.714   2.096   5.749  0.2972  0.0892  0.0415
30530W        W45999   6.613  18.068   1.029  0.3106 -0.4279  0.5021
30531W        W46000   1.716  16.053  15.681  0.1072 -0.3537  0.0340
30532W        W46001  14.156  16.314  14.150  0.1425 -0.0736  0.0087
30533W        W46002  11.809  11.908   3.646 -0.4327 -0.1467 -0.3702
30534W        W46003  15.385  13.718   0.304 -0.1499  0.0458 -0.3084
30535W        W46004   7.101  10.859   9.366  0.0225  0.1537  0.1283
30536W        W46005   0.890  18.200  12.782 -0.2324 -0.0609 -0.0906
30537W        W46006   8.459   0.788   1.785 -0.0471 -0.0898 -0.1214
30538W        W46007   4.885   8.406   3.649 -0.1327 -0.0109 -0.0867
30539W        W46008  12.917   4.841  11.305 -0.0930  0.1117 -0.1627
30540W        W46009  15.090   9.335  10.691  0.1713  0.2084 -0.1883
30541W        W46010  18.033  10.824  14.528 -0.0151 -0.1752  0.1154
30542W        W46011   0.369   3.413   3.147  0.0187 -0.1176  0.2424
30543W        W46012  13.188   9.215  14.304 -0.1823 -0.3283  0.1823
30544W        W46013  11.078  16.779  13.328 -0.1571  0.1472  0.1453
30545W        W46014  15.665   8.274   4.445 -0.0388  0.0374  0.0002
30546W        W46015   6.386  14.649   5.047  0.2942  0.0695 -0.0281
30547W        W46016   6.838   2.785   5.189 -0.1742  0.1445 -0.1193
30548W        W46017   1.974  15.439   4.404 -0.1465 -0.2462 -0.0080
30549W        W46018   1.587   4.181   1.916 -0.1412  0.0787 -0.0832
30550W        W46019   2.888   7.000  11.763 -0.3290  0.0153  0.3647
30551W        W46020   6.289  11.861  12.352 -0.5664  0.1921 -0.2791
30552W        W46021   5.230  14.607   0.053 -0.1682 -0.1888 -0.0106
30553W        W46022  14.987   5.196   5.657  0.1463 -0.0443  0.0466
30554W        W46023  13.781   7.409   4.361 -0.1737  0.3992  0.0874
30555W        W46024   0.197   2.591  14.167  0.0773  0.0414 -0.4463
30556W        W46025   3.767   8.550   0.353  0.3613  0.2564 -0.0735
30557W        W46026  14.227  11.875  13.436  0.0826 -0.1867 -0.1283
30558W        W46027  15.484   9.321  14.105 -0.1309 -0.2372  0.0406
30559W        W46028  10.366   8.727   3.131  0.3317  0.2009  0.1858
30560W        W46029  10.909   0.056  11.517 -0.0842  0.3780  0.0980
30561W        W46030   2.619  17.346  11.666 -0.2676  0.4471  0.1527
30562W        W46031   6.354  14.353   5.986  0.2735  0.0901  0.0713
30563W        W46032   6.047   2.298  11.755  0.1165  0.3748  0.1890
30564W        W46033   1.281   3.428  12.443 -0.1088  0.0789 -0.1208
30565W        W46034  18.010   3.211  12.701 -0.0776 -0.0515  0.4398
30566W        W46035   7.012  18.586  11.471 -0.1396  0.2305  0.1587
30567W        W46036   4.764  16.004   3.782  0.2629  0.0870 -0.2497
30568W        W46037   9.502   8.662   4.968  0.0250 -0.1673  0.1363
30569W        W46038  11.924   7.393  13.009 -0.0552 -0.2395 -0.0684
30570W        W46039  12.782  18.475   0.053 -0.0039 -0.1917  0.2272
30571W        W46040   5.863   0.694   2.776  0.0975 -0.3237 -0.0675
30572W        W46041   5.120  18.214  14.278 -0.2217  0.1889 -0.0687
30573W        W46042  13.755   7.135  11.692 -0.0484 -0.0541  0.0134
30574W        W46043  16.269  15.674   5.297 -0.2016 -0.0459 -0.0317
30575W        W46044  17.398  10.150  13.516 -0.0408  0.0640  0.2330
30576W        W46045  12.550   0.397  12.056  0.0048  0.0694  0.1628
30577W        W46046   1.842  16.528  14.831  0.0389 -0.2230  0.1207
30578W        W46047  18.054  14.505  12.008 -0.0051  0.0287 -0.2065
30579W        W46048   7.342   5.265  10.756 -0.0329  0.1977  0.1473
30580W        W46049   9.482   2.950   1.374 -0.1113  0.2302 -0.1776
30581W        W46050  13.078  13.720  10.844  0.2878  0.0406 -0.1311
30582W        W46051   5.378  15.826  14.283  0.0603 -0.1627  0.1999
30583W        W46052  13.382   9.266  15.321  0.0659  0.1249  0.0805
30584W        W46053   4.937   6.888  11.722  0.2034 -0.3727  0.1967
30585W        W46054  13.279  17.647   0.186 -0.2471 -0.0124  0.3221
30586W        W46055   3.221   5.179  11.141 -0.0253 -0.1876 -0.0726
30587W        W46056   4.233   4.528   2.773 -0.3185 -0.1849  0.2384
30588W        W46057   6.204  13.762   3.162  0.1383 -0.3409 -0.2309
30589W        W46058  12.203  15.357  11.505 -0.1361 -0.0168 -0.0748
30590W        W46059  18.081   1.589  15.577 -0.2574  0.1467  0.0596
30591W        W46060   6.254   3.627   2.297  0.2700 -0.1802 -0.1121
30592W        W46061   8.537   9.000  15.418  0.1169 -0.3364  0.0623
30593W        W46062   6.759  14.458   2.853 -0.3061 -0.0700  0.1560
30594W        W46063   9.552  18.321  13.519  0.3393  0.1244 -0.0822
30595W        W46064  12.002  14.605   3.392  0.1854  0.0214 -0.0434
30596W        W46065   3.120  13.458   0.438  0.2635  0.0269 -0.0636
30597W        W46066  10.465   4.124  13.891  0.1566 -0.0394 -0.0191
30598W        W46067  16.167   7.627  13.573 -0.1097  0.0643 -0.0515
30599W        W46068   8.981   5.105  13.169 -0.2271  0.0171  0.0183
30600W        W46069  13.874   0.138   2.302 -0.1082  0.5789 -0.1358
30601W        W46070  10.669  17.457   5.717 -0.0204 -0.0993 -0.0210
30602W        W46071  12.707   4.246   6.056  0.0561 -0.0969  0.0585
30603W        W46072  16.700   5.511   2.040 -0.1888 -0.1457  0.0182
30604W        W46073  15.332   3.476   1.626 -0.0272  0.0821 -0.0089
30605W        W46074  15.339  14.017   5.775 -0.2398 -0.1246  0.0394
30606W        W46075  17.428  10.915  10.139 -0.2546  0.2832  0.1138
30607W        W46076  14.747  10.776  14.267  0.2088 -0.2457 -0.0913
30608W        W46077  15.315   0.671   0.763  0.0388  0.1201 -0.1650
30609W        W46078   0.766  16.630  13.298 -0.1007 -0.1421  0.0627
30610W        W46079  10.583  14.923   4.931  0.2290 -0.1141  0.1194
30611W        W46080  16.455  14.143   4.235 -0.1104  0.1989  0.3188
30612W        W46081  13.443   2.259  14.806  0.2968 -0.0715 -0.3419
30613W        W46082   0.827  16.596  11.096  0.1094 -0.0194 -0.0635
30614W        W46083  14.539   6.406   0.930 -0.1101  0.1291  0.1176
30615W        W46084   3.584   3.920   3.114  0.3711 -0.0852 -0.2097
30616W        W46085   7.081  15.065   3.446  0.1017 -0.0723  0.0884
30617W        W46086   2.680   9.759  15.549  0.1623 -0.2065  0.1053
30618W        W46087   3.449   5.976   4.223 -0.0440  0.1687 -0.2598
30619W        W46088  17.225  13.084   3.739  0.0691  0.3648 -0.2111
30620W        W46089  10.626  14.806  13.253 -0.1013 -0.0405  0.0870
30621W        W46090   5.452  13.140  12.928  0.0183 -0.0568  0.2247
30622W        W46091  15.749  10.200   5.791 -0.0238 -0.0607 -0.1784
30623W        W46092   7.685   1.219   1.307 -0.1366  0.2243  0.1346
30624W        W46093  11.488  14.234   3.657  0.3514 -0.1429  0.0023
30625W        W46094  12.308  14.635  15.731 -0.0691 -0.1625  0.0891
30626W        W46095   5.610  16.064   5.569 -0.0660 -0.2276 -0.2935
30627W        W46096   0.677   7.509   1.145 -0.1204 -0.0532  0.0798
30628W        W46097   1.005  13.130  12.426  0.0609  0.0752 -0.0956
30629W        W46098  17.754  14.141   0.197  0.1728 -0.1611 -0.2538
30630W        W46099  12.599  17.485   5.617 -0.1708 -0.1579  0.0020
30631W        W46100  18.099   7.437   1.198 -0.0487  0.5257  0.0730
30632W        W46101  17.510   7.235  11.742  0.2020 -0.0132 -0.1254
30633W        W46102  15.841  10.328  15.033 -0.0104  0.2878 -0.0791
30634W        W46103   7.351   7.417  13.284 -0.2437  0.1884  0.0936
30635W        W46104  10.185   5.237  12.498  0.0469  0.3783 -0.5084
30636W        W46105  16.375   1.873   0.410  0.4100  0.1377  0.2345
30637W        W46106   9.138   7.769  10.882  0.2083 -0.0181 -0.1789
30638W        W46107   3.267   0.894  13.932 -0.1486 -0.1976  0.1533
30639W        W46108  14.768  14.344   3.315  0.0793  0.1130 -0.1993
30640W        W46109   4.676  18.576  10.483 -0.3626 -0.1166  0.3389
30641W        W46110   3.115   0.055   2.841 -0.0336  0.1823  0.4111
30642W        W46111   5.756   2.382   5.075  0.2569  0.0041  0.3635
30643W        W46112   9.146  15.943  15.269  0.3363 -0.3812  0.1366
30644W        W46113  17.511  12.269   2.403  0.0348  0.1507  0.2015
30645W        W46114   2.850   4.202  10.358  0.3288 -0.1409 -0.0113
30646W        W46115   5.337  15.394   6.075  0.3006 -0.1578 -0.1130
30647W        W46116   5.504   9.577  14.009 -0.1497 -0.1299 -0.2919
30648W        W46117   8.853   5.010  13.637  0.0695  0.0743 -0.1906
30649W        W46118  10.478   6.577  14.191  0.1460 -0.1398  0.1680
30650W        W46119   6.925   8.772  10.913 -0.0568  0.1172 -0.1425
30651W        W46120   7.446  11.493  11.762  0.0392  0.0785 -0.1623
30652W        W46121   3.528   6.701  15.562  0.3817 -0.1493  0.2949
30653W        W46122   8.947  17.536  14.236 -0.3019 -0.2388 -0.1208
30654W        W46123  16.128  10.325   2.541  0.0672  0.2353  0.1408
30655W        W46124  13.702  13.906  12.127 -0.2648 -0.1872  0.1753
30656W        W46125  12.887  14.062  12.743  0.1728 -0.2644 -0.0045
30657W        W46126   4.708  18.542  12.578  0.0179 -0.0166  0.0863
30658W        W46127  10.876  13.485  13.077 -0.0492  0.1108 -0.2241
30659W        W46128  16.786   7.772  10.417 -0.1142 -0.2603 -0.0275
30660W        W46129   9.118  16.920   2.030 -0.0897  0.1156 -0.1939
30661W        W46130  11.475   9.119  15.686  0.1095 -0.1133  0.1305
30662W        W46131  10.983   4.725   0.194 -0.2336 -0.1989  0.0703
30663W        W46132   8.276   6.279   1.899 -0.1140 -0.3245  0.3732
30664W        W46133   5.178   9.871  12.519 -0.0528  0.3802 -0.0568
30665W        W46134   5.294   8.554   3.849 -0.0925 -0.1497  0.5108
30666W        W46135  18.385   5.503   3.698  0.1361  0.0360  0.1186
30667W        W46136   4.454   1.203   4.229  0.1439  0.1835  0.2371
30668W        W46137  12.688  11.830  12.274 -0.0504  0.1036  0.0946
30669W        W46138  10.309   8.831  13.013  0.0576 -0.0997  0.1934
30670W        W46139   5.275  13.873   9.791 -0.2231  0.0907 -0.2833
30671W        W46140   0.819  16.941   2.807  0.1029 -0.0159 -0.0702
30672W        W46141   0.208  14.021  11.458  0.1810 -0.1155 -0.1030
30673W        W46142   8.144  16.016   1.979 -0.3139 -0.0537  0.2408
30674W        W46143  14.002   8.246   3.757 -0.0752 -0.0278 -0.0145
30675W        W46144  10.308  10.927  12.239  0.0740  0.1028 -0.0105
30676W        W46145   8.736   5.214   2.480  0.0924  0.3044  0.0483
30677W        W46146   5.458  16.914  10.594 -0.2991 -0.1316 -0.0883
30678W        W46147  15.964  16.437  12.677 -0.2869 -0.0926  0.2900
30679W        W46148  18.541  11.035  11.275 -0.2948 -0.0225  0.1356
30680W        W46149   1.745   3.352   2.560  0.0179  0.1728 -0.1312
30681W        W46150  17.389   1.785  13.918 -0.0026  0.3866 -0.1408
30682W        W46151  18.029  10.996   4.447 -0.1610 -0.2435 -0.1123
30683W        W46152   7.139  11.730   5.433 -0.1240 -0.2137 -0.0556
30684W        W46153  17.417   5.854  14.943  0.1344 -0.0167  0.1305
30685W        W46154  16.133   5.591  11.868  0.0420  0.0328  0.0630
30686W        W46155   0.562  16.357  11.494 -0.2375 -0.3856 -0.0657
30687W        W46156  11.729  10.807   1.378 -0.1080  0.1528  0.2916
30688W        W46157  16.214   3.172   0.617  0.3440  0.1677 -0.0136
30689W        W46158   9.791   0.621  13.770 -0.2718 -0.0786  0.1701
30690W        W46159   7.303  17.689  11.790  0.0273 -0.3983 -0.2106
30691W        W46160   5.824   7.745  11.418  0.2112  0.0552 -0.0242
30692W        W46161   8.778   1.044   3.431 -0.1119 -0.0642 -0.2131
30693W        W46162  16.556   9.853   4.681  0.0291 -0.0686 -0.1634
30694W        W46163   4.839  14.308  12.407 -0.2114 -0.0089 -0.1608
30695W        W46164   4.089   5.267   3.258  0.1539  0.1696 -0.0269
30696W        W46165   3.666  11.103   0.525 -0.1392  0.0570  0.2070
30697W        W46166  15.132  15.975   5.032 -0.0966 -0.3988  0.0744
30698W        W46167   0.318   2.007   2.496 -0.1959 -0.1787 -0.0980
30699W        W46168   8.522  18.315  15.241 -0.1473 -0.1219 -0.2917
30700W        W46169   9.046  17.691  11.261 -0.2614  0.0492 -0.0124
30701W        W46170  10.379   9.119  15.064 -0.0204 -0.0700 -0.0179
30702W        W46171   8.394  14.675  14.460  0.0821  0.2905 -0.1374
30703W        W46172   3.786  11.731  13.282  0.3859  0.0610 -0.0448
30704W        W46173  12.721   4.884  14.700 -0.0563  0.1693  0.3901
30705W        W46174   0.250  17.721  13.153  0.1701  0.1772  0.0378
30706W        W46175  12.998  13.302  11.173  0.0073 -0.0119 -0.0822
30707W        W46176  18.207   5.211  14.641 -0.3612  0.1282 -0.1994
30708W        W46177   3.846  18.023   1.134  0.3472  0.0190  0.0806
30709W        W46178   2.664  14.697   1.166  0.0578 -0.1587  0.2668
30710W        W46179   6.146   3.472  10.550 -0.0733 -0.1745  0.0848
30711W        W46180   5.102  11.963  11.294 -0.0486 -0.0013 -0.5454
30712W        W46181  11.094  13.765  10.588 -0.0970  0.0661  0.2013
30713W        W46182  11.702   4.207  14.827 -0.0426  0.1057 -0.3551
30714W        W46183  17.854  11.453  11.402  0.0937  0.4001 -0.0082
30715W        W46184  17.398  16.753   5.515 -0.2477 -0.2737 -0.1073
30716W        W46185   9.273   7.104   0.341  0.1754 -0.1497  0.2702
30717W        W46186   9.023   7.098  15.276  0.1218  0.3936  0.2852
30718W        W46187   9.325  14.521   1.238 -0.2098  0.2291  0.2576
30719W        W46188  12.087   8.565  12.484 -0.0672 -0.0668  0.3286
30720W        W46189   3.572  10.297   1.150 -0.4326 -0.1781  0.1111
30721W        W46190   0.444  12.844   1.399  0.1594 -0.1219  0.3153
30722W        W46191   6.315  11.581  14.692  0.1906  0.0486  0.2594
30723W        W46192  10.469  15.683  12.846 -0.1482 -0.0474  0.0657
30724W        W46193   6.605   5.515   4.748  0.4262 -0.0808 -0.2651
30725W        W46194   8.556  15.779  12.487 -0.1888  0.2091  0.0839
30726W        W46195   0.037  10.927  13.713 -0.0023  0.0533 -0.0488
30727W        W46196   8.130  12.202  12.418 -0.3737 -0.3423  0.0793
30728W        W46197   7.266   6.533   1.110 -0.1816  0.0599 -0.0772
30729W        W46198  14.656   3.589  15.723  0.0688  0.2172  0.0578
30730W        W46199  15.512   6.427  10.427 -0.2317 -0.2160 -0.2352
30731W        W46200   7.034   3.633  11.687 -0.1791  0.0363  0.0097
30732W        W46201   4.568  10.719   3.075 -0.1655 -0.3009  0.0268
30733W        W46202   2.622   3.763  12.035 -0.0183  0.0302  0.2853
30734W        W46203  18.520  14.644  11.733 -0.2915 -0.0523  0.2208
30735W        W46204   3.254  11.372   0.428 -0.2305 -0.0177 -0.1639
30736W        W46205   9.739   8.293   1.644 -0.1092  0.1247 -0.0481
30737W        W46206  15.464  17.552   2.079  0.1628  0.1910  0.0138
30738W        W46207  12.653  10.869  12.025  0.1145  0.1650  0.3978
30739W        W46208   0.516  18.431   4.421  0.0039 -0.0455  0.0308
30740W        W46209  12.486  13.432   4.904 -0.0792 -0.1260  0.0191
30741W        W46210  10.898  11.770  11.847  0.0181  0.2828  0.2053
30742W        W46211   7.311   5.535   2.170  0.2234  0.0629 -0.3140
30743W        W46212   7.456   3.421   2.836 -0.1625 -0.1423 -0.0608
30744W        W46213  13.607   7.155   1.658  0.0307 -0.3450 -0.1508
30745W        W46214  10.886  12.971  14.316 -0.0133  0.0785 -0.0543
30746W        W46215  18.333   2.951  12.349  0.0155 -0.0118  0.1375
30747W        W46216   6.288   1.888  14.645  0.0572  0.0888 -0.0978
30748W        W46217   4.666  13.657  11.103  0.0328 -0.1942  0.0170
30749W        W46218  10.849   2.638   1.522  0.3795 -0.1790  0.2283
30750W        W46219   7.329  16.335   3.219 -0.1107 -0.0225 -0.1366
30751W        W46220  13.872   7.736   5.157  0.3309  0.2480  0.1778
30752W        W46221  11.733  10.034  12.046 -0.0389  0.1201 -0.1739
30753W        W46222  14.626  16.583   2.031 -0.1602  0.1500  0.0340
30754W        W46223   4.367   4.694   5.188 -0.1621 -0.6215 -0.1088
30755W        W46224   6.268  11.514   3.546 -0.0539  0.0234 -0.0963
30756W        W46225   6.808   1.152   0.519 -0.0981 -0.1238  0.0627
30757W        W46226   2.269   9.152   4.942  0.2160 -0.2193 -0.1754
30758W        W46227   5.093   6.929  13.606 -0.0889 -0.2774  0.0821
30759W        W46228   6.372  18.523   3.724  0.1504 -0.2176  0.3312
30760W        W46229   7.883  15.296   1.705  0.1747 -0.0631  0.3117
30761W        W46230  17.393  14.888  13.570 -0.4307  0.0801 -0.0734
30762W        W46231   4.056   4.499  14.312 -0.0771 -0.1430  0.0752
30763W        W46232   7.791  18.325  13.143 -0.1200  0.4139  0.0369
30764W        W46233   1.243   7.611   2.822  0.0860  0.0637  0.1065
30765W        W46234  17.352   6.930   9.657 -0.1577 -0.1250 -0.3137
30766W        W46235   8.556   4.514  12.529 -0.1149  0.0309  0.1845
30767W        W46236  17.198  12.769  15.367  0.1885 -0.0339 -0.2119
30768W        W46237   8.166   5.987  11.760  0.0725 -0.2276 -0.1348
30769W        W46238  12.565  12.267  11.966 -0.1478  0.0060 -0.0115
30770W        W46239  18.330   9.343  10.370 -0.0038 -0.1156 -0.0805
30771W        W46240  15.491  16.776  15.258 -0.3485  0.2445 -0.2001
30772W        W46241   9.228  18.431   4.797  0.1177 -0.4048 -0.2338
30773W        W46242   0.249   5.268  13.137  0.2345  0.0458  0.0677
30774W        W46243   8.902  16.498   1.859 -0.2429  0.1078 -0.2074
30775W        W46244  15.822   0.252   4.203 -0.0148 -0.2167  0.0716
30776W        W46245   6.264   9.894  13.208 -0.0003  0.2476 -0.0629
30777W        W46246   5.010   9.834   5.186  0.1261  0.0320  0.0308
30778W        W46247   4.491  13.181   2.320  0.5054  0.0621  0.1721
30779W        W46248   0.162   3.434   1.729  0.2555 -0.0077  0.1813
30780W        W46249  13.366   0.224  10.478 -0.0409 -0.1326 -0.0567
30781W        W46250  17.574  17.390   5.517 -0.2909  0.3748  0.2638
30782W        W46251   2.246  15.277  13.745  0.0275 -0.0641 -0.1146
30783W        W46252   4.795   0.702  11.851  0.1372  0.2544  0.0409
30784W        W46253   4.483   6.280  15.611 -0.2119 -0.2290 -0.3163
30785W        W46254   6.230   0.893   1.094 -0.0164 -0.0291  0.3565
30786W        W46255   5.346   8.862   2.064 -0.4093 -0.0709  0.2885
30787W        W46256  12.875   4.480   2.592  0.0103  0.2609 -0.0387
30788W        W46257   7.574   8.691   4.935 -0.1883  0.0476 -0.0990
30789W        W46258   8.858  13.210  13.213  0.1951 -0.0624  0.0846
30790W        W46259   3.203   2.519   0.882  0.2177 -0.1158 -0.0129
30791W        W46260  16.452   9.415  14.876  0.3003 -0.3476 -0.1527
30792W        W46261   8.689  14.283  15.707 -0.1975 -0.0778  0.0118
30793W        W46262  11.032  14.967  14.068 -0.1026  0.2885 -0.0314
30794W        W46263   1.955   1.569  15.651  0.0291  0.0514 -0.0458
30795W        W46264   2.722  16.749   4.990 -0.1267  0.1139 -0.0109
30796W        W46265  15.274   5.198   1.745 -0.1306  0.1862  0.0115
30797W        W46266  18.514  12.962   0.135  0.0871  0.2585  0.2347
30798W        W46267   9.688   5.633   1.466 -0.0385  0.0352  0.1249
30799W        W46268   5.804  12.895   5.122  0.2848 -0.1835 -0.0386
30800W        W46269   8.621  18.048  13.832 -0.1791  0.0476  0.1330
30801W        W46270   7.586   2.845  11.648 -0.1065  0.1681  0.1058
30802W        W46271   3.295   3.515  15.662  0.0489 -0.0179 -0.0279
30803W        W46272   1.210  13.107   2.050 -0.2110 -0.1331 -0.1349
30804W        W46273   6.174   0.216   3.287  0.2599  0.1941  0.0006
30805W        W46274  11.147   1.177   6.160 -0.0855  0.1238  0.0572
30806W        W46275  15.993   1.212  13.984  0.2342  0.0231  0.0942
30807W        W46276  10.403  13.725   3.519 -0.3503 -0.1180  0.0275
30808W        W46277   5.405  12.285   0.490  0.1663 -0.0830 -0.3032
30809W        W46278   0.672  12.669  15.108 -0.0827 -0.1716  0.1100
30810W        W46279   4.598  14.889  14.087 -0.1341 -0.1181 -0.2059
30811W        W46280   2.796  16.436  14.688  0.1508  0.2132 -0.0584
30812W        W46281  16.661  16.211  15.340 -0.0352  0.1945 -0.0864
30813W        W46282   1.702  10.468   5.619  0.0442  0.2289 -0.2236
30814W        W46283   0.816  16.418   4.155  0.0609  0.4262  0.2745
30815W        W46284   4.105   9.821   0.722  0.2101  0.3072 -0.1001
30816W        W46285   5.146   5.240   3.287  0.0480  0.0911 -0.1805
30817W        W46286   2.356  16.994  15.432  0.2107 -0.0700  0.3104
30818W        W46287  10.961  11.926   4.500 -0.0912 -0.1654  0.0568
30819W        W46288   0.288  11.248   4.099  0.5462 -0.0634  0.1212
30820W        W46289  17.976   2.240  11.582  0.2189  0.0043  0.2549
30821W        W46290   6.305   3.349   3.512 -0.1189 -0.0915  0.0066
30822W        W46291  11.647  17.572  11.850 -0.5140  0.0381 -0.4212
30823W        W46292   6.360   9.618   2.089  0.4070 -0.2319 -0.0139
30824W        W46293  17.368   1.436   3.075  0.1263 -0.3354  0.1477
30825W        W46294   2.898  15.879  14.821 -0.1971  0.1457 -0.3104
30826W        W46295  10.904   5.537   0.223  0.0549 -0.1311 -0.0437
30827W        W46296   9.884  13.864  15.176  0.1509 -0.0445  0.1107
30828W        W46297   9.015  14.764   5.215 -0.1149 -0.3264 -0.1666
30829W        W46298   2.237  14.347  12.109 -0.5213 -0.0654 -0.0028
30830W        W46299  17.375  11.177   2.382 -0.1591 -0.0632 -0.3911
30831W        W46300   7.336   6.456   4.754  0.2478  0.0012 -0.1406
30832W        W46301  11.914  14.093  12.286  0.1753  0.2128 -0.0199
30833W        W46302  14.194  14.963   1.385  0.0966  0.2250 -0.0987
30834W        W46303   9.830  13.858   3.387  0.1103  0.0037  0.0333
30835W        W46304   4.275   8.515  14.224 -0.2718  0.0743  0.2596
30836W        W46305  18.036   9.606   3.529 -0.0970 -0.0806 -0.1627
30837W        W46306   0.105   0.534   3.958  0.0306  0.1211  0.0885
30838W        W46307  12.169   3.320   0.289  0.0935 -0.0704  0.0655
30839W        W46308  13.742  14.651   4.254  0.1295  0.0525  0.0799
30840W        W46309   2.101  17.916  11.970 -0.0578  0.2372 -0.1433
30841W        W46310  10.961  17.952  13.701 -0.0551  0.0945  0.1552
30842W        W46311   0.330   1.340   9.879  0.0075  0.0700 -0.0282
30843W        W46312  11.858   4.382  11.417  0.1649  0.2060  0.1485
30844W        W46313  15.463   1.946   0.339 -0.2744  0.0817  0.0477
30845W        W46314   5.729   4.201   4.542  0.2020 -0.1686 -0.0211
30846W        W46315  17.382  13.846   5.426  0.1621 -0.0840 -0.0065
30847W        W46316  14.156  17.301   5.149  0.1190  0.0262 -0.2963
30848W        W46317   6.060  13.008   4.062  0.0029  0.2122 -0.0933
30849W        W46318  12.974   7.275  15.154 -0.1420 -0.0987 -0.1367
30850W        W46319   3.183   4.541  15.205  0.3847  0.2274  0.2084
30851W        W46320   7.047  12.599  10.960  0.1371  0.2847  0.1492
30852W        W46321  16.868   5.275  13.865  0.1801  0.1064 -0.3853
30853W        W46322   7.960   3.552  12.635  0.0473  0.1081 -0.0630
30854W        W46323  16.278  15.201   1.187 -0.2253 -0.0441  0.0197
30855W        W46324   5.077  14.284   2.376  0.3644  0.1725  0.1434
30856W        W46325   8.550  11.121   0.039  0.2396 -0.0034 -0.2303
30857W        W46326   3.883  15.844  10.276 -0.3323 -0.0349 -0.2178
30858W        W46327  17.010   3.241  12.576  0.0457 -0.0194 -0.1012
30859W        W46328  10.835  18.339   0.204  0.3002  0.2355 -0.0447
30860W        W46329   5.999   6.461   1.774  0.1077 -0.0056 -0.0304
30861W        W46330   6.470  11.063   1.031  0.0462 -0.0102 -0.0357
30862W        W46331  16.744   5.858  10.559  0.0862  0.0906  0.1467
30863W        W46332  15.794  11.186  14.200  0.1842 -0.0308  0.0534
30864W        W46333   1.727   7.570   3.178  0.0408 -0.2672  0.1785
30865W        W46334  14.078  10.578   3.716 -0.1020  0.1356 -0.0049
30866W        W46335   2.730   2.681   0.902  0.1731  0.2770 -0.2298
30867W        W46336  11.577   7.543  11.560  0.0533  0.0325  0.1289
30868W        W46337  14.257  13.328  13.187  0.1022  0.0901 -0.0116
30869W        W46338   3.963   5.261   2.071 -0.0759 -0.1001  0.1372
30870W        W46339  17.048   5.148  11.092 -0.0025  0.2415  0.0970
30871W        W46340  17.590   1.172  12.016 -0.1058  0.2138  0.1081
30872W        W46341  12.996  13.643  14.142  0.0680  0.0377  0.1587
30873W        W46342  17.228   1.867  15.500 -0.2500 -0.0969  0.0852
30874W        W46343  17.919   2.805   1.636  0.0737  0.0631  0.1187
30875W        W46344  10.431   1.449   4.976 -0.0568  0.2205  0.0039
30876W        W46345   0.531   3.271   5.086  0.0356 -0.0180  0.2949
30877W        W46346  11.639   7.344   1.537  0.2850 -0.2718  0.3057
30878W        W46347  15.885   4.733   0.895 -0.2893 -0.0518 -0.0303
30879W        W46348  15.662   6.295   3.645 -0.0144 -0.2383 -0.0844
30880W        W46349  12.233   6.005  11.369 -0.1512 -0.1323 -0.2252
30881W        W46350  16.088   9.523   0.468  0.0140  0.0121  0.5520
30882W        W46351   1.327   2.302  11.601  0.3097  0.0970  0.4531
30883W        W46352   1.443   0.019   3.483 -0.0321  0.0796 -0.1622
30884W        W46353  13.261  17.408   2.097 -0.1188  0.0716 -0.2489
30885W        W46354   0.897   4.550   4.816 -0.1401  0.2339  0.2246
30886W        W46355  12.820   0.965  13.215  0.1259  0.2973 -0.3393
30887W        W46356  10.406   4.962   0.201 -0.2095  0.2697  0.0437
30888W        W46357   5.307  13.882  12.863  0.0383  0.1336 -0.3183
30889W        W46358  18.413  13.745  11.412  0.0717 -0.0181  0.0679
30890W        W46359   8.454   9.012   2.858 -0.3457 -0.2008  0.0840
30891W        W46360  15.128   4.043  10.847  0.0568 -0.1566  0.3196
30892W        W46361   3.714  14.378  12.191 -0.2737 -0.0771 -0.2910
30893W        W46362  11.676   8.823   5.013  0.2303  0.0361 -0.0871
30894W        W46363  14.197   7.322   5.316  0.2716 -0.2126  0.2305
30895W        W46364  12.378  15.965  12.824  0.1378  0.0672  0.1987
30896W        W46365   6.104  11.206   1.453  0.1918 -0.1456 -0.0256
30897W        W46366   1.871  16.913   4.007  0.0162 -0.1132 -0.0079
30898W        W46367  16.259   1.666  10.907 -0.0191 -0.0485  0.1782
30899W        W46368   9.001   1.752  11.113  0.3695  0.1584  0.1755
30900W        W46369   7.396  12.807   2.188  0.0297  0.1100  0.0506
30901W        W46370   2.580   4.083  10.800  0.1631  0.1784  0.2608
30902W        W46371   2.353   7.253  10.338  0.3759  0.1494  0.0059
30903W        W46372  13.340   5.072  15.728  0.0855  0.2278 -0.2352
30904W        W46373   4.178   3.287   0.101 -0.2296  0.1807 -0.2657
30905W        W46374   1.836   8.312  15.154 -0.0366 -0.0451  0.3106
30906W        W46375  16.123   7.510  11.125  0.1341  0.0396  0.1218
30907W        W46376  13.852   0.089   0.292  0.0452  0.1676 -0.4592
30908W        W46377  12.222   3.766   2.097 -0.1087  0.2210 -0.1647
30909W        W46378   9.577  16.303   2.492  0.2029 -0.0186  0.0607
30910W        W46379  14.898   5.265   4.381 -0.0928 -0.3842 -0.0596
30911W        W46380  14.328   8.519  12.619 -0.3017 -0.4185 -0.0134
30912W        W46381   8.350   7.755  14.031  0.1864  0.1658  0.1106
30913W        W46382   1.452  11.350   1.521 -0.1861 -0.0444  0.2067
30914W        W46383   7.743  13.677   4.150 -0.0819 -0.0259 -0.1380
30915W        W46384   5.550  13.598   2.507 -0.1205  0.0227 -0.0183
30916W        W46385  18.622   0.081  10.100 -0.0733  0.2621  0.0930
30917W        W46386  14.068   0.948   5.147 -0.3881  0.3425  0.1308
30918W        W46387  13.868  18.099  13.595  0.0928  0.3091  0.1326
30919W        W46388   9.617   1.348   6.165  0.1009  0.4262 -0.2134
30920W        W46389  16.230   4.235  13.476 -0.0328  0.3520  0.0914
30921W        W46390   7.123   4.100  10.653  0.0803  0.0837  0.1807
30922W        W46391  15.280   1.403  11.798  0.1554 -0.1734 -0.1504
30923W        W46392  13.144  10.678  14.279 -0.0987 -0.1245  0.1597
30924W        W46393  14.638  10.252  15.625 -0.1519 -0.0082 -0.0614
30925W        W46394   7.979   2.844   0.566 -0.1117 -0.1181 -0.1919
30926W        W46395  16.502  15.633  11.304 -0.0617 -0.1270 -0.1522
30927W        W46396  13.356  16.980  15.431 -0.0491 -0.1821  0.0385
30928W        W46397   5.593   9.059   4.559  0.2334 -0.1914 -0.2182
30929W        W46398  14.857  16.482  10.802  0.0088  0.0339 -0.0910
30930W        W46399   2.652   1.923  12.126 -0.2878 -0.4753 -0.3602
30931W        W46400  10.345  10.660  11.795  0.0439  0.0987 -0.3172
30932W        W46401   1.857  16.273  13.641  0.0455 -0.0048  0.2021
30933W        W46402   5.463   4.511   0.020 -0.1646 -0.2180  0.2002
30934W        W46403   1.361  17.624   0.679 -0.2113  0.4121  0.1855
30935W        W46404  16.759   9.663  12.568  0.1576  0.0639 -0.0380
30936W        W46405  13.892   7.909   3.083  0.1202 -0.2049  0.2615
30937W        W46406   9.722   9.839  15.380 -0.0153 -0.1436 -0.0334
30938W        W46407  16.884   6.994  13.671  0.1054 -0.2200  0.1806
30939W        W46408  16.192   2.998  13.211  0.2414  0.3281  0.0775
30940W        W46409  10.609   3.631  13.141  0.1944  0.0138  0.2045
30941W        W46410  17.453  16.322  14.073  0.1622  0.0061 -0.0999
30942W        W46411   8.109  15.064  13.500 -0.1229 -0.0045 -0.0147
30943W        W46412  13.422  11.082  12.196  0.1857 -0.2949  0.1258
30944W        W46413  13.626  17.320  13.423 -0.1160  0.0664  0.0396
30945W        W46414   2.109   6.286  10.720  0.0102 -0.2532 -0.0954
30946W        W46415  12.277   6.189  13.311 -0.1304 -0.0096 -0.0331
30947W        W46416  17.924  18.415  11.783 -0.0112  0.0389  0.0841
30948W        W46417  11.277   9.717   1.533  0.3234  0.1454 -0.0425
30949W        W46418   5.740  12.589   4.113  0.3008  0.1599  0.0844
30950W        W46419  18.114   3.129  11.955 -0.1781 -0.3234  0.3799
30951W        W46420   3.517   1.933   0.700 -0.1358 -0.1212 -0.1327
30952W        W46421   4.304   3.239   1.247  0.0922 -0.1057 -0.0726
30953W        W46422  14.660  10.370   5.166  0.1899  0.1202 -0.2332
30954W        W46423  16.657  18.490  11.166 -0.0415  0.1478  0.1774
30955W        W46424  10.555   2.890  15.399 -0.1045  0.1052 -0.1641
30956W        W46425   4.307   9.575   4.563  0.0008 -0.0308 -0.1317
30957W        W46426  11.723   0.088   4.018  0.0042  0.4060  0.1062
30958W        W46427   6.129   8.156  11.484  0.2082  0.0902 -0.0722
30959W        W46428  11.532   0.673   5.010 -0.2497 -0.1778  0.1284
30960W        W46429  15.627   7.269   2.538 -0.2197  0.1644 -0.0395
30961W        W46430   8.389  17.567  14.005 -0.0894  0.0373 -0.0491
30962W        W46431   9.584  11.321   5.670  0.0429 -0.0758 -0.3165
30963W        W46432   0.839   6.287  11.408  0.0380 -0.0686  0.0696
30964W        W46433  13.507  14.694   3.199  0.2866  0.0468 -0.2325
30965W        W46434   3.091  16.409  15.709 -0.0099  0.3575 -0.0852
30966W        W46435  13.273   2.535  11.820  0.2335 -0.0097  0.0268
30967W        W46436   2.857  12.172  11.104  0.1871  0.1172  0.1510
30968W        W46437  14.488   5.395  13.091  0.1969 -0.0712 -0.0616
30969W        W46438   7.128   9.569  12.250 -0.0091  0.2101  0.0797
30970W        W46439   1.422   6.900   3.305 -0.0159  0.0834  0.0628
30971W        W46440   4.270   6.615  14.603  0.1966 -0.4717  0.0029
30972W        W46441   2.684   2.608   1.863 -0.2513 -0.2334 -0.1216
30973W        W46442  16.470  15.954   1.603  0.1182  0.1415 -0.1457
30974W        W46443   9.511   0.428   4.695  0.0038  0.1209  0.3107
30975W        W46444   3.308   0.368   3.579 -0.2863  0.3715 -0.0588
30976W        W46445  13.783  11.946   1.852  0.0149 -0.0278 -0.1224
30977W        W46446   2.302  11.211  15.660  0.0326  0.1819 -0.1401
30978W        W46447   5.770  13.995  13.032 -0.1456 -0.1705  0.0054
30979W        W46448  14.163  13.828  12.857  0.0867 -0.0449 -0.1105
30980W        W46449  16.647  13.833   2.602  0.3071 -0.0103  0.0559
30981W        W46450   9.549  17.237   3.485  0.2632  0.1458  0.2098
30982W        W46451  14.119   2.391   2.543  0.0622  0.0838 -0.1203
30983W        W46452  10.545   0.173   3.801  0.2622 -0.1203  0.2182
30984W        W46453   7.790  11.731   2.661 -0.0460 -0.1751  0.1231
30985W        W46454   0.329  18.067  13.505 -0.2962 -0.1638  0.2959
30986W        W46455   7.872   8.938   2.243 -0.3211  0.1399  0.1112
30987W        W46456   7.549   2.416   2.665 -0.0047  0.1929  0.0043
30988W        W46457   7.517  16.207  10.900  0.1556  0.1189 -0.3258
30989W        W46458  10.644   7.437   4.239 -0.0595  0.0020  0.1797
30990W        W46459   7.549   4.335  14.234  0.0449  0.1278  0.1495
30991W        W46460   4.486  14.756   1.813 -0.0120  0.0227 -0.2919
30992W        W46461   2.897  13.272   2.488 -0.0699 -0.0122  0.0143
30993W        W46462   3.936  15.435  12.152 -0.0086 -0.2212  0.0212
30994W        W46463   8.483   1.452  13.164  0.2308 -0.0584 -0.0507
30995W        W46464   5.926  12.916  14.427  0.2800 -0.0609  0.0466
30996W        W46465   4.854  15.423  13.197 -0.2064 -0.2564 -0.1894
30997W        W46466  12.079   9.989   2.283  0.1796 -0.2751  0.2238
30998W        W46467   8.820   3.758   1.291  0.0390 -0.0029 -0.0435
30999W        W46468   6.726   3.100   3.426  0.0978 -0.0747  0.0672
31000W        W46469   2.111   1.814  10.646 -0.1048 -0.0869  0.1343
31001W        W46470  17.620   6.406   0.351  0.0606 -0.2718 -0.1285
31002W        W46471  18.595  16.442  10.835 -0.1503 -0.2247 -0.3672
31003W        W46472  11.400  11.680   4.258 -0.0059 -0.0536 -0.0216
31004W        W46473   9.974   6.186  13.405  0.2450  0.2185 -0.2778
31005W        W46474   6.282   1.565   1.790 -0.2595  0.1344  0.1340
31006W        W46475  13.496  12.480   4.082  0.4173 -0.2210 -0.1870
31007W        W46476   6.774   3.781   1.969  0.1800  0.1487  0.0340
31008W        W46477   0.861  12.422  14.716 -0.1714  0.3490  0.0033
31009W        W46478  16.292   0.047   1.496  0.0744 -0.0945 -0.3641
31010W        W46479  18.059  14.311   1.785 -0.3404 -0.0501  0.1612
31011W        W46480   2.915   1.535   0.045  0.3997  0.1773 -0.1077
31012W        W46481   8.983   1.868   3.590  0.0492 -0.1229  0.1370
31013W        W46482  13.123  11.670  13.623  0.1755 -0.0921 -0.1200
31014W        W46483   8.567   1.272   5.289  0.3925  0.0857  0.1432
31015W        W46484  10.957   9.417  12.133  0.0032 -0.0697 -0.1504
31016W        W46485  13.193   0.579   5.605 -0.2857  0.0291  0.1367
31017W        W46486   0.890   3.476  10.437 -0.1888  0.2858 -0.2923
31018W        W46487   7.754   0.804  13.933  0.0280  0.0795  0.1118
31019W        W46488  14.937  16.275   4.694  0.1779  0.1604 -0.1666
31020W        W46489   5.261   3.890   3.494 -0.0918 -0.3307 -0.1162
31021W        W46490  18.519  15.283   0.993 -0.1924  0.0618 -0.1243
31022W        W46491   6.570  17.565  14.557 -0.1797 -0.1100  0.1231
31023W        W46492   7.981  12.541  10.524  0.1555  0.0955  0.4879
31024W        W46493  14.868   7.121   4.495  0.0623 -0.0563 -0.2566
31025W        W46494   8.560   4.093   3.461  0.2782 -0.1582 -0.1086
31026W        W46495  11.023  15.687   4.002 -0.0231 -0.1653  0.2596
31027W        W46496   7.298   2.079  14.190 -0.1905  0.0368 -0.1087
31028W        W46497   2.721  16.371   3.184  0.1483 -0.1684  0.2905
31029W        W46498   1.880  11.787   3.724 -0.1360 -0.0209 -0.0430
31030W        W46499   2.654   4.733  15.274 -0.0572  0.0209  0.2048
31031W        W46500   8.871   0.883   5.210 -0.1307 -0.0371 -0.1876
31032W        W46501  12.445  15.053   0.818 -0.1897  0.4893 -0.2699
31033W        W46502   2.170  14.130  11.656  0.1565 -0.0253  0.0932
31034W        W46503   9.172   1.341   1.839  0.2764 -0.1610 -0.1478
31035W        W46504  11.175  18.621   4.125 -0.0850 -0.4048  0.1868
31036W        W46505   3.501  18.621   2.265 -0.0287 -0.0577 -0.0216
31037W        W46506   0.914  14.392   0.926  0.2804  0.2822  0.1019
31038W        W46507  14.364  14.903   4.635 -0.2462  0.0800  0.1523
31039W        W46508  17.215  17.720  12.774  0.1647 -0.0329 -0.0635
31040W        W46509  17.164   1.701   1.982  0.1067  0.0793 -0.3250
31041W        W46510   4.022  13.118  10.315  0.1714 -0.0278 -0.0225
31042W        W46511  16.130   4.984   3.738  0.3098  0.2419  0.0253
31043W        W46512  17.477   2.225   2.908 -0.1832  0.1677  0.1635
31044W        W46513   7.333  14.763   4.739  0.0009  0.2633 -0.1443
31045W        W46514  17.552  15.634   0.872  0.0313  0.3460 -0.5209
31046W        W46515   5.692   9.386   2.259 -0.0210  0.0488  0.0417
31047W        W46516  14.940   9.327  11.621  0.1923  0.0141 -0.0568
31048W        W46517  15.350   1.120   2.856  0.3753  0.0246 -0.0353
31049W        W46518   0.091   8.815   4.758 -0.2213  0.2029  0.0513
31050W        W46519  13.107  17.706   1.074 -0.0494  0.0179 -0.1443
31051W        W46520   3.910  17.562   0.795 -0.4671 -0.3385 -0.2231
31052W        W46521  16.612  17.943   2.970  0.0907  0.0506  0.0223
31053W        W46522  15.355  17.148  13.959  0.0611  0.0758  0.2214
31054W        W46523   7.993  15.525  11.870 -0.2172 -0.1592 -0.0361
31055W        W46524  13.050  12.096   3.908 -0.1409 -0.0679  0.3329
31056W        W46525   7.962   9.310   3.157 -0.0618  0.0700  0.0434
31057W        W46526   5.987  18.350   0.928  0.0878 -0.1387  0.0226
31058W        W46527   6.710   3.609   0.060  0.0153  0.2559  0.1335
31059W        W46528   8.743  14.251   5.628 -0.1785  0.0432 -0.0857
31060W        W46529  15.505   4.400   0.198  0.1343  0.2298  0.1218
31061W        W46530   3.038   1.220   3.800  0.0024  0.0181  0.3636
31062W        W46531  12.137   0.512   5.182 -0.2846  0.0584  0.0179
31063W        W46532  11.787  17.936   0.013 -0.0378 -0.0602 -0.0642
31064W        W46533   7.837   6.426   1.131  0.0533  0.4237 -0.0825
31065W        W46534   7.718  15.606   1.255  0.1633  0.0967 -0.0069
31066W        W46535   2.800  13.653  14.668 -0.1901  0.1721 -0.0855
31067W        W46536  17.100   9.668   3.018 -0.0079  0.0297 -0.3363
31068W        W46537   2.463  12.178  13.458  0.1348 -0.0582  0.2287
31069W        W46538   3.888   3.069   5.854  0.1802 -0.0118  0.0520
31070W        W46539   0.368   0.317  15.058  0.3644  0.0276 -0.1399
31071W        W46540  10.236  14.022   5.057 -0.0313 -0.1825 -0.0478
31072W        W46541   7.917  16.952   4.131  0.0004 -0.2170  0.2401
31073W        W46542   2.373   0.893   1.017  0.2709  0.3503  0.0488
31074W        W46543  10.488   1.027  10.788 -0.0924  0.3449  0.4052
31075W        W46544   4.230  15.573  12.904  0.0502 -0.1574 -0.0304
31076W        W46545   7.606  12.513  15.735 -0.0573  0.1722 -0.0940
31077W        W46546  14.236   9.513  15.303  0.0905  0.0357  0.1632
31078W        W46547  13.657  16.237  11.095  0.0051  0.1048 -0.0736
31079W        W46548   7.254   2.674   5.463  0.1522 -0.2676 -0.0474
31080W        W46549  10.757  14.013   2.618 -0.5313  0.0534  0.1597
31081W        W46550   0.608   4.504   0.633 -0.0518 -0.2607 -0.0275
31082W        W46551  15.314  13.811  12.088 -0.1398  0.2786 -0.0626
31083W        W46552   9.261  17.386  13.394 -0.0043  0.0076 -0.1118
31084W        W46553  14.827   0.213   4.726  0.4252 -0.1215  0.1037
31085W        W46554   6.700  15.179  12.820  0.2266 -0.1189 -0.1974
31086W        W46555  14.347  18.561   2.364  0.0138  0.3228  0.0470
31087W        W46556  11.366  15.699  13.128 -0.0051  0.1710 -0.0181
31088W        W46557  18.371  12.589  14.660 -0.0565 -0.3459  0.0635
31089W        W46558   4.103   4.151  13.320  0.1193 -0.1893 -0.3279
31090W        W46559   7.205   2.024   2.617 -0.1920  0.0176 -0.2602
31091W        W46560   6.016  16.464  11.750 -0.0257  0.2311  0.2442
31092W        W46561   2.937  11.922   5.210 -0.0683 -0.5260  0.0678
31093W        W46562  17.524   7.692   4.819  0.4251 -0.1119 -0.0297
31094W        W46563  13.524  17.331  14.162 -0.0985  0.0073  0.1122
31095W        W46564   5.604   5.361  12.912 -0.1231 -0.1884  0.0157
31096W        W46565  10.162  12.586   1.043  0.0573  0.0786  0.1011
31097W        W46566   1.620  12.774  12.359 -0.0251  0.1342 -0.0269
31098W        W46567   7.114   0.439  14.249  0.1751  0.1711 -0.1941
31099W        W46568   6.223  11.766  10.365 -0.1166 -0.2167 -0.0103
31100W        W46569  15.322   4.801   2.036  0.1547 -0.1137  0.1624
31101W        W46570  14.207  17.388   2.577  0.0686  0.0234  0.0894
31102W        W46571  11.254   6.550  12.191 -0.0933  0.2009  0.1473
31103W        W46572  10.453   0.068  11.727 -0.0176  0.1870 -0.1178
31104W        W46573   1.934   7.681   4.141  0.0176  0.2320 -0.4252
31105W        W46574   9.849  16.368   4.778  0.0001 -0.3151 -0.0497
31106W        W46575   2.194  14.762   4.768  0.2650 -0.2427 -0.0877
31107W        W46576  16.743   7.797   3.723 -0.3673 -0.0848  0.3218
31108W        W46577  15.923  14.165   2.160  0.0722  0.1127 -0.1479
31109W        W46578   6.406  12.893   3.662 -0.0562 -0.0915  0.0034
31110W        W46579   6.113  14.205  12.666 -0.2065 -0.1352 -0.6302
31111W        W46580   9.738   9.978   5.369 -0.2577 -0.2087 -0.0460
31112W        W46581   9.104   2.796  13.708 -0.0908 -0.4218  0.0803
31113W        W46582  18.398  17.750   2.797  0.0324 -0.0923  0.1674
31114W        W46583   3.912   3.772  12.292 -0.0650 -0.0062 -0.2165
31115W        W46584  14.231   9.135   1.567 -0.0831  0.4328  0.0166
31116W        W46585   3.043  13.470   1.544 -0.0179  0.0998 -0.2999
31117W        W46586  18.299  15.681  13.735  0.1548  0.0207 -0.0512
31118W        W46587   3.716  12.939   2.298 -0.1209  0.1475 -0.3486
31119W        W46588   8.491  14.746   0.491  0.2895 -0.1126 -0.0477
31120W        W46589   3.295   0.271  12.497  0.0102  0.1179 -0.0781
31121W        W46590   5.004   2.618  15.282 -0.2791  0.0244  0.0473
31122W        W46591  11.491   9.746   2.395  0.1986 -0.0822  0.0123
31123W        W46592   3.739   0.520   1.025  0.0305 -0.0261  0.0677
31124W        W46593  17.350   5.746  12.412  0.0936  0.1479  0.1240
31125W        W46594   9.435   9.290   2.973 -0.2507  0.0775  0.2370
31126W        W46595   5.926  10.445   4.459  0.3101 -0.1776 -0.1057
31127W        W46596  13.975  12.556   2.044 -0.1696  0.0273  0.2601
31128W        W46597   5.683  13.392   4.915  0.1523  0.1180 -0.3719
31129W        W46598  11.595   0.771  15.088 -0.0196 -0.0276 -0.0886
31130W        W46599  16.110  18.351   6.108 -0.6898 -0.0031 -0.1437
31131W        W46600   8.276   3.521  13.519  0.1858  0.0803 -0.2423
31132W        W46601   5.753   4.342  12.172 -0.1552 -0.0994  0.0279
31133W        W46602   5.416   7.497   2.494 -0.0657 -0.2127  0.1537
31134W        W46603   7.970   7.590   5.502  0.1422 -0.2285 -0.0599
31135W        W46604   8.583  11.387  14.017  0.0133  0.1220  0.2149
31136W        W46605  13.517  15.034  12.936  0.0376  0.0930  0.0343
31137W        W46606  11.896  13.722  11.901  0.2712 -0.0813 -0.0063
31138W        W46607   9.795  16.064   0.181  0.0288  0.0918 -0.0127
31139W        W46608   6.362   9.255  15.168  0.0176 -0.0756 -0.2843
31140W        W46609   2.461   8.436   2.432  0.2293 -0.0626 -0.2966
31141W        W46610  11.727   7.709   2.332 -0.2245 -0.2046  0.1023
31142W        W46611   8.981  14.779   1.852 -0.1063 -0.0631 -0.0394
31143W        W46612  10.987  13.023  11.506 -0.1055  0.1268 -0.0942
31144W        W46613  13.527   1.776  15.609  0.1116  0.2150 -0.1180
31145W        W46614   3.033   8.248   0.910 -0.0108  0.1771 -0.2563
31146W        W46615  10.307   7.395  14.995  0.0870 -0.1991  0.0177
31147W        W46616  18.600  18.319   4.352  0.0337  0.0730  0.1440
31148W        W46617  13.401   7.903  14.657  0.1112 -0.0268  0.1289
31149W        W46618  11.910   5.294  12.705 -0.0570 -0.2306  0.2343
31150W        W46619   3.731  12.049   1.481  0.3272  0.3287 -0.1635
31151W        W46620  14.833  16.179  10.058 -0.1011 -0.3678  0.1921
31152W        W46621  14.481  18.176  14.907 -0.1437 -0.2155  0.1303
31153W        W46622   8.432   4.035   5.104  0.4440 -0.2984  0.0231
31154W        W46623  10.313  14.832  12.891 -0.0414  0.0088  0.4057
31155W        W46624  14.758  10.969   0.127 -0.0692 -0.2511 -0.0281
31156W        W46625   0.810   3.061  12.290 -0.0237 -0.2444  0.0214
31157W        W46626   8.626  12.224   2.948 -0.0723 -0.2711 -0.1134
31158W        W46627   4.313  13.148   1.512  0.0039  0.0092  0.1123
31159W        W46628   6.137   3.366   5.143 -0.1452  0.0018  0.1488
31160W        W46629   3.344   8.158  13.901 -0.0352  0.1168  0.0227
31161W        W46630  16.188   4.624  12.316 -0.0272  0.1209  0.0112
31162W        W46631   0.855   3.758  13.552  0.1786  0.1175  0.0372
31163W        W46632   7.372   9.374   4.428 -0.3680  0.0391 -0.0426
31164W        W46633  11.235   3.995  14.647 -0.2217 -0.3631 -0.0677
31165W        W46634   7.789  15.856  10.601  0.0776  0.2668 -0.0172
31166W        W46635   2.345  17.595   0.008 -0.0881 -0.2602 -0.1155
31167W        W46636   6.348   0.331  11.644 -0.1065  0.3089 -0.2128
31168W        W46637  18.300   3.974   3.213  0.1832 -0.4591 -0.2414
31169W        W46638  11.838  12.953  13.688 -0.2109 -0.1505 -0.2644
31170W        W46639  11.493   4.726   2.813  0.0684 -0.1542 -0.1258
31171W        W46640   8.662  12.913   4.318  0.2086  0.3850  0.0817
31172W        W46641  11.457  17.648  10.513 -0.4117 -0.1083  0.1182
31173W        W46642   0.532   3.832  14.042  0.0748 -0.1749  0.1978
31174W        W46643   8.121  18.000   3.227 -0.0435  0.4493  0.0244
31175W        W46644   5.625   4.245   1.377 -0.0000 -0.2945  0.0210
31176W        W46645  15.947  16.605  12.168 -0.0178  0.0149 -0.1116
31177W        W46646  10.928  14.594   4.341  0.0618 -0.1758 -0.0870
31178W        W46647   3.938  10.778  12.512  0.0503  0.1876 -0.0304
31179W        W46648   4.295   4.960   1.119  0.0364 -0.0387 -0.1444
31180W        W46649  18.400   9.430   3.169  0.0004 -0.2868 -0.1722
31181W        W46650   9.608   6.601  12.630 -0.1671  0.0393  0.2081
31182W        W46651  15.794  13.788  12.744  0.3603 -0.1544  0.0175
31183W        W46652  12.308  17.017  15.356 -0.1609 -0.0355  0.1315
31184W        W46653   7.918   4.829  14.884 -0.0713 -0.0338  0.0663
31185W        W46654   0.407   1.674   5.399  0.5433 -0.0943  0.0135
31186W        W46655  18.343  12.905   5.678  0.0156  0.0168 -0.2607
31187W        W46656   1.600  18.438   4.533  0.1382  0.0501 -0.3275
31188W        W46657  17.816  18.382  12.654 -0.2955  0.3384  0.1682
31189W        W46658   5.785  14.841  13.247 -0.0261 -0.0284 -0.1175
31190W        W46659  18.577   1.166  12.880 -0.2199 -0.0978 -0.1534
31191W        W46660   5.995  14.326   3.403 -0.0921 -0.0484 -0.1188
31192W        W46661  17.331   4.186   0.997 -0.3396 -0.0464 -0.0622
31193W        W46662  17.779   6.570  13.252 -0.1904  0.2326  0.2110
31194W        W46663   4.748   5.028  12.884 -0.0467 -0.1423 -0.1173
31195W        W46664  17.795   1.239  11.507  0.2076 -0.1762  0.0379
31196W        W46665  16.510  16.647  15.444 -0.0971 -0.0250  0.3254
31197W        W46666   9.169  14.582   4.382 -0.4417  0.2763  0.1162
31198W        W46667  12.391   0.854   3.126 -0.2780  0.0475  0.1800
31199W        W46668  10.467   9.442   1.912  0.0839 -0.1267  0.1512
31200W        W46669   9.532   3.061  10.713 -0.0680  0.1939 -0.0684
31201W        W46670   3.141   4.088  14.541 -0.1573 -0.0170  0.0598
31202W        W46671  11.110   5.731  14.615  0.2474  0.0709  0.0987
31203W        W46672   6.641   9.772   1.267  0.1494 -0.0332 -0.2225
31204W        W46673  16.489   2.090  13.561  0.0003 -0.2948 -0.1195
31205W        W46674   1.339  11.147  11.354  0.0693 -0.0574  0.1047
31206W        W46675   0.241  15.846   0.214  0.2366  0.1336  0.2938
31207W        W46676   5.715   1.701   3.138  0.1255 -0.1629  0.1756
31208W        W46677   7.157   9.622  13.416 -0.2488  0.1495 -0.3670
31209W        W46678   1.761  16.394   4.005  0.3383  0.1543 -0.0999
31210W        W46679   4.036  10.197   1.049 -0.0137  0.1206 -0.0862
31211W        W46680  10.881  15.953  12.999  0.1710 -0.3206 -0.0176
31212W        W46681   8.967   3.068   0.523 -0.1535  0.1861  0.0111
31213W        W46682   2.572  10.653   0.799 -0.1682  0.1335 -0.0231
31214W        W46683   0.931  11.292   1.519  0.0821  0.0401 -0.2238
31215W        W46684   3.257   5.425   9.684  0.3079 -0.1512  0.0978
31216W        W46685  10.147   0.709  14.860 -0.0516 -0.0331  0.3459
31217W        W46686   5.732  16.825   6.077  0.2411  0.0018  0.2196
31218W        W46687  11.714   8.257   1.769  0.0527  0.0324 -0.0680
31219W        W46688  18.052  13.441  14.578  0.1474 -0.1245  0.1206
31220W        W46689   0.185   1.962  10.634  0.0270  0.1250 -0.5743
31221W        W46690  17.679  10.311   1.447 -0.1270  0.0330 -0.0195
31222W        W46691   9.656  10.205   4.483 -0.1804  0.1813  0.0385
31223W        W46692  17.065   6.164  11.997  0.0296 -0.1011 -0.1648
31224W        W46693   7.553  12.737   1.745  0.0324  0.0854 -0.0100
31225W        W46694  11.491  13.248   4.044  0.0102  0.0012  0.1274
31226W        W46695   7.168   8.053   0.880 -0.1513 -0.1586 -0.0675
31227W        W46696   1.077   1.971   4.201 -0.2322 -0.2593  0.0801
31228W        W46697  13.389   2.667  14.526 -0.0800 -0.2430  0.0337
31229W        W46698   2.493  12.673  13.490  0.0115  0.3581  0.3922
31230W        W46699   8.527  17.431  13.060 -0.0192 -0.1109 -0.2185
31231W        W46700  13.194  10.844  15.199 -0.1143  0.1182  0.2738
31232W        W46701   1.345  15.733   2.340 -0.1898  0.1502 -0.0070
31233W        W46702   3.459  16.503   1.480 -0.1069 -0.2252  0.1244
31234W        W46703   5.681   6.834   2.558  0.0590 -0.0613  0.1842
31235W        W46704  10.624   4.348  11.764  0.1189 -0.0111 -0.2110
31236W        W46705   2.673   3.310   0.440  0.1987  0.2106  0.4047
31237W        W46706  14.763   2.736   1.236 -0.2581 -0.4636  0.1508
31238W        W46707   0.361   0.302  11.567  0.0244  0.0974  0.2416
31239W        W46708  15.958  13.543   3.848  0.2276  0.3510  0.2138
31240W        W46709   2.207  12.339   9.613 -0.0455  0.1725  0.1338
31241W        W46710  18.014   9.561   5.241  0.0971  0.0065  0.0551
31242W        W46711   7.367   8.716  11.943  0.0358 -0.1820  0.2562
31243W        W46712   7.976   4.386   4.384 -0.2244  0.1524 -0.1518
31244W        W46713   6.430  12.738   2.783  0.1302  0.1396 -0.2565
31245W        W46714  15.215   4.295   0.691 -0.1150 -0.2294 -0.0784
31246W        W46715  17.692  14.941  12.361  0.1338  0.0990 -0.2207
31247W        W46716  15.048  10.162   4.284 -0.1264  0.0664  0.0823
31248W        W46717   6.944   6.972   3.623 -0.2581  0.0417  0.0206
31249W        W46718   0.965  14.903   0.834 -0.4785  0.1633  0.0500
31250W        W46719   1.073   8.583   2.482 -0.1971 -0.0636  0.0327
31251W        W46720  14.350   2.611  11.085 -0.1233 -0.1923  0.1190
31252W        W46721   4.452  11.624  14.637  0.3511 -0.3828 -0.0682
31253W        W46722   1.562   8.978  15.691  0.3861 -0.5516 -0.1010
31254W        W46723  17.150   4.545   3.838  0.1828 -0.1080  0.2282
31255W        W46724   2.220   2.874   1.856 -0.0389 -0.1606 -0.0481
31256W        W46725  15.764  17.947  14.734  0.1583 -0.1133  0.0831
31257W        W46726  16.480   6.462  14.393  0.1315  0.2101  0.0612
31258W        W46727   7.787  12.830   1.292 -0.0024 -0.2689 -0.0548
31259W        W46728   9.314   9.285   2.360 -0.0101  0.1700 -0.2468
31260W        W46729  12.373   0.678  10.660 -0.0697  0.3124 -0.0862
31261W        W46730  16.373  15.972  12.807 -0.1087 -0.4060 -0.2194
31262W        W46731   5.233  13.862  12.189 -0.2560 -0.1872  0.1050
31263W        W46732  17.890  14.813  10.905  0.2352  0.2123 -0.1332
31264W        W46733  10.825  17.423  12.101  0.0576 -0.2297  0.0565
31265W        W46734  14.883   9.306  12.141  0.5154 -0.2162  0.1131
31266W        W46735   8.876  11.636  11.363 -0.0778 -0.1011 -0.0499
31267W        W46736  10.917  10.888  10.636 -0.0453  0.2116 -0.0274
31268W        W46737  16.190   1.895  15.644 -0.1028  0.0443  0.1481
31269W        W46738   4.329   4.022  12.252  0.3483  0.1089  0.1212
31270W        W46739  11.375   3.454  14.558 -0.0097 -0.2402 -0.5284
31271W        W46740   5.635  15.196  14.990  0.1990 -0.1248  0.1691
31272W        W46741   3.557   8.202  11.337 -0.0199 -0.0628 -0.2037
31273W        W46742   6.956   6.090   1.814 -0.0764  0.0967  0.1814
31274W        W46743   1.831   5.502   0.735  0.1053  0.2784 -0.2725
31275W        W46744  10.465  12.937   2.823 -0.0120  0.0856  0.0979
31276W        W46745   9.684  10.152  14.560 -0.1095  0.2819  0.0557
31277W        W46746  17.775   6.559   9.606  0.1231 -0.0841 -0.4677
31278W        W46747  10.199  15.444   0.402  0.0194  0.0489  0.1372
31279W        W46748   2.000   6.749   1.351 -0.3320 -0.0198  0.1024
31280W        W46749   4.783  13.064  12.976 -0.3001 -0.3774 -0.0867
31281W        W46750   8.790  11.625   0.178 -0.0295  0.0589  0.0705
31282W        W46751   9.031  11.933  13.088  0.0066 -0.1608 -0.1324
31283W        W46752   5.905   5.822   3.058 -0.0997 -0.2113 -0.1753
31284W        W46753  15.952   0.217  13.634 -0.2072  0.0112  0.1056
31285W        W46754   4.270  15.862   3.240  0.0996 -0.1466  0.0035
31286W        W46755  17.909   6.222   1.044  0.1658 -0.1777  0.0779
31287W        W46756   0.280  16.360   0.182  0.3491 -0.0395  0.1716
31288W        W46757  10.981   3.866  15.391  0.1047 -0.1357  0.0414
31289W        W46758  12.442  17.010  12.643 -0.2070  0.1065  0.0694
31290W        W46759  10.950  15.488   3.235  0.0986  0.1012  0.3381
31291W        W46760   9.107   3.761  13.955  0.2641 -0.0677 -0.0489
31292W        W46761   7.004   2.132   3.435  0.2379  0.1876 -0.1533
31293W        W46762   7.414  15.385   1.641 -0.1885  0.3655 -0.2197
31294W        W46763   4.325   6.926   0.075 -0.1016  0.1192  0.0563
31295W        W46764   5.335   2.493   0.916  0.1882 -0.0788  0.2642
31296W        W46765  17.682   7.546  15.746 -0.1088 -0.3613  0.2433
31297W        W46766   3.193  16.465   1.068  0.2052 -0.2107  0.2177
31298W        W46767   7.533  10.512  10.771  0.0940 -0.3203 -0.2378
31299W        W46768  10.754   6.202  14.016 -0.0629  0.1720  0.1268
31300W        W46769   8.112  18.367   1.737 -0.1778 -0.1496  0.1185
31301W        W46770   5.300  17.137  12.525  0.1568 -0.1030  0.0754
31302W        W46771  16.387   2.658   2.479  0.1851  0.1212 -0.0406
31303W        W46772  17.606   4.198   2.407  0.0986 -0.1205  0.1083
31304W        W46773  16.036  10.747   0.102 -0.0634 -0.0809 -0.2098
31305W        W46774   0.726   4.585   1.883  0.1637  0.1969 -0.2527
31306W        W46775   8.619  16.401   1.323  0.2053  0.0955 -0.2467
31307W        W46776  12.159   3.228   6.655 -0.1536 -0.0516 -0.0182
31308W        W46777  14.398  13.301  12.530 -0.0980  0.1696 -0.2292
31309W        W46778   7.298  18.463   5.241 -0.0170 -0.2283  0.1603
31310W        W46779   4.247   0.794  13.481  0.3073 -0.2988 -0.0472
31311W        W46780   7.554  17.934  15.422 -0.0764 -0.2999  0.2446
31312W        W46781   0.631  15.980   2.555  0.1498 -0.1423  0.0918
31313W        W46782   7.111  10.562  13.035  0.1474 -0.2352 -0.0757
31314W        W46783   9.737   1.434  14.184  0.3336 -0.0799  0.0863
31315W        W46784  17.545   5.974   4.078  0.0593  0.0378  0.1380
31316W        W46785  12.204   1.516  13.004  0.1624  0.1153  0.3753
31317W        W46786  16.464  14.649   5.047 -0.1505  0.0083 -0.0468
31318W        W46787  10.684   9.482  15.214  0.0253  0.4395  0.0638
31319W        W46788  11.043  15.414   2.212 -0.1303 -0.1469 -0.1445
31320W        W46789  16.640   5.512   3.069 -0.1925 -0.1064  0.0912
31321W        W46790  17.361  17.055  13.335  0.0302  0.1536  0.0958
31322W        W46791  12.033   1.280  14.417 -0.3990  0.3072  0.2423
31323W        W46792   8.920   0.458   2.617  0.1781  0.0942 -0.0369
31324W        W46793   7.160  18.011  12.319  0.1523 -0.1085 -0.0937
31325W        W46794  18.551  17.710  12.719  0.0655 -0.0983 -0.2164
31326W        W46795   3.145   6.080  14.487 -0.1093 -0.1613 -0.1523
31327W        W46796  18.144  11.223   5.284 -0.3314  0.1360 -0.1194
31328W        W46797   8.242   2.637  13.118  0.1664  0.0262  0.2628
31329W        W46798  14.352   7.630  13.367 -0.1815 -0.2710  0.0275
31330W        W46799   5.937   1.558  14.944 -0.1545 -0.3265  0.0290
31331W        W46800   3.076   2.583  13.733 -0.2683 -0.1821 -0.0016
31332W        W46801   6.324  13.329   1.716  0.1152 -0.1656 -0.0117
31333W        W46802   1.527   4.762  15.316 -0.3659 -0.2188 -0.1331
31334W        W46803  16.159   5.007  14.934 -0.2383  0.1084 -0.1258
31335W        W46804   4.380   7.114   9.616 -0.4316  0.2115  0.0575
31336W        W46805   5.713  10.856  11.028 -0.0293  0.3263 -0.2212
31337W        W46806   4.844  13.509   3.200 -0.1893  0.0805  0.2893
31338W        W46807  16.439   7.778  15.357  0.0378 -0.0368 -0.2615
31339W        W46808  18.091  12.585   1.143  0.1869 -0.0928  0.0113
31340W        W46809  12.222  11.578  12.689 -0.1017  0.4437 -0.2304
31341W        W46810   8.916  13.062  15.505 -0.0627 -0.1531 -0.3411
31342W        W46811   5.171  11.185   5.678 -0.1567 -0.2349  0.3354
31343W        W46812   4.895   6.844   3.640  0.0749 -0.1599  0.0393
31344W        W46813  18.003   3.194  14.858  0.1657  0.0613 -0.1201
31345W        W46814   2.207   7.640   4.907 -0.0630 -0.0034  0.2716
31346W        W46815   3.727   9.788   1.016 -0.1490 -0.1576 -0.0450
31347W        W46816  10.209   8.952   2.061 -0.0548 -0.4090  0.0692
31348W        W46817  15.246   1.981  12.817 -0.4178 -0.1083 -0.0656
31349W        W46818  16.179   8.892  12.557 -0.1881  0.2359 -0.5810
31350W        W46819   4.391  15.078   3.702 -0.1754 -0.2960  0.0986
31351W        W46820   8.866   7.798  13.915 -0.2168 -0.2533  0.1334
31352W        W46821  16.639   4.090   1.556 -0.0526 -0.1402 -0.1068
31353W        W46822   6.864   0.220  13.007  0.1353 -0.1594 -0.1435
31354W        W46823  14.610   6.021  10.067  0.1151  0.5316 -0.1056
31355W        W46824   4.747  16.574   2.034  0.5136  0.1186  0.0645
31356W        W46825   5.214   7.690   0.825  0.0819  0.2032  0.1371
31357W        W46826   0.950   0.104   5.232  0.0706  0.1546  0.1058
31358W        W46827  13.843  13.200  11.355  0.2123 -0.0497  0.0180
31359W        W46828   2.489  13.201  11.583 -0.0677 -0.0263  0.1829
31360W        W46829  14.565  14.425  11.697 -0.0901  0.3066 -0.1517
31361W        W46830  12.970  15.509   2.445 -0.0028 -0.2188  0.1693
31362W        W46831   5.693   0.953   0.335 -0.0939  0.0107  0.4126
31363W        W46832  16.350   9.178  11.934 -0.0284 -0.1379  0.2167
31364W        W46833  12.485  13.271   4.332  0.2511 -0.1200  0.0455
31365W        W46834  12.225   7.397   3.150 -0.0243  0.2127  0.1801
31366W        W46835   1.187   9.999   0.839 -0.3195  0.0358 -0.3753
31367W        W46836  17.624  16.407   3.007 -0.1186  0.0114  0.1848
31368W        W46837   1.379  16.837   4.176  0.2239 -0.0614  0.1088
31369W        W46838   6.335   1.570   1.304  0.1209 -0.0563  0.1890
31370W        W46839  13.338  17.190   3.105  0.0909 -0.1591  0.3894
31371W        W46840   9.801  11.153  15.082  0.1297  0.1275 -0.0690
31372W        W46841  15.825   7.751  10.229  0.3507  0.2362  0.0365
31373W        W46842  18.081  16.844   1.282  0.0871 -0.1090 -0.0528
31374W        W46843  15.210  15.140  11.251 -0.0889  0.1094  0.0020
31375W        W46844   9.999  10.384   9.968 -0.0750 -0.0685 -0.1780
31376W        W46845  12.485   1.115   2.706  0.0155 -0.2422  0.2127
31377W        W46846   8.732  11.166   4.473  0.1101 -0.0092 -0.0894
31378W        W46847  15.339   9.664   3.529 -0.0065  0.3416  0.1305
31379W        W46848  17.621   5.075   0.031 -0.1060 -0.1172 -0.1785
31380W        W46849  14.926   0.521  15.074  0.0476  0.0396 -0.1768
31381W        W46850   1.178   9.127   2.511  0.0606 -0.2510 -0.2263
31382W        W46851   6.117   4.056   5.374  0.2146 -0.3822  0.0594
31383W        W46852   6.447  17.935   2.146  0.0084 -0.0545  0.3537
31384W        W46853   7.467   1.543   5.993  0.2019  0.2319  0.1439
31385W        W46854  16.729  13.079  12.280 -0.2247 -0.0478 -0.1793
31386W        W46855  12.454  12.511   0.988  0.2499  0.1206 -0.1937
31387W        W46856  16.975   5.035  14.463  0.1157  0.1454 -0.1592
31388W        W46857  11.673  11.816   5.146 -0.1933  0.2864  0.0124
31389W        W46858  16.035  13.541  12.033 -0.3439 -0.0454  0.1578
31390W        W46859   9.933   2.162   5.807  0.0524  0.0441 -0.0248
31391W        W46860   6.124  17.511   3.934  0.3256 -0.0399 -0.2800
31392W        W46861   1.705   5.022  14.919  0.1482  0.2278 -0.1508
31393W        W46862  17.238   4.531   2.300 -0.0296  0.3307 -0.1227
31394W        W46863  17.194  15.076   4.038  0.0686  0.2990 -0.0493
31395W        W46864   8.519  15.480  14.333  0.4898 -0.2697  0.1774
31396W        W46865   1.186  15.733  14.927  0.0792  0.2195  0.5545
31397W        W46866   2.305   8.514  10.817  0.0699  0.0933 -0.3006
31398W        W46867  18.138  13.317   0.621 -0.0993 -0.1702 -0.1735
31399W        W46868  11.635  10.226   4.209 -0.3556  0.0288  0.3043
31400W        W46869  16.086   4.383   1.173 -0.0702  0.1111 -0.0631
31401W        W46870  17.056  15.026   2.437 -0.1576 -0.1306  0.2051
31402W        W46871   7.992   7.951   5.917  0.2915 -0.3475  0.0228
31403W        W46872   5.966  15.350  10.655  0.5118  0.0870  0.0233
31404W        W46873  13.754   4.105   4.370 -0.2881  0.0759 -0.0928
31405W        W46874  14.089   8.047   9.896 -0.0143  0.1539  0.1972
31406W        W46875  18.467   1.280  12.122 -0.1069 -0.1473  0.1743
31407W        W46876  15.571   2.065  15.491 -0.0798 -0.2199  0.1447
31408W        W46877   1.730   7.855  11.963 -0.3600  0.0967  0.0162
31409W        W46878   3.944   8.090  11.036 -0.2875 -0.1652  0.0474
31410W        W46879  17.546   0.197  12.626 -0.4190  0.0301  0.0181
31411W        W46880   6.135  17.201  13.532  0.0783  0.1655  0.5646
31412W        W46881   6.868   8.139  11.417  0.1464 -0.0554 -0.1091
31413W        W46882  17.786   7.986  10.495 -0.0622  0.1683  0.2910
31414W        W46883   0.533  16.882   2.295  0.0052 -0.2291  0.2624
31415W        W46884  17.807  10.614   9.299 -0.0932 -0.3331 -0.1726
31416W        W46885  15.902   0.453   1.500  0.3297  0.1636  0.0123
31417W        W46886  10.440   4.303   4.382 -0.0103 -0.3080 -0.0115
31418W        W46887  17.374  11.608  11.457  0.1827 -0.0200  0.0513
31419W        W46888  13.300  18.050   3.412  0.1521 -0.2192  0.1051
31420W        W46889  16.547   2.236   5.388  0.2909  0.1147 -0.1145
31421W        W46890  17.528  15.417   1.774  0.0422 -0.1963  0.0608
31422W        W46891  18.403   1.257  14.647  0.1106 -0.0373 -0.1113
31423W        W46892  15.192   4.708  14.122  0.2422 -0.3083  0.0901
31424W        W46893   4.256   4.690  11.023 -0.0116 -0.2703  0.0665
31425W        W46894   0.719   5.163  13.992  0.1418  0.0405  0.0083
31426W        W46895   6.217   3.632   0.487 -0.2831  0.0331  0.1628
31427W        W46896   0.816  16.503  14.176  0.1497  0.1302  0.2369
31428W        W46897   7.509  12.968   4.874 -0.0346 -0.1007 -0.2024
31429W        W46898   4.661  11.674   1.751 -0.0317  0.2886 -0.0389
31430W        W46899  10.898  17.423   6.290 -0.0103 -0.0272  0.0052
31431W        W46900   8.941  16.277  13.999 -0.0887 -0.0825 -0.2822
31432W        W46901  15.513  16.732   0.418 -0.4851  0.1564 -0.1493
31433W        W46902  12.620  18.327  10.147  0.3113 -0.0082 -0.4879
31434W        W46903  12.021   3.613  11.910 -0.4213  0.1729 -0.0812
31435W        W46904   0.911   3.762   0.920 -0.1024  0.1575  0.0952
31436W        W46905   9.077   4.263   1.173 -0.1484 -0.1906  0.2765
31437W        W46906   8.139   9.495   4.732 -0.0003  0.2345  0.0369
31438W        W46907   6.532  17.186   0.471  0.0683  0.0003  0.1045
31439W        W46908   8.130   2.562  13.825 -0.0183 -0.0687  0.2040
31440W        W46909   7.656   4.250  13.709  0.1690  0.2235 -0.4466
31441W        W46910  11.830   9.696   1.446  0.1084 -0.1657 -0.0314
31442W        W46911  12.006   3.343   2.977  0.2256  0.1575  0.1680
31443W        W46912  16.369   4.890  13.139 -0.3604 -0.4023  0.3065
31444W        W46913   4.882  13.115   5.443 -0.1366  0.2120 -0.0155
31445W        W46914  10.014  18.265   4.652  0.2515 -0.1979 -0.0780
31446W        W46915  18.231   6.316   9.990  0.1945  0.0583  0.0851
31447W        W46916  13.012   6.706   0.985 -0.0971  0.1596 -0.0527
31448W        W46917   3.254   2.343  14.690 -0.1038 -0.2858 -0.0610
31449W        W46918   4.332   5.237   4.903  0.1813  0.3684  0.1488
31450W        W46919  12.609  17.622   4.049 -0.1691  0.2991 -0.3405
31451W        W46920  13.454  14.177  15.748  0.0147  0.1792 -0.1078
31452W        W46921  11.070   8.832  13.289 -0.0134  0.1118  0.1827
31453W        W46922  15.022  11.562  10.837 -0.0035  0.2851  0.2138
31454W        W46923  11.311  16.010  14.635  0.1608  0.0821 -0.2527
31455W        W46924   4.262   6.498   1.870  0.2275  0.0063  0.0435
31456W        W46925   2.157   5.808   3.672 -0.2046 -0.0698 -0.0855
31457W        W46926  15.679   3.282  10.785 -0.0062  0.1621  0.2398
31458W        W46927  15.788  15.561   3.289  0.2163 -0.0252 -0.0592
31459W        W46928  12.900  16.550  12.737  0.1210 -0.2600 -0.2218
31460W        W46929  17.208  15.658   3.334  0.0654  0.0164 -0.0999
31461W        W46930   3.133   5.598   0.804 -0.1616  0.0067  0.0036
31462W        W46931  12.963   5.330   3.016 -0.2430 -0.3988 -0.0586
31463W        W46932  18.414  14.838   4.327 -0.2133  0.0528 -0.1449
31464W        W46933  14.479   6.099   0.432 -0.3140  0.5365  0.2788
31465W        W46934   8.348   7.205   0.217 -0.2149 -0.1654  0.0851
31466W        W46935   0.598   8.405   2.042 -0.1245 -0.0550  0.1081
31467W        W46936  18.434   5.242  10.637 -0.0600 -0.3048 -0.0280
31468W        W46937  17.895   3.853  10.524  0.0072 -0.1185  0.3491
31469W        W46938  11.458   6.449  15.714  0.1673  0.1043  0.2828
31470W        W46939  14.718  12.869  14.553 -0.3218 -0.1425  0.0746
31471W        W46940  10.529   1.250  12.375 -0.0066  0.3378 -0.0906
31472W        W46941   9.343  18.427   3.249  0.1182  0.0065 -0.2650
31473W        W46942  16.232  18.508   0.096  0.0968 -0.1220 -0.3651
31474W        W46943  17.146   7.657  12.643 -0.2524 -0.0639  0.2938
31475W        W46944  10.455   4.543   3.493  0.5298  0.0549  0.2758
31476W        W46945   6.025  16.360   2.032  0.0766  0.2080 -0.2264
31477W        W46946  18.221   8.703  13.734  0.0808  0.0379  0.3248
31478W        W46947  15.843   6.866  14.892 -0.1961 -0.0019  0.1535
31479W        W46948   6.994  11.039  13.441  0.1703  0.1063  0.0491
31480W        W46949  13.936   2.142   4.256 -0.1956  0.0646  0.5305
31481W        W46950   8.473  10.182  14.133  0.2073  0.2727 -0.1234
31482W        W46951  11.948  16.336   3.799  0.0805  0.1391  0.0038
31483W        W46952  12.502   6.972   0.481 -0.1758 -0.0725  0.4794
31484W        W46953   0.057   5.175  12.585  0.1183  0.0958 -0.2269
31485W        W46954  17.520  12.255   4.681  0.1398  0.0524  0.0966
31486W        W46955  13.521  13.352  10.922  0.4736 -0.2643  0.4273
31487W        W46956  16.079  12.289  15.615  0.0083 -0.0905 -0.2605
31488W        W46957  11.592  13.204   0.890 -0.0731  0.0153  0.2534
31489W        W46958  17.404  13.245  14.371 -0.1899  0.0231  0.0689
31490W        W46959   0.212   4.186   0.641  0.1631  0.3636  0.3262
31491W        W46960  10.272   1.169   1.509 -0.0728 -0.3427 -0.1584
31492W        W46961   0.728  13.445   4.332  0.1483 -0.1664  0.1045
31493W        W46962   9.908   0.574   1.014 -0.0784 -0.2151 -0.1685
31494W        W46963   7.521   6.314  10.972 -0.2161 -0.0486  0.3727
31495W        W46964  18.011  17.774   0.288 -0.0469  0.0986  0.0549
31496W        W46965  12.432  11.923  11.577  0.0102  0.0154 -0.2525
31497W        W46966  11.445  18.321  12.703  0.2461 -0.2370 -0.1105
31498W        W46967   2.402   2.374  12.274 -0.0411 -0.0702 -0.0409
31499W        W46968  10.003  11.695   3.081 -0.1860  0.1518 -0.0220
31500W        W46969   6.652   6.428  11.505 -0.4160  0.0218 -0.0858
31501W        W46970   5.629  11.210  12.469  0.2120  0.2444 -0.0148
31502W        W46971   7.611   6.972   1.873  0.3685  0.2101  0.1699
31503W        W46972   3.443  17.108  13.657 -0.1366 -0.0858  0.3129
31504W        W46973   7.105   9.057  15.007  0.1897 -0.1658 -0.1039
31505W        W46974  10.104  13.609   1.051  0.1302 -0.0921  0.0996
31506W        W46975   4.760  11.070   0.972  0.1158  0.0595 -0.0371
31507W        W46976  10.527  12.717  15.773  0.2324  0.1408 -0.1302
31508W        W46977   5.651  10.821   4.125 -0.0937  0.0777  0.1083
31509W        W46978  12.106  13.476   3.186 -0.0738 -0.0840 -0.2144
31510W        W46979   4.233   7.129   2.932 -0.4976 -0.1164  0.0211
31511W        W46980   3.579  11.621   3.479  0.1854  0.3108  0.1074
31512W        W46981   7.582  10.077  11.051 -0.0390  0.1046 -0.3084
31513W        W46982   6.865   0.699   0.334 -0.1842 -0.3012  0.1400
31514W        W46983   8.609   1.544  14.961 -0.0494 -0.2617 -0.0234
31515W        W46984   7.440   3.815   0.009  0.0447 -0.1875  0.2332
31516W        W46985   0.305   7.512  11.141 -0.3523  0.0482  0.0056
31517W        W46986  10.868   3.878   2.821 -0.1390 -0.1611 -0.1295
31518W        W46987   7.600  14.383   5.620 -0.0433 -0.4047 -0.2003
31519W        W46988  16.414   0.901  14.170 -0.0027 -0.1268  0.0355
31520W        W46989   5.587  11.063   2.792  0.3805  0.0127 -0.0229
31521W        W46990  11.820  15.944   3.495 -0.2161  0.0393 -0.1699
31522W        W46991   2.033  17.432  14.697  0.0770  0.1562  0.1124
31523W        W46992   9.267   0.360   3.212 -0.2028  0.2464 -0.2477
31524W        W46993  16.026   4.519   2.531 -0.0540 -0.0439  0.1586
31525W        W46994  14.310  10.826  11.843  0.3664 -0.0437  0.0560
31526W        W46995   0.490  18.230  13.031 -0.1124  0.1216 -0.2521
31527W        W46996   4.801   6.051   4.537 -0.0294  0.0126 -0.0239
31528W        W46997   9.541   0.974   1.959  0.1124  0.2053  0.1808
31529W        W46998   7.084  16.766  14.152 -0.2698  0.0394  0.2432
31530W        W46999  14.696  18.122  13.495 -0.0351 -0.0941 -0.3150
31531W        W47000   0.995   0.277  15.136  0.2145 -0.0981 -0.2203
31532W        W47001   5.304  15.875   2.374  0.0172 -0.2414  0.1619
31533W        W47002   5.865   1.054   3.820  0.0929  0.0422  0.0073
31534W        W47003   9.113   5.990  13.399 -0.0904  0.2167  0.0683
31535W        W47004  15.332   1.092   4.139  0.0924 -0.2304  0.3896
31536W        W47005   5.841  17.462   9.990  0.1007 -0.1132  0.4515
31537W        W47006   1.166  15.089   3.583 -0.1043  0.1116 -0.0914
31538W        W47007   1.968   8.987  10.820  0.0148  0.0905  0.0800
31539W        W47008   2.229   7.907  11.424  0.0972  0.2226 -0.0113
31540W        W47009   5.370  18.500  11.504  0.4023  0.2430 -0.0871
31541W        W47010  15.569   1.889  13.404 -0.2659  0.1972  0.2048
31542W        W47011   1.574  17.448  13.004 -0.1079 -0.0726 -0.1547
31543W        W47012  12.820   0.570   4.432  0.1970 -0.0337 -0.0594
31544W        W47013  10.887   0.519   0.180  0.3326  0.2336  0.2653
31545W        W47014   5.116   2.116  15.231 -0.0214 -0.1917 -0.2073
31546W        W47015   4.039  15.163  12.594 -0.0586 -0.1798  0.1586
31547W        W47016   1.441  11.896   3.398  0.2065  0.0870 -0.1418
31548W        W47017  12.236  15.238   4.430  0.1632  0.0173  0.1445
31549W        W47018  11.460  10.987   3.004  0.0652 -0.1646  0.4020
31550W        W47019  12.253   7.247   3.977  0.0591  0.0354  0.0626
31551W        W47020   1.735  13.287   2.256 -0.0369  0.1172 -0.1484
31552W        W47021  11.038  13.285  12.568 -0.0637  0.1881 -0.2859
31553W        W47022   8.216   5.555  11.349 -0.1491 -0.2447 -0.1979
31554W        W47023   7.496   6.156  12.950 -0.2436  0.2811  0.1538
31555W        W47024  14.254   4.700   3.731 -0.1397  0.2989 -0.2785
31556W        W47025  13.507  14.799   4.972  0.0150  0.0980 -0.0827
31557W        W47026  15.617   0.226   4.941  0.0690 -0.0973 -0.0761
31558W        W47027  12.376  10.337   3.374  0.2160  0.2256  0.0556
31559W        W47028   7.544   2.134   1.008  0.1541 -0.0935 -0.2397
31560W        W47029   8.094  16.208   2.424  0.4114 -0.1418  0.0387
31561W        W47030   1.668   7.891  12.497 -0.1527  0.1444 -0.1575
31562W        W47031  16.852   9.465   0.903  0.2862 -0.2539 -0.1389
31563W        W47032   8.595   4.765  15.460  0.1264  0.0062  0.0157
31564W        W47033   6.083  10.865  10.583 -0.0412 -0.3851  0.1077
31565W        W47034   0.277   0.777   1.072  0.0526 -0.3740  0.3146
31566W        W47035  14.411   1.670  10.821 -0.1938  0.0609 -0.2092
31567W        W47036  12.419  10.068  12.722  0.0848 -0.1501  0.0562
31568W        W47037  18.289  17.667   3.780 -0.0616  0.2888  0.1362
31569W        W47038   5.420  14.820  11.743  0.0527 -0.2136 -0.2203
31570W        W47039   2.774  13.436  14.127  0.1008 -0.3750  0.0600
31571W        W47040   0.881  17.024  12.072  0.1343 -0.1600  0.1856
31572W        W47041   4.223  12.231  11.565 -0.0622 -0.2671 -0.3163
31573W        W47042   8.780  14.044  14.976 -0.0617  0.0968 -0.1163
31574W        W47043  13.609   4.813   1.326  0.0968 -0.0269  0.0298
31575W        W47044  15.492  12.519  12.283  0.1795  0.2602  0.2021
31576W        W47045  15.532  11.796  12.418  0.1771 -0.0511 -0.3693
31577W        W47046   1.533   3.281  13.899 -0.0041 -0.1603  0.0094
31578W        W47047   6.509  14.805   0.253  0.2081 -0.0632 -0.0869
31579W        W47048   5.660   5.305   0.017 -0.3517  0.1291 -0.3639
31580W        W47049   0.917   1.895  15.391  0.1724  0.0572  0.1984
31581W        W47050   8.588   1.138  13.634 -0.0876  0.0297 -0.1051
31582W        W47051   6.733  11.071  11.671 -0.0310  0.0560 -0.2963
31583W        W47052   7.538  17.097   2.202  0.0119  0.4101  0.0337
31584W        W47053   4.030   4.922  13.978 -0.1787 -0.1060 -0.1238
31585W        W47054   3.470  13.472   2.429 -0.2723 -0.0032 -0.3375
31586W        W47055  17.243  14.470   1.754  0.1612  0.0028 -0.1750
31587W        W47056  12.265   0.564  12.755 -0.0161  0.2431  0.3413
31588W        W47057  16.082   0.342  11.758  0.3193 -0.1648 -0.0841
31589W        W47058   7.446   3.619   3.350 -0.0889  0.1618 -0.0621
31590W        W47059   9.425   3.443   1.235  0.2919 -0.2252 -0.1447
31591W        W47060   9.155  14.902  14.404 -0.1903  0.2114 -0.0637
31592W        W47061   8.547  17.979   4.582  0.1011  0.0660 -0.1748
31593W        W47062   6.983   6.893  11.244 -0.2270 -0.2531  0.3379
31594W        W47063   4.748   4.570  11.077 -0.3103 -0.3233  0.0588
31595W        W47064  12.821   6.138   1.265 -0.1615  0.0787 -0.1288
31596W        W47065   3.411   8.744   3.010  0.0052 -0.0980  0.0317
31597W        W47066   3.019  15.766  12.003  0.1667  0.1844 -0.3766
31598W        W47067  17.799   6.969  14.989  0.2864 -0.1007  0.3391
31599W        W47068  13.287  10.011   2.100  0.1710 -0.0623  0.0534
31600W        W47069  10.234   6.269   2.915 -0.1694  0.0314  0.0149
31601W        W47070   3.082  10.115  12.589  0.1205 -0.2250  0.1587
31602W        W47071  12.178  10.142  13.147  0.1420  0.0120 -0.1946
31603W        W47072   3.207   7.706  14.280  0.1894 -0.1354  0.1180
31604W        W47073  16.149  18.249   1.837 -0.0332 -0.3213  0.0020
31605W        W47074  14.705  18.607   1.542 -0.0808  0.1270  0.0483
31606W        W47075   0.176  16.843   4.744  0.0876 -0.3012 -0.0480
31607W        W47076   8.460   0.469   0.733  0.0065  0.0020  0.3451
31608W        W47077  10.283   6.759   1.885  0.1361 -0.1554  0.1389
31609W        W47078  18.593  11.502   1.897 -0.0432 -0.0213 -0.0080
31610W        W47079  18.286  13.647   0.196 -0.2294 -0.0569 -0.1883
31611W        W47080  10.764   0.778   4.417 -0.1467  0.0021 -0.0035
31612W        W47081   4.992  14.883   4.835 -0.0631  0.2189  0.2441
31613W        W47082   2.171   7.332  15.098  0.1558  0.2153 -0.0638
31614W        W47083   5.601  11.407   5.510  0.1281  0.2166  0.1098
31615W        W47084  14.935  17.704   0.216 -0.1698  0.0680  0.1811
31616W        W47085  13.704   9.827  13.235  0.0205 -0.3690  0.0661
31617W        W47086   5.031   9.894   2.970  0.2940  0.0566  0.3753
31618W        W47087   9.759   5.363  13.848  0.0740 -0.2848  0.1318
31619W        W47088  11.634   0.818   3.534  0.0121  0.1979  0.2588
31620W        W47089   1.240   7.521   2.126 -0.1569 -0.1516 -0.0750
31621W        W47090   0.947  16.156   4.965 -0.0267  0.1998  0.2635
31622W        W47091   2.686   6.732   4.142  0.1344  0.1472 -0.0956
31623W        W47092   6.224   1.448   3.313 -0.1750  0.0437 -0.0127
31624W        W47093  12.063   0.383  11.962  0.2391 -0.2722 -0.1024
31625W        W47094   0.590   7.802   0.776  0.1971 -0.4541 -0.3118
31626W        W47095   8.807   2.054   6.371  0.1091 -0.2019  0.0695
31627W        W47096   2.656  15.914   4.659  0.2920  0.0023  0.3746
31628W        W47097   0.155   1.052   4.734 -0.0876  0.1854 -0.0137
31629W        W47098   4.422   8.880  13.906 -0.0340  0.1861  0.1507
31630W        W47099   6.661  13.037  12.678 -0.1547 -0.1577  0.1802
31631W        W47100   2.995   8.537   1.281 -0.2951 -0.1397 -0.1746
31632W        W47101  13.434  12.246   1.997 -0.1166 -0.1581 -0.0464
31633W        W47102  17.689   3.774   3.465 -0.0346 -0.1604  0.1656
31634W        W47103  14.015  11.777  13.003 -0.1325 -0.1718  0.1310
31635W        W47104  17.805   6.525  11.388 -0.0506  0.0141  0.1695
31636W        W47105  15.674  17.739  14.288  0.0051  0.1294  0.3874
31637W        W47106   7.706   1.689  13.687 -0.1043 -0.1114  0.0260
31638W        W47107  14.351  13.120   1.367  0.0784  0.0965 -0.0450
31639W        W47108  12.108   6.559  11.416 -0.2911 -0.2956  0.1455
31640W        W47109  15.748  17.773   4.911  0.0696  0.1618 -0.1187
31641W        W47110  13.738  14.527   3.657  0.2220  0.0658 -0.0151
31642W        W47111   3.151   2.320   1.815  0.0847 -0.3910  0.3550
31643W        W47112   6.292  11.445   2.408 -0.0434 -0.2695 -0.0058
31644W        W47113   5.219  18.367  13.242  0.2825 -0.2237 -0.1395
31645W        W47114   7.640  14.935  13.309  0.0470 -0.3469  0.0097
31646W        W47115  14.161   2.886  13.203  0.1317 -0.0793  0.3421
31647W        W47116   2.952   6.234   1.142  0.2033  0.1609  0.0544
31648W        W47117   3.843   0.287   3.437  0.3001  0.2375  0.1713
31649W        W47118   8.488  10.543   3.469  0.2211  0.1433 -0.0177
31650W        W47119   4.366   5.639  13.448  0.1728  0.1874 -0.2133
31651W        W47120  12.618  11.720   3.110  0.4263  0.1802  0.2579
31652W        W47121  17.676   0.360  13.501 -0.0165  0.1156  0.3969
31653W        W47122  13.205   2.927   1.067 -0.0885 -0.3389  0.1104
31654W        W47123   1.981  12.143  15.596 -0.0073 -0.0223 -0.0976
31655W        W47124  17.416  18.603  11.890 -0.1460  0.0534  0.0504
31656W        W47125  12.707  16.033   1.765 -0.0028  0.1062 -0.0256
31657W        W47126  10.068  17.210   3.333 -0.0159 -0.0280 -0.0711
31658W        W47127  18.104  13.000   1.492 -0.0578 -0.1299  0.1209
31659W        W47128   1.230   5.265  10.135 -0.0788 -0.2757  0.1682
31660W        W47129   2.320   4.370   3.892  0.0010 -0.1196 -0.2148
31661W        W47130   7.740   3.113  14.824  0.1404 -0.3290  0.1834
31662W        W47131  13.127   0.652   2.645  0.1641 -0.1561  0.2520
31663W        W47132   0.023   2.473   0.690 -0.2161  0.2566  0.2133
31664W        W47133   1.185  13.347   4.681  0.2001  0.0327 -0.1455
31665W        W47134   6.661  11.992  12.948  0.1062  0.2117 -0.1315
31666W        W47135   5.570  18.367  14.330 -0.0652 -0.0428 -0.0977
31667W        W47136  15.349   4.601   9.673 -0.1525  0.1319  0.1707
31668W        W47137   3.478  14.904   4.730 -0.1362 -0.1567  0.2237
31669W        W47138  16.868  16.198  13.132  0.1359  0.1193  0.0332
31670W        W47139  10.796  12.467   3.874  0.2241 -0.2507  0.1879
31671W        W47140   0.505   3.453   2.610  0.0239  0.4083 -0.1064
31672W        W47141  10.681   4.622  13.217  0.2032  0.0390  0.1623
31673W        W47142  11.970  16.606   4.304  0.0341 -0.0801  0.2762
31674W        W47143   0.087  14.905   3.424  0.1283  0.4833 -0.0273
31675W        W47144   3.256   7.281  12.373 -0.2465  0.0037  0.2058
31676W        W47145   3.746   8.887  12.498 -0.1471  0.2222 -0.0711
31677W        W47146  11.300  10.952   1.140  0.0035 -0.2514 -0.0778
31678W        W47147  13.340   9.367   0.571  0.1528 -0.2157 -0.2022
31679W        W47148  11.022   6.745   4.864 -0.1192  0.1752  0.1182
31680W        W47149   4.447  14.007  14.690 -0.2048  0.1824 -0.3609
31681W        W47150  11.453  16.706   5.611 -0.1467  0.1580  0.0844
31682W        W47151   7.975  10.303   4.447  0.1645 -0.3845 -0.0572
31683W        W47152   8.957   5.064  12.633 -0.0121  0.4492  0.1050
31684W        W47153  11.702   8.113  14.292  0.3769 -0.0548  0.1340
31685W        W47154  13.013   8.356  15.483 -0.0402  0.0312 -0.3891
31686W        W47155  15.458  11.289   0.645 -0.0898  0.0152 -0.0294
31687W        W47156   1.579  15.023   4.686 -0.0603 -0.2418  0.1430
31688W        W47157   2.751  10.376  11.080  0.0782  0.1880 -0.1761
31689W        W47158  18.044   4.976   3.115 -0.2373  0.3892 -0.1669
31690W        W47159   4.243  12.945  15.071 -0.2301 -0.2130 -0.0349
31691W        W47160  10.340   1.543   0.228  0.1557  0.0242  0.2229
31692W        W47161   5.276  17.807   4.897 -0.2314  0.1463 -0.0107
31693W        W47162  18.447   1.441   4.641 -0.0293  0.3357 -0.4232
31694W        W47163  12.427   2.749  12.143 -0.0720 -0.2445  0.1018
31695W        W47164   3.426   8.148  13.224  0.0999 -0.1805  0.0968
31696W        W47165  14.441   5.420  12.600  0.0260 -0.5646  0.0244
31697W        W47166   6.466   0.221  12.197 -0.3153 -0.2170  0.2493
31698W        W47167   9.085   3.017  10.300 -0.2400  0.0462  0.1186
31699W        W47168   6.173  16.189  14.243 -0.0819  0.0153  0.0836
31700W        W47169   3.465  17.424  12.680  0.0279  0.2531  0.2993
31701W        W47170  10.983  12.375   5.486  0.3230 -0.0895 -0.2925
31702W        W47171   7.627   8.340   2.110  0.1930 -0.1847  0.1932
31703W        W47172  12.950   4.013   2.720 -0.3506  0.1063 -0.0081
31704W        W47173   8.126  13.690  11.925 -0.1350 -0.0475 -0.0805
31705W        W47174  13.733  12.152   0.058  0.0818 -0.2190  0.1648
31706W        W47175  11.134   5.367   4.500 -0.0779  0.0909  0.0021
31707W        W47176   7.142  10.152  11.952 -0.0179  0.1554 -0.0729
31708W        W47177  11.082  13.801   2.874 -0.0366  0.0179 -0.0045
31709W        W47178  16.089  17.503  11.703 -0.1573  0.4772 -0.2209
31710W        W47179  14.279   8.393   2.222 -0.1650 -0.0332 -0.0847
31711W        W47180  14.050  10.300  14.519  0.0274 -0.0450 -0.0376
31712W        W47181  10.662   6.367   6.681 -0.1652  0.1809 -0.0996
31713W        W47182  18.121  10.584  14.971 -0.0534 -0.1367 -0.2925
31714W        W47183   5.944  18.139   4.395  0.2020  0.2433  0.1082
31715W        W47184   3.537  16.232   3.651  0.0077  0.2390  0.0877
31716W        W47185   9.286   0.542  13.192  0.0215  0.1825 -0.1526
31717W        W47186   7.709   5.836   1.969 -0.1267  0.0565 -0.3033
31718W        W47187  17.918  15.606   6.130 -0.4650 -0.2031 -0.1813
31719W        W47188   4.349   1.730   0.486  0.3788  0.1708  0.0534
31720W        W47189   3.213   9.087   2.660  0.2679  0.0804  0.0784
31721W        W47190  15.294   9.777   2.410 -0.2213 -0.0191  0.2089
31722W        W47191  17.946   4.852   0.947 -0.0579 -0.2769  0.1184
31723W        W47192  12.891  16.747   1.313 -0.2453  0.2414  0.3010
31724W        W47193   5.033   4.729  14.105 -0.0376  0.0045 -0.1086
31725W        W47194  10.987  14.623   1.937 -0.1627  0.1655 -0.3043
31726W        W47195   3.579   4.027  12.056  0.1304  0.1317 -0.1022
31727W        W47196  15.408   5.683  14.044 -0.2214  0.0301 -0.3237
31728W        W47197  18.381   8.726  11.935 -0.2920 -0.0482  0.0569
31729W        W47198  16.795  17.657   5.878  0.1053 -0.0876 -0.1043
31730W        W47199   1.297   4.285  15.172  0.1064  0.0221 -0.1411
31731W        W47200  16.346   1.247   3.032  0.1138  0.0883  0.2424
31732W        W47201   7.185   5.812   4.042  0.1393 -0.0135  0.2547
31733W        W47202   8.657  17.864  12.685  0.1778 -0.1767  0.0265
31734W        W47203   9.750  11.077  12.956 -0.2652  0.1066  0.2289
31735W        W47204  10.321  17.603  10.890 -0.1405  0.0170 -0.0122
31736W        W47205   6.860   4.032  11.413 -0.1514  0.3263  0.1168
31737W        W47206  11.376  16.712   6.241  0.1663  0.1201 -0.0602
31738W        W47207   3.523  10.835  11.076 -0.0667 -0.0536  0.2397
31739W        W47208   7.712  12.174   2.904 -0.2110 -0.1243  0.0638
31740W        W47209  12.641   9.247   0.496  0.2747  0.0593  0.0596
31741W        W47210  17.053   6.013  10.024 -0.1163 -0.0005  0.2041
31742W        W47211  13.707   0.361  12.794 -0.3336 -0.0343 -0.0314
31743W        W47212  18.369  16.472  14.450 -0.0126  0.1045 -0.3450
31744W        W47213  14.501   6.392  15.326  0.1636  0.0647  0.1770
31745W        W47214   2.718   4.065   2.027 -0.0280  0.1728 -0.1807
31746W        W47215   0.993   9.871   2.016  0.0413 -0.0525  0.2193
31747W        W47216   1.733   6.972  15.477  0.1189 -0.0201 -0.1072
31748W        W47217   0.554  10.584  10.739  0.5149 -0.0804  0.0942
31749W        W47218  12.432   5.214  13.398  0.0518  0.1495  0.0065
31750W        W47219  15.002  10.680  14.981 -0.3205 -0.1170 -0.0113
31751W        W47220  11.308  13.398   1.764  0.1636 -0.0878  0.1021
31752W        W47221   2.011  16.070  15.036  0.3220  0.1818  0.0224
31753W        W47222   6.112   8.409   1.455  0.1940 -0.3165  0.2171
31754W        W47223   9.156   9.079  11.735 -0.0335 -0.0709 -0.1771
31755W        W47224   9.546   6.908   0.852  0.1497  0.1694 -0.3256
31756W        W47225   7.414   7.483   2.448  0.2504 -0.4105 -0.0790
31757W        W47226   5.904   1.121  14.426 -0.2194 -0.1357  0.6374
31758W        W47227   8.007  15.390  15.630  0.0055 -0.0942 -0.4286
31759W        W47228  14.435   9.426  11.444 -0.0846 -0.0153 -0.1191
31760W        W47229  17.717  15.196  13.429  0.1402  0.1728 -0.1976
31761W        W47230  18.191   3.164  10.557 -0.1769 -0.3158 -0.1097
31762W        W47231   5.408  16.754   1.010  0.2200  0.0903 -0.1295
31763W        W47232   5.766   4.981   2.692 -0.1641  0.0128 -0.4216
31764W        W47233  11.222   1.091  12.406 -0.1093 -0.2731 -0.0636
31765W        W47234  10.067  12.375  14.543  0.1461  0.0179  0.1458
31766W        W47235   6.426  18.076  11.510  0.0218  0.2592  0.0167
31767W        W47236  10.379   5.354  11.825  0.0290  0.2040 -0.0117
31768W        W47237  17.024   2.872   4.991  0.1268 -0.1391 -0.1660
31769W        W47238   3.054   8.598  15.366  0.1436 -0.2166 -0.3003
31770W        W47239   6.527  16.071   0.784 -0.0045  0.2651 -0.0120
31771W        W47240   3.675   4.893  10.245 -0.0585  0.0376 -0.0058
31772W        W47241  15.606  13.347   5.429  0.0453  0.1293 -0.1202
31773W        W47242   1.823  10.370   1.627 -0.1529  0.1543 -0.2128
31774W        W47243  10.293   8.897  11.401  0.1211 -0.0632  0.3417
31775W        W47244   1.035  13.858   2.377  0.2635 -0.4321  0.2697
31776W        W47245   0.733  16.152   0.084 -0.3255 -0.2094  0.0089
31777W        W47246   8.059   0.325  15.637 -0.1861  0.1216  0.2914
31778W        W47247   0.282   8.687   1.677 -0.0476  0.0425  0.0953
31779W        W47248   7.695   9.210   4.969 -0.1632  0.0887  0.1249
31780W        W47249   3.992  15.595   4.080 -0.0161  0.0568 -0.0245
31781W        W47250   2.274  18.560   2.271 -0.2345 -0.2423 -0.1262
31782W        W47251  16.951   0.293  12.174  0.2462 -0.2065 -0.1420
31783W        W47252   0.046   2.729  12.037  0.2224 -0.1755  0.1809
31784W        W47253  18.445   5.384  13.507  0.2674 -0.2612  0.0608
31785W        W47254   0.063  14.485  14.557  0.0579  0.0859 -0.0473
31786W        W47255   2.981  11.154   3.005 -0.2869  0.0687 -0.0486
31787W        W47256   7.382   9.635  13.002  0.1025 -0.0167 -0.1542
31788W        W47257  11.004   1.509   4.986 -0.0222  0.0504  0.4000
31789W        W47258   2.350   8.048  14.444  0.1373 -0.1582 -0.2463
31790W        W47259   1.604  15.213  12.428  0.0925 -0.1255 -0.1738
31791W        W47260  14.289  10.803  12.850 -0.2488 -0.1689 -0.1400
31792W        W47261   6.834   8.679  14.518  0.2408 -0.0425  0.1270
31793W        W47262  16.391  10.337   3.043  0.0486  0.1733 -0.0433
31794W        W47263   8.482  13.593  11.523  0.0406 -0.2071  0.0320
31795W        W47264  18.459   8.985   1.400  0.3893 -0.2072 -0.0225
31796W        W47265   8.800   9.221   1.667  0.4201  0.2524 -0.0821
31797W        W47266   5.893  16.417   5.882  0.0325 -0.0226  0.2913
31798W        W47267   3.603  18.239  12.229  0.2200  0.0056 -0.0594
31799W        W47268   1.563  13.795  15.702  0.0276  0.0219 -0.1561
31800W        W47269  13.772  17.763  13.084 -0.2586  0.0032  0.1796
31801W        W47270   6.047  15.611  10.267  0.0313  0.1941  0.0418
31802W        W47271   6.028  12.514   1.108  0.0988 -0.2896 -0.0166
31803W        W47272   4.310  15.980  12.556  0.0750 -0.1725 -0.1050
31804W        W47273   3.514   3.707   0.848  0.1173 -0.0116  0.2688
31805W        W47274  13.450   4.515   4.385 -0.3662 -0.1322  0.0171
31806W        W47275  11.207   8.381   2.683  0.0666  0.0994 -0.3654
31807W        W47276  13.064  10.720  10.027  0.0473  0.1167  0.0002
31808W        W47277   3.372  10.764   0.299 -0.1994 -0.1894  0.1158
31809W        W47278   6.648  16.386   4.184 -0.1071  0.2137 -0.3322
31810W        W47279   3.117   9.721   1.805  0.0728 -0.1301 -0.1809
31811W        W47280  18.609   1.853  11.588 -0.0607 -0.1442 -0.1037
31812W        W47281  16.556  13.006  15.338  0.0457  0.0535 -0.0344
31813W        W47282   7.140  11.860   3.496  0.0065  0.2949  0.1514
31814W        W47283  13.066   2.218  12.731  0.5487  0.1143 -0.2270
31815W        W47284   0.833  18.501  13.660  0.3289  0.0413  0.3022
31816W        W47285  16.596   1.260   5.443  0.1276  0.1726 -0.2008
31817W        W47286   5.633  11.660  13.121 -0.1343 -0.2203 -0.0652
31818W        W47287  18.575   3.944  13.212  0.0902  0.3316 -0.1510
31819W        W47288  17.348   7.409  14.219 -0.2277 -0.0662  0.2499
31820W        W47289  15.962   9.583   1.901 -0.0904 -0.0372  0.1539
31821W        W47290   7.955   9.760   2.938 -0.1716 -0.1466 -0.3187
31822W        W47291   8.457   5.361  13.667  0.0703 -0.0122  0.2163
31823W        W47292   8.557  17.978  11.493  0.4915 -0.0272 -0.2818
31824W        W47293  11.601   0.862   0.938 -0.0296 -0.2088 -0.1348
31825W        W47294   3.260  10.612   2.733  0.0859  0.1043  0.1317
31826W        W47295   4.939  14.598  14.710  0.0914 -0.0202  0.0109
31827W        W47296   4.206   5.580   1.782 -0.3030  0.0710  0.0501
31828W        W47297  14.771   2.923  12.666 -0.1906 -0.2303 -0.0565
31829W        W47298   9.770   2.033   2.770  0.0918 -0.1692 -0.1358
31830W        W47299  11.498   9.237   3.162  0.0144 -0.2419 -0.0554
31831W        W47300  17.815   9.699   0.844  0.2238 -0.1327  0.1155
31832W        W47301   6.773  17.683  11.221  0.4445 -0.1180  0.0973
31833W        W47302   7.760   8.717  10.546  0.1216 -0.3737  0.1822
31834W        W47303   3.932  14.846  10.436 -0.0257 -0.1655  0.0241
31835W        W47304  12.809  17.011   1.725  0.0719  0.0881  0.3271
31836W        W47305  16.723  15.881   3.561 -0.1545 -0.1525 -0.1190
31837W        W47306  18.016  15.190   2.340 -0.1857 -0.0180  0.0437
31838W        W47307  12.519   7.434  15.090  0.0567  0.2767  0.0574
31839W        W47308  12.785   2.138   5.087  0.0730  0.2103 -0.0029
31840W        W47309   1.251   4.394   4.379 -0.0935 -0.0490 -0.1711
31841W        W47310   1.140  12.646  12.134 -0.1137 -0.2550 -0.1234
31842W        W47311   1.713  18.321  13.821 -0.0785  0.0165  0.2436
31843W        W47312  14.620   3.867  11.691 -0.1577  0.2431 -0.0005
31844W        W47313   8.706   4.243   5.945 -0.0211  0.0264  0.0523
31845W        W47314  10.196  13.172  11.439  0.0376 -0.3568 -0.1004
31846W        W47315   9.810   8.882   3.246 -0.0014 -0.3431 -0.1013
31847W        W47316  14.126   2.726   1.902  0.1071 -0.1843  0.3866
31848W        W47317  14.207  16.904  10.953 -0.0161 -0.0539  0.0022
31849W        W47318   0.402   6.272  11.581  0.1294 -0.1665 -0.4467
31850W        W47319  15.358   1.111   0.395  0.1582  0.0281 -0.1860
31851W        W47320  14.317  16.600   1.458 -0.3154 -0.0378 -0.0446
31852W        W47321  10.551   0.793  11.291  0.0453  0.0817 -0.4823
31853W        W47322  14.549  14.618  13.054 -0.2086 -0.0210  0.4241
31854W        W47323   9.404  15.143   2.506  0.2079  0.1305  0.4527
31855W        W47324  18.573  12.766  15.078  0.0266 -0.0990  0.1257
31856W        W47325   2.953  11.517  13.942 -0.2396 -0.1799  0.1496
31857W        W47326   1.392  18.596   2.886 -0.3088  0.1728  0.1551
31858W        W47327  17.319   3.130   3.813 -0.3787  0.4109  0.4996
31859W        W47328  13.374  15.375  12.558 -0.0366 -0.0852 -0.3011
31860W        W47329  14.387  10.785  13.356 -0.2429  0.0250  0.1150
31861W        W47330  17.047   8.190   1.010  0.1161  0.0688 -0.1118
31862W        W47331  13.781  13.378  13.926  0.0093  0.1577 -0.0986
31863W        W47332   0.020   3.258  11.331  0.2476  0.0008 -0.0404
31864W        W47333  10.896   5.180   2.342 -0.2004 -0.0380 -0.1171
31865W        W47334  16.120  15.929  11.430  0.0288 -0.1882  0.0851
31866W        W47335  13.955  14.429   3.100 -0.0489 -0.1866 -0.1417
31867W        W47336  10.545   7.206  11.253  0.2795  0.1561  0.2956
31868W        W47337  16.636   0.485   3.755  0.1593 -0.1137  0.3209
31869W        W47338  17.385  15.272   2.735 -0.1797  0.1581 -0.2104
31870W        W47339   6.610   7.507  11.726 -0.2612 -0.0997 -0.3535
31871W        W47340   6.129   6.880  14.544 -0.0242 -0.4114  0.0886
31872W        W47341  17.422  17.685   2.764 -0.1886 -0.0119  0.1218
31873W        W47342  16.225   3.560  13.344  0.0748 -0.1706 -0.0694
31874W        W47343  10.651  12.563  14.071  0.0213  0.0079  0.2645
31875W        W47344  13.821  18.522   1.158 -0.2160 -0.2157  0.0130
31876W        W47345  15.243   8.856   1.947 -0.0425 -0.3864  0.2615
31877W        W47346   9.068   0.809   6.207  0.1104  0.1017  0.0657
31878W        W47347  17.494   0.244   2.401  0.0922 -0.0796  0.0966
31879W        W47348   6.511   3.401   1.951  0.4091  0.6164 -0.1196
31880W        W47349   6.256  10.279   3.826  0.1345  0.0995  0.2991
31881W        W47350   9.239  11.204   2.618  0.1447 -0.0359 -0.1327
31882W        W47351  14.271  11.314  11.881 -0.0273  0.2946  0.0397
31883W        W47352   4.109   2.378  13.053  0.0620  0.2395  0.1117
31884W        W47353  10.401   3.792   3.476 -0.1579 -0.4171  0.1444
31885W        W47354  17.837  10.472  14.198  0.0853 -0.0420 -0.0565
31886W        W47355   6.547  17.929   4.046 -0.1334 -0.0172 -0.1205
31887W        W47356   7.813  13.718  13.061  0.2899 -0.0050 -0.0183
31888W        W47357   4.437  11.090   3.488 -0.0181 -0.1430 -0.1407
31889W        W47358   6.804   3.823  10.971 -0.1988 -0.0080 -0.2481
31890W        W47359   1.889   7.218   4.808 -0.0142 -0.1324 -0.1504
31891W        W47360   1.487   9.010  10.118 -0.0145  0.3167 -0.1001
31892W        W47361   4.222  11.900   1.061  0.3005  0.0405  0.2079
31893W        W47362   1.259  13.023  10.827 -0.0998  0.4367 -0.3465
31894W        W47363   4.121   9.949  11.820 -0.6231  0.2017 -0.0250
31895W        W47364  16.459  14.728   4.344 -0.3514 -0.1673 -0.0686
31896W        W47365  13.862  10.996  15.644 -0.0211 -0.0383  0.1927
31897W        W47366   7.229   9.961   0.418  0.2320 -0.0936 -0.0311
31898W        W47367   8.749  15.216   2.006 -0.4592 -0.0114 -0.0078
31899W        W47368   1.736  17.902  10.709 -0.1729 -0.0340  0.1962
31900W        W47369  15.952   3.021   0.159 -0.0130  0.0381  0.2089
31901W        W47370  13.257  15.299   0.252 -0.2949  0.0731  0.3919
31902W        W47371  12.570   5.982  12.185 -0.0374 -0.0065 -0.0041
31903W        W47372  17.983  13.962  11.210  0.0341  0.1204  0.0323
31904W        W47373  17.091   1.430   0.905 -0.1499  0.0871 -0.1059
31905W        W47374   0.417   1.142  13.274 -0.0615  0.1784  0.4234
31906W        W47375  18.262  11.965  11.910 -0.1314  0.2933  0.2285
31907W        W47376  15.202  13.716   4.110 -0.0012  0.1957 -0.2750
31908W        W47377   0.000  17.920   1.256  0.0027 -0.2144  0.1054
31909W        W47378   8.219   8.493  14.899  0.0110 -0.0969 -0.1662
31910W        W47379   5.284  12.345  13.702 -0.3080 -0.2115  0.0558
31911W        W47380  15.144  13.002  14.844 -0.1623 -0.0784  0.1888
31912W        W47381   3.858   8.500  10.711  0.1478 -0.0607 -0.1658
31913W        W47382   9.081  13.362  10.849 -0.1547 -0.0054 -0.0549
31914W        W47383   3.226  10.246  14.693 -0.2577 -0.0118  0.1803
31915W        W47384   7.915  14.446   3.028  0.1145  0.0035  0.1912
31916W        W47385   8.797   9.694   1.491 -0.0995 -0.1499 -0.1345
31917W        W47386  15.271   7.838   3.226 -0.1666 -0.0663  0.1036
31918W        W47387  18.300   8.497   4.265 -0.1408  0.0947 -0.1550
31919W        W47388  12.662   1.101  14.752  0.0892  0.1034  0.0629
31920W        W47389   5.991  12.589  13.260 -0.1379  0.0080 -0.2915
31921W        W47390   8.085  10.559  13.980 -0.1402 -0.0033  0.1739
31922W        W47391  17.528  11.813   9.997 -0.1208  0.1094  0.2104
31923W        W47392  15.235   4.751   5.693  0.1501  0.1109  0.2880
31924W        W47393  16.386   5.770   3.558 -0.0093 -0.3924 -0.1269
31925W        W47394   7.507   6.346   2.974 -0.0527 -0.2532 -0.2156
31926W        W47395  14.983   3.808  11.334  0.1702  0.0388  0.0409
31927W        W47396   9.622  10.757  11.351 -0.1372 -0.3321  0.1680
31928W        W47397  17.428  14.251   2.631  0.2052 -0.1368  0.2292
31929W        W47398   1.074  13.853  15.645 -0.0498 -0.2109 -0.1693
31930W        W47399   2.699   1.224  13.661 -0.2170  0.0068 -0.2128
31931W        W47400   4.721  12.461  14.464 -0.2768  0.0584  0.0663
31932W        W47401  11.473   4.575   3.320  0.2801  0.0156  0.1190
31933W        W47402   1.887   8.929  14.468 -0.0428 -0.0482 -0.2014
31934W        W47403   5.001   8.618   9.863  0.5389  0.0047 -0.3498
31935W        W47404   7.366   1.791   3.292  0.1609  0.0252  0.0452
31936W        W47405  16.025   4.530   9.129 -0.1118 -0.1525 -0.1724
31937W        W47406   0.425   9.218   4.964 -0.0298 -0.1453 -0.1761
31938W        W47407  15.029  17.957  11.254 -0.1260  0.2249  0.1968
31939W        W47408   0.628   9.023   3.523  0.2143 -0.1523 -0.2109
31940W        W47409   2.280   8.431   0.229  0.1448  0.3249  0.2564
31941W        W47410   8.585  16.794   0.893  0.1604 -0.0212 -0.1714
31942W        W47411  14.230   7.635   4.256 -0.0539 -0.3621 -0.1830
31943W        W47412   4.230   3.316  12.444 -0.1341 -0.1207 -0.0488
31944W        W47413  13.346  13.827  12.840 -0.2003 -0.3005 -0.3000
31945W        W47414  13.255   4.245  13.998  0.2402  0.0326 -0.2733
31946W        W47415   5.700  10.963  14.799  0.1898  0.3958 -0.0324
31947W        W47416   7.678   7.362   3.794  0.3267  0.0029  0.1589
31948W        W47417  15.194   8.035  12.897  0.2104 -0.1195 -0.0606
31949W        W47418   8.188  18.455  15.682  0.1816  0.2611  0.0577
31950W        W47419  17.356  16.420  10.953 -0.1611 -0.0399 -0.0918
31951W        W47420  14.259   1.860   0.555  0.1545  0.2639 -0.2026
31952W        W47421  18.578   0.538   0.338 -0.0169 -0.0685  0.1425
31953W        W47422   2.220   8.668  11.772 -0.1543  0.1115 -0.1169
31954W        W47423   6.535  18.274   6.542  0.4244  0.2573  0.0830
31955W        W47424   7.325  14.652  14.420 -0.0290 -0.1649 -0.0724
31956W        W47425  15.010  13.821  13.099 -0.1006  0.2826  0.0214
31957W        W47426   5.049   0.662  14.098  0.0370  0.2970  0.2280
31958W        W47427  13.765   6.162   0.652  0.1639 -0.1193  0.3048
31959W        W47428  15.969  18.165   2.995  0.0712  0.3356  0.2853
31960W        W47429  16.901  11.923  13.039  0.2405 -0.2835  0.0520
31961W        W47430   7.080   0.510   2.575 -0.4309  0.1049 -0.0105
31962W        W47431   7.398  16.782   2.936  0.2021  0.0703 -0.1874
31963W        W47432  13.354  10.166   0.910 -0.0651 -0.0519  0.0796
31964W        W47433   8.317   5.148   2.845 -0.2493 -0.2336  0.0062
31965W        W47434   6.357   6.195  13.485 -0.2519 -0.2727 -0.1309
31966W        W47435   2.980   9.333  11.703 -0.1664  0.1416 -0.2910
31967W        W47436   7.491   9.461   0.236 -0.0501 -0.2073  0.5050
31968W        W47437   4.479   4.252  10.722 -0.2336  0.0947  0.1070
31969W        W47438  13.468   3.382   5.406  0.0531  0.1568 -0.0560
31970W        W47439  14.287  11.812  11.226  0.3437 -0.5099 -0.2896
31971W        W47440   2.028   9.998   3.090  0.0106 -0.0965 -0.1987
31972W        W47441  17.978  16.438  11.507 -0.1509 -0.0428 -0.1092
31973W        W47442  13.415   6.286   0.114 -0.0011 -0.3260  0.0134
31974W        W47443   7.024   8.905  14.082 -0.2112  0.1228 -0.1543
31975W        W47444   5.850   0.134  14.532 -0.1339  0.4925  0.0580
31976W        W47445   9.232  17.787   2.963  0.0167  0.0257 -0.1824
31977W        W47446   6.771   2.355  11.840  0.0500 -0.2195  0.4694
31978W        W47447   5.956  12.158   1.575 -0.3578 -0.1973  0.1432
31979W        W47448   5.590   0.167   3.535 -0.2270  0.0340  0.0561
31980W        W47449   9.492   1.318   4.938  0.1881  0.0407  0.0313
31981W        W47450   9.705  11.261   2.091  0.0230 -0.1239  0.0909
31982W        W47451   1.442   9.237   1.022 -0.2652 -0.0524  0.2813
31983W        W47452  13.490   8.970  11.650 -0.1703 -0.0302  0.3653
31984W        W47453  18.312   3.491  15.168 -0.0961  0.0492 -0.6252
31985W        W47454  12.474  10.682   0.659 -0.1244 -0.0486 -0.0704
31986W        W47455   5.495   3.396   2.964 -0.2128 -0.0792 -0.3992
31987W        W47456  12.590   4.048   4.359 -0.0734 -0.3030 -0.0657
31988W        W47457  16.113  15.146   1.661  0.0203  0.2950 -0.3366
31989W        W47458   5.024   8.822   2.809  0.2838 -0.0405 -0.1354
31990W        W47459  15.565  17.322   4.102 -0.4487 -0.1117 -0.1028
31991W        W47460   3.635   9.951  12.093 -0.0774 -0.1128  0.2691
31992W        W47461   1.781   9.759   1.127  0.3641 -0.1895 -0.3856
31993W        W47462  11.697  15.360  13.157  0.3489 -0.1071 -0.1284
31994W        W47463  18.269   1.062   4.941  0.0249 -0.3113 -0.1330
31995W        W47464  11.153   7.818   0.212  0.0583 -0.0553  0.2539
31996W        W47465  13.549   6.566   0.928  0.2787 -0.0469  0.2012
31997W        W47466   9.332   0.607   0.327  0.1188 -0.1115  0.0421
31998W        W47467  10.846   6.446  11.918 -0.1473  0.2176  0.1483
31999W        W47468   8.518  11.855  13.185 -0.2806  0.0289  0.2939
32000W        W47469  16.729  17.741   1.731  0.0843 -0.0719  0.0928
32001W        W47470   1.363  15.374   2.703  0.0905  0.1890 -0.1576
32002W        W47471  10.307   5.784   2.117 -0.2133  0.1744  0.2556
32003W        W47472   4.258  12.679   2.958  0.0743 -0.0921 -0.0161
32004W        W47473  12.949  10.517   3.663  0.0942  0.0345  0.0879
32005W        W47474  13.103  10.767   1.133  0.2365  0.2048  0.2667
32006W        W47475  13.420   6.865   2.149 -0.0457  0.0089 -0.0696
32007W        W47476   1.441   8.393  12.775  0.0513 -0.1903 -0.1114
32008W        W47477   9.663  17.519  14.805 -0.0358 -0.2900 -0.3882
32009W        W47478   3.173   2.763  10.283 -0.0175 -0.0326 -0.0659
32010W        W47479  11.017  12.550  11.603 -0.1377 -0.0211  0.0915
32011W        W47480   5.689   8.487   1.043  0.1995  0.0638  0.0421
32012W        W47481  10.906  11.593   2.821  0.2900 -0.1711 -0.0036
32013W        W47482   7.208   7.913   0.408 -0.2508  0.3235  0.1989
32014W        W47483   3.773   5.099  12.945 -0.1423 -0.0554 -0.2165
32015W        W47484   1.651  17.793  14.688 -0.1017  0.1069 -0.0705
32016W        W47485  12.302  14.363  12.524  0.0245 -0.2809  0.1695
32017W        W47486   0.228   4.591   1.972  0.1561 -0.2415  0.0069
32018W        W47487  15.346   2.926  12.919  0.0981 -0.1640 -0.3428
32019W        W47488  13.343  15.209  14.440  0.1223  0.3357 -0.0369
32020W        W47489   0.269  14.155   4.681 -0.3959  0.1614 -0.0302
32021W        W47490   1.728  15.512  11.028  0.2196 -0.3532 -0.1920
32022W        W47491   9.110  14.143   6.084  0.0355 -0.1249  0.2979
32023W        W47492  13.368  18.100   4.626 -0.2531  0.1910  0.2798
32024W        W47493   5.700  15.411  14.429 -0.0546  0.0308 -0.0321
32025W        W47494   1.558  15.901  11.477  0.0306  0.2427  0.1123
32026W        W47495   7.506   6.666   4.307  0.1811  0.2257 -0.3309
32027W        W47496  13.865   3.796   3.056  0.0572  0.0638 -0.2948
32028W        W47497   1.256   2.114   5.877 -0.1287  0.3259 -0.1151
32029W        W47498   4.890  14.393   4.736 -0.3009 -0.1101 -0.2756
32030W        W47499   8.982  12.487  14.393 -0.1677 -0.2113  0.2298
32031W        W47500  14.170  17.769   5.312 -0.0036 -0.0716  0.0809
32032W        W47501   0.956   6.123  14.968 -0.2099 -0.2978 -0.2872
32033W        W47502  15.438   1.095  12.781 -0.2314 -0.2201 -0.4746
32034W        W47503  18.124  11.457   4.220 -0.3454 -0.2243  0.0627
32035W        W47504  12.208  14.925  14.004 -0.0467 -0.0753 -0.2202
32036W        W47505   7.140  10.382  11.148 -0.0363 -0.1102  0.0161
32037W        W47506   6.404   8.511  12.861  0.1204  0.1881 -0.3443
32038W        W47507   7.297   3.596   4.282  0.0832 -0.2216 -0.0135
32039W        W47508   1.585  12.257  13.701  0.1615  0.0845  0.0794
32040W        W47509   2.912   6.544   5.128 -0.2864 -0.0645 -0.0719
32041W        W47510  16.936  13.880   0.668 -0.2276  0.1870  0.0613
32042W        W47511   1.989   9.364   4.256 -0.2743  0.0206 -0.0603
32043W        W47512  17.783   2.533   1.134 -0.2957  0.0694 -0.0453
32044W        W47513   2.394   7.017  15.448  0.0234  0.1811  0.2726
32045W        W47514   9.083  15.730  15.697  0.3416  0.0825 -0.0338
32046W        W47515   8.501  11.470  11.647 -0.2348  0.1662  0.2652
32047W        W47516  18.355   2.908  11.564  0.0147 -0.0502 -0.1740
32048W        W47517   8.712   2.649  14.047 -0.2755 -0.2133  0.2549
32049W        W47518   9.221   1.263  12.666 -0.4335 -0.2492  0.0198
32050W        W47519   3.234  12.286  11.462 -0.1833  0.2670 -0.1671
32051W        W47520  13.830   0.060   1.643  0.1905  0.3384  0.2298
32052W        W47521  12.850  12.325   0.735  0.0941 -0.2227  0.2994
32053W        W47522  16.877  15.898   0.027 -0.1941  0.0503 -0.4515
32054W        W47523   4.464  10.007  13.254 -0.2960  0.1456  0.5749
32055W        W47524   2.007  15.908   0.227  0.0449  0.2631  0.2019
32056W        W47525  11.841   8.577  13.718  0.3189 -0.0800  0.3049
32057W        W47526   0.454   9.904   4.386 -0.1458 -0.2201  0.0091
32058W        W47527   8.249   0.391   2.182 -0.0853 -0.0033  0.2044
32059W        W47528   9.835   1.785   6.226 -0.2149  0.0049  0.0963
32060W        W47529  11.563  14.806  13.043 -0.1767  0.3793  0.3648
32061W        W47530  11.676   5.048   0.970 -0.1274  0.1497  0.3812
32062W        W47531   1.358  14.167  15.385  0.0933  0.1599  0.1998
32063W        W47532   4.867   3.040  11.963  0.0596  0.1353  0.3181
32064W        W47533  17.840   6.732   2.837  0.0016 -0.3118 -0.1543
32065W        W47534   7.661  17.157   3.066 -0.2257 -0.4222  0.2386
32066W        W47535  12.264  17.901   1.498  0.2747  0.0470  0.1437
32067W        W47536  16.604   4.790   3.173 -0.2144 -0.2320  0.1040
32068W        W47537   5.105   1.028  14.466 -0.0117  0.0622  0.0545
32069W        W47538  12.704  12.500   0.182  0.0576  0.2027 -0.2290
32070W        W47539  10.105   2.280   3.939 -0.1881 -0.0085  0.2397
32071W        W47540   3.841   6.946  10.470  0.1491 -0.3805 -0.1490
32072W        W47541   7.142   1.202  13.248 -0.0217  0.0912 -0.0423
32073W        W47542  13.191  14.509  13.584  0.1432  0.1777 -0.0513
32074W        W47543  12.296   4.902  10.088 -0.0713 -0.0903  0.3190
32075W        W47544   9.119   4.576  13.506 -0.1717 -0.0498 -0.1510
32076W        W47545   9.937   2.849  11.456 -0.2542 -0.0289 -0.1451
32077W        W47546   3.916  16.417   2.702 -0.2786 -0.2211  0.2125
32078W        W47547   1.177   3.335  10.824 -0.2657  0.0495  0.2098
32079W        W47548  16.733  16.639   3.016 -0.0638 -0.3345 -0.1274
32080W        W47549   8.958  11.008   6.047  0.2415  0.1903  0.0057
32081W        W47550   4.140   0.207   1.109  0.1134  0.1272 -0.2113
32082W        W47551  13.814  15.267  11.636 -0.3147  0.1508  0.2724
32083W        W47552  17.846  10.150  15.192 -0.0890  0.0836  0.0256
32084W        W47553   4.212   3.344   1.802  0.0001 -0.0906  0.4903
32085W        W47554   6.267   1.121   5.426  0.1349 -0.1259  0.0176
32086W        W47555  18.417   1.133   2.089 -0.0020 -0.2259  0.1254
32087W        W47556   5.435   6.286   0.868  0.1128 -0.3440 -0.1023
32088W        W47557  11.819   5.770   0.391 -0.1451  0.3486  0.2777
32089W        W47558  13.173  11.991  12.328 -0.0893  0.1201 -0.0194
32090W        W47559   9.924  13.808   9.942 -0.1494 -0.1189  0.1481
32091W        W47560   0.150  16.566  13.398 -0.1025 -0.0944  0.1252
32092W        W47561  12.028   6.563  10.135  0.3170 -0.0825 -0.0524
32093W        W47562  17.856   6.159   2.881 -0.0492 -0.1637  0.0319
32094W        W47563  14.466   7.270  11.732 -0.0732 -0.0840 -0.1461
32095W        W47564  18.175   6.434  12.917 -0.2182 -0.3758  0.4497
32096W        W47565  16.912   9.533   3.461 -0.0574  0.0209 -0.2983
32097W        W47566  13.669   6.908  14.136 -0.1061  0.3301 -0.0595
32098W        W47567   7.693   3.056   2.042  0.1222  0.0971 -0.1162
32099W        W47568   2.266   9.022   2.950  0.3942 -0.0258 -0.2711
32100W        W47569  16.580  12.543  13.557 -0.2508  0.1666 -0.0115
32101W        W47570   4.337   4.807   3.175 -0.1037  0.0910 -0.2566
32102W        W47571   9.744   7.541   2.940 -0.0321  0.1187  0.1009
32103W        W47572  16.539  12.089   1.217  0.2479  0.1329  0.4667
32104W        W47573   1.810   9.051   3.130  0.1752 -0.1854 -0.0834
32105W        W47574  12.120  10.555   4.718 -0.3475  0.0327  0.2324
32106W        W47575   3.200  13.016   2.152 -0.1362  0.1910  0.0321
32107W        W47576   0.122   7.790  14.858 -0.1115  0.0030 -0.1969
32108W        W47577  15.647  14.656  11.153 -0.0205 -0.1068 -0.0706
32109W        W47578   8.156   8.827   3.224 -0.0365 -0.2553 -0.1119
32110W        W47579   7.163   9.640  11.198  0.0047 -0.0030 -0.0542
32111W        W47580  13.758  13.642   1.872 -0.1628 -0.0099  0.0613
32112W        W47581  12.534  18.185  13.894 -0.0199  0.0060  0.2249
32113W        W47582   6.493  16.649  11.870 -0.0088 -0.0448  0.0232
32114W        W47583   6.505  10.577   5.215 -0.0203 -0.0916 -0.0727
32115W        W47584  16.634   2.380  11.294 -0.0117 -0.1291 -0.0189
32116W        W47585  15.275  18.069  12.090 -0.1748 -0.0458 -0.3752
32117W        W47586  18.611   4.693   5.290 -0.1603  0.2677 -0.1368
32118W        W47587  17.422   5.226  15.303 -0.1830 -0.1558 -0.0995
32119W        W47588   5.864  13.154  12.408  0.1834 -0.2405  0.2119
32120W        W47589   2.836   1.365   0.730 -0.0832 -0.2302 -0.0731
32121W        W47590  12.901  16.768   5.291 -0.0728  0.3237 -0.0050
32122W        W47591   2.361   7.127  11.850  0.0710 -0.2355  0.0883
32123W        W47592  10.714  15.829   2.156  0.4117  0.0646 -0.2208
32124W        W47593  17.656   3.298   3.319  0.0472 -0.2019  0.0222
32125W        W47594   1.579   4.730  11.724  0.0308  0.2864  0.2425
32126W        W47595  12.932  14.870  11.174  0.3232 -0.0383 -0.2072
32127W        W47596   4.467  17.460   4.792  0.2514 -0.1551 -0.2215
32128W        W47597   4.817   0.742   1.478  0.4019 -0.2503 -0.2395
32129W        W47598   1.326  11.249  15.425  0.0655  0.2233  0.0481
32130W        W47599  12.148   1.850   6.098 -0.0999 -0.1556 -0.2167
32131W        W47600  12.180   3.316   4.659 -0.2896  0.2670 -0.1514
32132W        W47601   1.844  14.289  11.329 -0.1438  0.1167 -0.1407
32133W        W47602  17.459   5.977   2.101 -0.0302 -0.0095 -0.0202
32134W        W47603  15.604  10.287  13.669  0.0061  0.2662  0.0887
32135W        W47604   6.170  18.298   1.987  0.0155  0.0459 -0.0807
32136W        W47605  11.907  16.659   4.902 -0.3000 -0.0444  0.2270
32137W        W47606   5.866  10.012   1.883  0.0189  0.2108 -0.1282
32138W        W47607   7.874   1.510   1.760  0.1778 -0.1574  0.1448
32139W        W47608   9.816  17.614   3.105  0.2300  0.4576 -0.1955
32140W        W47609  12.949  13.098   2.438 -0.3297 -0.3701 -0.0627
32141W        W47610  11.845  15.770  11.659  0.0167 -0.0885  0.0948
32142W        W47611   5.093   0.216  13.234 -0.0234 -0.1996  0.0885
32143W        W47612   1.955  15.690  15.426  0.1206 -0.2830 -0.1398
32144W        W47613  13.858   9.112   0.594  0.1813  0.4683  0.0892
32145W        W47614   8.641  10.450   3.928  0.0214  0.0981  0.0540
32146W        W47615   8.554   0.204  15.692  0.0894 -0.1254  0.4602
32147W        W47616  12.770   3.997   9.990 -0.1790 -0.0242  0.0586
32148W        W47617  15.790  12.652   0.219  0.0606 -0.0427 -0.0142
32149W        W47618  11.726   4.153   4.581 -0.2534 -0.1865  0.1093
32150W        W47619  16.902  15.820  13.483  0.1674  0.0585  0.2071
32151W        W47620  14.932  11.793  12.835 -0.0068 -0.0943  0.1523
32152W        W47621   5.026  13.250  10.971 -0.1817  0.0482 -0.4364
32153W        W47622  13.424  11.962   4.739 -0.0799 -0.2417 -0.4735
32154W        W47623  17.125   6.623  15.201 -0.1645  0.0141  0.0730
32155W        W47624   9.702   7.905   2.458  0.0111  0.0383  0.2419
32156W        W47625   0.543  13.318  11.970 -0.1886  0.1483  0.2398
32157W        W47626  15.681   3.344  12.210  0.0245  0.1421  0.0190
32158W        W47627   7.975  14.485   5.296  0.1194 -0.0319 -0.2369
32159W        W47628   2.324  14.939   3.558 -0.0784  0.1134 -0.3243
32160W        W47629  14.724  17.803   2.673 -0.3462 -0.0346  0.1561
32161W        W47630   5.288  14.625   4.470 -0.0693  0.3409 -0.4894
32162W        W47631  17.985  15.159   4.420  0.1076 -0.2049 -0.3777
32163W        W47632   5.403  17.776  15.670  0.2761  0.1935  0.1369
32164W        W47633  14.033  17.378  12.238 -0.2690  0.1828  0.0180
32165W        W47634  13.841   6.427  14.560  0.1054 -0.3502 -0.0403
32166W        W47635  12.534  10.353  15.601 -0.2828 -0.1316 -0.0436
32167W        W47636   2.187  12.855   1.665  0.2751  0.0020  0.1587
32168W        W47637  12.668  16.359   1.381  0.1923  0.2410  0.0757
32169W        W47638   0.997   3.534   2.701  0.2185  0.0029 -0.3476
32170W        W47639  11.633   5.561   1.398 -0.0952 -0.1552  0.0442
32171W        W47640  15.622  11.600  14.965 -0.0003  0.1066 -0.0405
32172W        W47641   5.842   6.540  14.833 -0.0655  0.0134  0.0381
32173W        W47642  16.643  11.385  14.502  0.2605  0.1432  0.0764
32174W        W47643   6.828  14.438  11.194 -0.1923  0.3948  0.0209
32175W        W47644   6.313   2.527   5.206  0.0573 -0.2182 -0.0113
32176W        W47645   0.653   6.473   4.380  0.0035 -0.0028  0.3484
32177W        W47646  15.750  13.454   1.218 -0.0246 -0.1787  0.0570
32178W        W47647  14.319   4.877  11.760  0.0973  0.2526 -0.0065
32179W        W47648  14.299   4.418  10.791 -0.0573 -0.0736  0.2446
32180W        W47649   1.798   6.722   2.985  0.3207  0.0492  0.2067
32181W        W47650   2.640  13.282  13.560  0.2172 -0.0507  0.0279
32182W        W47651  13.745   9.273   4.860 -0.3860 -0.1031 -0.0756
32183W        W47652  16.085   7.079   3.730 -0.5809 -0.2883  0.2469
32184W        W47653  13.226  16.539   3.671  0.0835  0.0972 -0.4033
32185W        W47654  11.208  12.559  15.382  0.1607 -0.2193  0.0027
32186W        W47655  16.472   8.326  14.794 -0.0995  0.2165  0.1350
32187W        W47656  11.620   7.694   1.192  0.0825 -0.0701 -0.0683
32188W        W47657  11.480   2.394   2.535 -0.0472  0.0002  0.1658
32189W        W47658   2.884  15.570   0.198 -0.1989 -0.0458 -0.1701
32190W        W47659  16.407  17.369   5.280 -0.1008  0.4058 -0.0834
32191W        W47660  10.781  17.860   4.341 -0.2277 -0.1289 -0.1409
32192W        W47661   6.483  12.329   5.930  0.2638 -0.0770 -0.1687
32193W        W47662  16.711   6.190   3.638 -0.0813 -0.2850 -0.0591
32194W        W47663   2.634   7.087   0.131 -0.2686 -0.1542 -0.2859
32195W        W47664   8.034   5.322  13.360  0.1446  0.1474 -0.0327
32196W        W47665  12.646  17.776   5.216  0.2044  0.3925  0.1447
32197W        W47666  10.916   9.240   3.763  0.3647  0.2287  0.0995
32198W        W47667  13.577  11.249  11.099  0.1081 -0.1979 -0.0769
32199W        W47668  10.391  14.521  14.476  0.2368 -0.0598  0.2205
32200W        W47669   2.598   9.985  10.868 -0.1472  0.0548 -0.2980
32201W        W47670   3.409   6.574  10.595 -0.3009  0.0122  0.3945
32202W        W47671   3.231  16.745  11.388  0.3389 -0.1855 -0.1357
32203W        W47672   6.457   5.828  11.447  0.1511  0.1222  0.0578
32204W        W47673   7.167   3.350   3.655 -0.1610  0.2543  0.1062
32205W        W47674   0.749   8.041   5.187  0.0379 -0.1047 -0.0602
32206W        W47675  11.405   4.455  10.628  0.4232  0.0823 -0.0010
32207W        W47676  18.497   3.732  14.699  0.0365  0.3119 -0.1760
32208W        W47677  18.600   6.422  15.131 -0.3411  0.0544  0.1629
32209W        W47678  12.713   9.134   2.735 -0.1338  0.2875 -0.0409
32210W        W47679  12.017  15.906  11.141  0.0997  0.4825  0.0772
32211W        W47680   9.865  16.350  13.938 -0.1676 -0.1359 -0.2193
32212W        W47681   2.399  15.574   3.652 -0.1629  0.2937  0.2563
32213W        W47682   2.404   2.105  13.371 -0.1504  0.1815 -0.0425
32214W        W47683   9.038  10.049   1.230  0.1202 -0.1115  0.0295
32215W        W47684   8.770  10.760  12.341  0.0153 -0.0313 -0.1026
32216W        W47685  15.697  18.384  15.012 -0.1143  0.0314  0.1773
32217W        W47686  10.197  15.134  11.881 -0.0876 -0.0692 -0.2147
32218W        W47687   6.345  17.503  11.464 -0.1655 -0.1258 -0.0339
32219W        W47688  12.365   9.109   2.247 -0.0826 -0.1832 -0.2391
32220W        W47689   5.567   2.118   1.238  0.0191 -0.1812  0.0929
32221W        W47690   5.837  14.994   1.470  0.0205 -0.1606 -0.0887
32222W        W47691  15.767  12.682   1.212 -0.2057  0.0696 -0.1993
32223W        W47692   2.807  16.964   1.800  0.1837 -0.1292  0.0811
32224W        W47693  16.884   7.663   2.676  0.1156  0.1400 -0.1147
32225W        W47694  10.712   7.097  12.516 -0.1378 -0.3133  0.1882
32226W        W47695  16.027   2.871  14.316  0.0116  0.2692  0.3141
32227W        W47696   0.457   8.391  13.646  0.2483  0.2368 -0.2928
32228W        W47697  15.461  18.554   1.317  0.1427 -0.1234 -0.1548
32229W        W47698   8.796  14.630   4.770 -0.2294 -0.1502 -0.2063
32230W        W47699   3.985   9.956   4.682 -0.3962  0.2667  0.0925
32231W        W47700  18.250   8.871  15.660 -0.2929 -0.0579 -0.3127
32232W        W47701   7.470   7.565  14.410  0.1806 -0.1748  0.0354
32233W        W47702  16.483   2.398   0.135  0.0105 -0.1057  0.1356
32234W        W47703   4.079  13.135   2.628  0.0750  0.1423  0.1772
32235W        W47704   0.791   8.502  12.911  0.2183  0.0788  0.1187
32236W        W47705   4.763   8.341  11.118  0.0257 -0.2196  0.2548
32237W        W47706   5.967  17.757  10.393 -0.0609  0.0845 -0.2895
32238W        W47707  17.444  11.728   2.416  0.1423  0.0138 -0.1121
32239W        W47708  12.314   7.316   2.665 -0.0531 -0.0079  0.0971
32240W        W47709   5.920   9.549  12.411  0.2731 -0.0841 -0.0250
32241W        W47710   2.373   1.367  10.729  0.1502  0.0604 -0.0963
32242W        W47711  16.525  14.708   1.645  0.1929 -0.1583  0.1384
32243W        W47712  13.961  18.246   2.178 -0.0418 -0.2824 -0.2720
32244W        W47713  17.925   5.541  14.379  0.2383 -0.0510  0.0770
32245W        W47714  11.801  13.756  10.910 -0.1278 -0.0967  0.0825
32246W        W47715  15.659  18.205  11.774  0.1591 -0.0636 -0.3193
32247W        W47716   2.120   2.767  14.547 -0.2054  0.0217 -0.0849
32248W        W47717   3.884  12.725  10.818 -0.0678 -0.0504 -0.1976
32249W        W47718   5.354  12.548  13.163 -0.0060  0.1682  0.1659
32250W        W47719   1.259   7.365   3.338 -0.1358 -0.1288 -0.2101
32251W        W47720  14.178  15.925   0.933  0.0520 -0.2586 -0.1216
32252W        W47721   3.914   1.524   4.198 -0.0151  0.0895  0.0406
32253W        W47722  16.591   7.374  15.009 -0.1803 -0.0560  0.3102
32254W        W47723   3.085  11.414  15.219  0.0879 -0.0965 -0.1299
32255W        W47724   1.010   0.772  12.170  0.1643  0.2188  0.2996
32256W        W47725   5.769   9.317   2.768 -0.1384  0.0950  0.0937
32257W        W47726   5.545   2.059  11.971 -0.0336 -0.0565  0.0881
32258W        W47727   5.844   5.634   1.720  0.0069  0.0168  0.0020
32259W        W47728  11.174  18.545   1.223  0.2108 -0.3842 -0.0761
32260W        W47729   8.787  16.856  13.845  0.1719  0.0754 -0.1043
32261W        W47730   8.849   1.139  14.732  0.3623 -0.3877  0.0686
32262W        W47731   7.808  11.440   1.677 -0.0192 -0.1369  0.1029
32263W        W47732  12.758  13.420   3.930 -0.0391  0.0093 -0.1459
32264W        W47733   7.592  16.401   3.626 -0.1630  0.0254 -0.2261
32265W        W47734   3.985   3.072  11.101  0.0262  0.2086 -0.1509
32266W        W47735   3.248  12.147   1.273  0.1965  0.2351  0.1890
32267W        W47736   2.151  17.443   0.436  0.0783  0.1153  0.1775
32268W        W47737  15.166   6.967   4.932  0.2399 -0.3196  0.3716
32269W        W47738   1.648   5.417  15.395 -0.0533 -0.0342 -0.0054
32270W        W47739  16.337  16.803   3.298 -0.0767  0.1525  0.0740
32271W        W47740  11.240   9.847   0.077 -0.0505 -0.1194  0.1274
32272W        W47741   8.344   0.316  15.221 -0.1448  0.1398  0.3582
32273W        W47742   2.679  11.103  12.642 -0.1162 -0.1013  0.0965
32274W        W47743  13.293   4.275  14.616 -0.0111  0.0300 -0.1102
32275W        W47744   5.393  13.643  14.072 -0.1464  0.0453 -0.4170
32276W        W47745   7.595   9.431   2.850  0.1385 -0.1075  0.0910
32277W        W47746   3.044   5.749   1.925 -0.1954  0.1007 -0.2645
32278W        W47747  10.505  16.838   2.486 -0.0698  0.2936  0.0458
32279W        W47748  12.090   6.758   2.514 -0.2033 -0.4563  0.0383
32280W        W47749  17.176  13.912   3.388  0.1443 -0.2275  0.0446
32281W        W47750  13.063   8.999   3.654  0.1124  0.0529 -0.3469
32282W        W47751   1.873   8.185  11.219 -0.1688 -0.0261  0.3001
32283W        W47752  15.678   4.360  10.464  0.2461 -0.0250 -0.0807
32284W        W47753   1.208   8.269   0.153 -0.2258  0.0497 -0.0819
32285W        W47754   0.807   5.807  15.323  0.0604  0.0408  0.0531
32286W        W47755   1.311   6.890  13.392 -0.1106 -0.0947  0.0574
32287W        W47756   1.927   5.486  10.667  0.0042 -0.1490 -0.1046
32288W        W47757  17.154   6.848  11.837 -0.2293 -0.1600 -0.0126
32289W        W47758   8.358  13.720   0.365 -0.1318 -0.1545  0.2414
32290W        W47759  18.162  17.271  11.814  0.0105 -0.1354  0.0126
32291W        W47760   6.670  12.252   2.010 -0.1518 -0.1714 -0.1497
32292W        W47761   9.862  16.992  11.946  0.3225 -0.0599  0.0650
32293W        W47762  12.436   6.390   5.101 -0.0314  0.0007  0.0478
32294W        W47763  13.273  15.879  12.726 -0.0365 -0.1708 -0.0617
32295W        W47764   1.667   4.653   2.778 -0.2713  0.0362  0.1814
32296W        W47765   0.181  17.718   3.662  0.0843 -0.0333 -0.1826
32297W        W47766   0.946   3.293   1.200 -0.2195 -0.0302  0.2561
32298W        W47767  13.590   6.514   5.683  0.2690 -0.1055 -0.2483
32299W        W47768  16.774  13.218   5.004 -0.0467 -0.3810 -0.1877
32300W        W47769   7.291  18.509  13.009  0.1223 -0.3451 -0.2690
32301W        W47770   8.777   0.672   4.774  0.0430 -0.0578  0.1498
32302W        W47771   6.991   3.359   5.975  0.1434 -0.0811  0.0301
32303W        W47772  12.479   5.488   1.065  0.1140  0.3030 -0.0764
32304W        W47773  13.125   6.551   0.420  0.0604 -0.0325 -0.0918
32305W        W47774   1.950   5.348  11.104  0.0160 -0.3636  0.0629
32306W        W47775   7.472   4.797   2.679 -0.1737 -0.0729 -0.3473
32307W        W47776  16.405  12.788   3.451 -0.0642  0.2602 -0.0428
32308W        W47777  17.239  14.061   1.997  0.0725 -0.1094 -0.2116
32309W        W47778   3.741   4.336   2.860 -0.0585  0.3752  0.0338
32310W        W47779  16.447  12.189  13.886  0.2325  0.2812  0.2419
32311W        W47780   7.690   0.148   5.165 -0.0531 -0.0792 -0.1942
32312W        W47781   8.656   4.624  13.433 -0.1440 -0.2192 -0.1491
32313W        W47782  18.009  10.683   0.542 -0.1960  0.3872 -0.2681
32314W        W47783  18.609  13.268  10.459  0.3929 -0.1659 -0.1239
32315W        W47784  11.970  13.072   4.985 -0.1589 -0.3558 -0.0386
32316W        W47785   2.800  15.623   1.683  0.0972 -0.1336 -0.0556
32317W        W47786  16.689  11.002  15.429 -0.1687  0.2640  0.0008
32318W        W47787  11.366  10.606  14.954 -0.1395  0.0409 -0.0526
32319W        W47788   9.934   5.295   3.755 -0.1685  0.1035 -0.0668
32320W        W47789  12.288  15.705  10.800 -0.1119  0.2945 -0.1623
32321W        W47790   2.158  11.017  11.485 -0.0951 -0.1421  0.0052
32322W        W47791  16.680  16.387   4.471  0.2427 -0.1300 -0.0753
32323W        W47792   9.891  10.454  13.196  0.1455 -0.2346 -0.1867
32324W        W47793  17.046   3.804   0.784  0.0984  0.0936 -0.0393
32325W        W47794   3.769  17.184   6.138 -0.3656 -0.1684  0.2141
32326W        W47795   1.501   9.591   1.870  0.1262 -0.1011 -0.1114
32327W        W47796  13.487   1.140   4.192 -0.3009 -0.1232  0.2097
32328W        W47797  11.527   9.779  15.063  0.1052 -0.0733 -0.2193
32329W        W47798   7.577   7.739   0.678 -0.1377  0.1808 -0.1244
32330W        W47799   4.043   4.313   2.363 -0.3184  0.1210 -0.1124
32331W        W47800  12.874  10.428   1.549 -0.0432  0.2017  0.4360
32332W        W47801   0.750  17.720  12.019 -0.0930 -0.1865  0.0052
32333W        W47802  12.954  17.700  10.990  0.0500  0.2649  0.2799
32334W        W47803   6.708   4.011  14.377 -0.0011 -0.0112 -0.1511
32335W        W47804  16.423   7.707  11.963  0.1529 -0.3466  0.2402
32336W        W47805   4.615   0.746   5.557  0.0181 -0.1368  0.1931
32337W        W47806  15.502   4.774  13.241  0.0619 -0.0283  0.0029
32338W        W47807  13.667  10.936  12.791  0.2386  0.0531  0.1074
32339W        W47808  17.907   1.386   2.899 -0.0287 -0.0464  0.1246
32340W        W47809  18.322  10.082   0.298  0.1096 -0.1466 -0.1388
32341W        W47810   7.980   3.857   0.514  0.2878 -0.3121  0.0901
32342W        W47811  11.885   8.588  15.164  0.1983  0.5955  0.0620
32343W        W47812  18.474  12.443   0.881 -0.4647 -0.0676  0.1505
32344W        W47813  16.056  12.864  15.028 -0.1247 -0.0747 -0.0652
32345W        W47814  16.349  18.408  11.511  0.2523  0.0880 -0.0860
32346W        W47815  17.020   5.090  11.792  0.0259  0.1538 -0.1419
32347W        W47816   4.593  16.860   4.143 -0.3716 -0.2268  0.1853
32348W        W47817  14.487  11.466   0.974  0.1354  0.1402 -0.1053
32349W        W47818  16.932  11.917  15.606 -0.1514 -0.0030 -0.1431
32350W        W47819   4.571   2.327   0.925  0.1108 -0.0165  0.0163
32351W        W47820   1.388  13.727  14.466 -0.3052  0.0057 -0.0412
32352W        W47821   6.626  13.892  11.312  0.2624 -0.1205  0.0737
32353W        W47822  13.073  12.690  13.833  0.1051  0.3777  0.3581
32354W        W47823  12.271   2.761   4.410  0.0980 -0.0739  0.0638
32355W        W47824   1.511  16.754   0.496 -0.1805  0.1717 -0.4022
32356W        W47825  15.581  17.996  15.607 -0.0512 -0.1435 -0.1376
32357W        W47826   3.716   7.116  12.242  0.3334  0.0459 -0.1237
32358W        W47827   7.075   8.574  11.409  0.0091 -0.1655 -0.0351
32359W        W47828  11.745  16.913   1.712  0.1473  0.0615 -0.2497
32360W        W47829   5.623  18.037  10.134 -0.0510  0.1246 -0.1937
32361W        W47830   9.843  15.865   2.423  0.2014  0.0845  0.0104
32362W        W47831   1.742   0.353   1.308  0.0058  0.2221  0.1287
32363W        W47832   7.017   1.441   4.531  0.0264 -0.0297  0.4119
32364W        W47833  16.544  15.108  10.303  0.1026 -0.0593  0.2547
32365W        W47834   3.206   2.143   5.728 -0.0291 -0.3099 -0.2156
32366W        W47835  15.696   6.356  15.559  0.0894 -0.2711  0.0853
32367W        W47836   4.413  15.446   2.252 -0.2874  0.1638 -0.1973
32368W        W47837   8.864  17.824   2.610 -0.2106  0.2186 -0.5941
32369W        W47838   8.132   6.562   4.990 -0.0602 -0.0952 -0.0833
32370W        W47839  18.329  11.917   0.614 -0.1511  0.3489  0.1324
32371W        W47840   5.905   5.916   5.150  0.0948  0.1462  0.0278
32372W        W47841  14.645   8.285   1.162  0.2498 -0.0141 -0.2487
32373W        W47842  15.627   9.939  14.757  0.3400 -0.1650  0.1407
32374W        W47843   1.558  18.451  13.287  0.0035  0.0912  0.2382
32375W        W47844   7.915   5.799  10.967 -0.2184 -0.0617 -0.0097
32376W        W47845   4.703  14.619   2.287  0.1032 -0.0991  0.4822
32377W        W47846   0.187   8.731  13.433  0.0762  0.0933  0.0823
32378W        W47847   4.620  14.663  11.955  0.1083 -0.2754 -0.2395
32379W        W47848   4.359  12.304   3.340  0.2942 -0.1551 -0.1560
32380W        W47849   7.187  18.571  14.047 -0.0507  0.1139 -0.2754
32381W        W47850   5.762   2.689   3.360  0.1452 -0.2072 -0.0605
32382W        W47851   4.649  17.296   3.946  0.0088 -0.0781 -0.0173
32383W        W47852  11.350   0.444   3.779  0.1789 -0.0065 -0.1047
32384W        W47853   7.140   3.704   2.283 -0.1962 -0.0875  0.2932
32385W        W47854   8.942  16.496  12.501 -0.0250 -0.0929  0.0797
32386W        W47855  17.951  14.775   2.014  0.3117 -0.0416  0.1171
32387W        W47856   7.146  12.401   2.261  0.1224  0.0441 -0.1908
32388W        W47857  14.692  15.555   3.769  0.2594  0.0446 -0.1724
32389W        W47858   9.743  12.793  13.849  0.1304  0.0144  0.0284
32390W        W47859  16.210   0.917   0.623  0.2116 -0.0419  0.0040
32391W        W47860   8.564   9.550  12.812 -0.0143  0.3144 -0.1117
32392W        W47861   6.591   1.722  14.012  0.1429 -0.0939  0.0097
32393W        W47862   0.890  10.545   2.616  0.1736  0.0363 -0.0034
32394W        W47863  16.947   2.796   4.213  0.1348  0.1341 -0.0318
32395W        W47864  16.391   9.383  13.719  0.1273  0.1250  0.2308
32396W        W47865  17.852   6.801  14.137  0.0883  0.0749 -0.0415
32397W        W47866   7.547   0.961  13.011 -0.1783 -0.0414  0.1352
32398W        W47867  11.983   0.431  14.554  0.0187  0.2278 -0.1034
32399W        W47868   4.501  16.367   3.499  0.2718 -0.0665  0.0166
32400W        W47869  12.846  17.138   2.207 -0.0817  0.1311  0.1419
32401W        W47870   4.537   4.214  15.715 -0.2272 -0.1455 -0.3352
32402W        W47871   4.289  17.835   4.513 -0.1257 -0.1459 -0.0099
32403W        W47872   1.066   8.772   3.793  0.0792 -0.0030 -0.3595
32404W        W47873   0.769  12.381   1.555  0.0435 -0.3364 -0.2790
32405W        W47874  10.822  14.709   2.989  0.0068  0.0820 -0.3120
32406W        W47875   8.504   0.199   3.571 -0.0138 -0.0019  0.0951
32407W        W47876   7.226   9.493   4.925  0.2599 -0.0588 -0.1359
32408W        W47877   3.715   6.720  11.960  0.4598 -0.0089  0.0163
32409W        W47878   6.581   0.496  15.502 -0.0450  0.3874 -0.0130
32410W        W47879  16.920   8.762  14.178  0.1161  0.1158 -0.1188
32411W        W47880  17.225  15.423   0.179 -0.0419 -0.2010  0.0721
32412W        W47881  14.130  16.950  13.432  0.1499  0.2624  0.0630
32413W        W47882  11.192   4.104   3.371  0.1683 -0.0921  0.0931
32414W        W47883   4.346   1.787  12.970  0.1689 -0.0823  0.1894
32415W        W47884  13.366  16.244   0.378 -0.0344 -0.1674  0.2604
32416W        W47885  16.409   9.525   3.148 -0.2132  0.0559 -0.0095
32417W        W47886   7.292   4.432  12.002 -0.0489  0.2893  0.0322
32418W        W47887   2.988   3.711   0.147 -0.0417 -0.0965  0.4680
32419W        W47888   7.648  17.754   4.189 -0.1529  0.2640 -0.1589
32420W        W47889   5.370  18.595   5.064  0.1513 -0.0812  0.0212
32421W        W47890   1.275  18.292   5.044  0.3072 -0.2939  0.2211
32422W        W47891  10.355  13.848  13.081  0.0952  0.2434 -0.3758
32423W        W47892   0.679   0.862   0.775  0.1222  0.2488 -0.0745
32424W        W47893  11.028  16.573  12.825 -0.1066 -0.0355  0.2964
32425W        W47894  17.098   5.537   9.192 -0.1341 -0.0997 -0.0647
32426W        W47895   5.041  15.840  11.917  0.1502 -0.0374 -0.0810
32427W        W47896   3.771   6.672   1.092 -0.3156  0.2018 -0.3079
32428W        W47897  10.898   2.792  11.317  0.1908  0.1481  0.1342
32429W        W47898   5.941  17.772   3.485  0.2014  0.3395  0.1183
32430W        W47899  18.196   2.601  11.889  0.0827 -0.2994  0.2295
32431W        W47900  11.612   6.824   4.600  0.0519  0.1731  0.0887
32432W        W47901   5.652   5.472   0.988 -0.1148  0.0728 -0.1898
32433W        W47902  18.609  18.427  12.220  0.0525 -0.2766  0.1686
32434W        W47903   9.627  10.616  15.301 -0.2328 -0.1564  0.1248
32435W        W47904   1.088  12.530  10.597 -0.3547  0.1809  0.1127
32436W        W47905   8.510   1.510   0.256 -0.2183 -0.2194  0.1891
32437W        W47906   6.580   5.480   2.336 -0.0228 -0.2013 -0.2495
32438W        W47907   2.834   8.494   4.698 -0.2425  0.0654 -0.0378
32439W        W47908  15.015  10.070   0.666  0.2223 -0.1892  0.0303
32440W        W47909  15.112   1.008   5.070  0.1128 -0.0762  0.4074
32441W        W47910  16.360  16.274   3.194  0.4302  0.1877 -0.0627
32442W        W47911  12.256   7.058  12.865 -0.1108 -0.1737 -0.0644
32443W        W47912  14.181   6.788  12.796  0.0745  0.0059 -0.0803
32444W        W47913   9.062   7.586  15.206 -0.3037  0.0234  0.2988
32445W        W47914  18.467  14.125  11.027  0.0343  0.1475  0.1541
32446W        W47915   6.416   4.829  13.755  0.0696 -0.1633 -0.1072
32447W        W47916   6.353  10.401  13.045  0.2713  0.1491 -0.0886
32448W        W47917  14.630   9.654  14.539  0.1427 -0.1308 -0.3207
32449W        W47918  16.148  10.673   4.247 -0.0748 -0.4787  0.1541
32450W        W47919   3.007   5.909  13.870 -0.0045 -0.1548 -0.3436
32451W        W47920  16.176   1.009   5.517  0.2076  0.1095  0.1132
32452W        W47921  11.664   0.154   2.202 -0.2793  0.0645 -0.0514
32453W        W47922  10.786   9.257  13.967  0.1084  0.2902  0.2255
32454W        W47923  14.134  12.331  11.225  0.0947  0.2066 -0.1276
32455W        W47924  18.088   2.195  10.380  0.0341 -0.0318  0.0120
32456W        W47925  15.193  13.794  11.247  0.0814 -0.0608  0.1920
32457W        W47926   2.874  10.982  13.829  0.2948 -0.2222  0.0107
32458W        W47927   6.962   3.198   4.165 -0.0654 -0.0049  0.2884
32459W        W47928  14.139  18.561   4.900  0.1198 -0.2712  0.3371
32460W        W47929   0.955   8.610  10.974  0.0537 -0.3830  0.1158
32461W        W47930   4.221   5.014  12.656  0.1567 -0.1581  0.2174
32462W        W47931  10.190   1.425   6.257  0.4210  0.0524  0.2443
32463W        W47932   0.171  17.553   2.516  0.0520  0.3076  0.2084
32464W        W47933  18.383   3.789   3.925  0.2279 -0.0078  0.3338
32465W        W47934   4.914  13.515   4.470  0.3863 -0.2623 -0.2606
32466W        W47935   9.796   3.479   0.046 -0.1127 -0.3139 -0.1294
32467W        W47936  11.599   8.743   3.354 -0.3074  0.3713  0.1946
32468W        W47937  18.266  13.970  14.616 -0.2840 -0.0384 -0.1805
32469W        W47938   1.909   3.384  12.435 -0.0285  0.1456 -0.1324
32470W        W47939   8.875  16.455  15.191 -0.0402 -0.0556  0.2043
32471W        W47940  14.419  14.323  12.154 -0.1411  0.0952 -0.1094
32472W        W47941  13.502  13.779  14.122 -0.1039  0.0220 -0.1259
32473W        W47942  11.035   9.679  14.977 -0.2060 -0.2275 -0.1305
32474W        W47943  13.904   8.757   3.700 -0.0807  0.1059 -0.0924
32475W        W47944  13.495   5.505   4.085 -0.3032 -0.1153 -0.1502
32476W        W47945   7.331   3.058  13.037 -0.2351  0.1849  0.1040
32477W        W47946   9.095   2.749  11.161 -0.2047  0.5222  0.0826
32478W        W47947  18.163   9.672  10.768  0.1052 -0.0579 -0.2449
32479W        W47948   9.029  10.551   1.936 -0.0791  0.0088  0.2918
32480W        W47949   1.461   5.123   2.752 -0.4102 -0.0590 -0.2663
32481W        W47950  14.939  14.831   4.754  0.1393  0.0768  0.2198
32482W        W47951   9.394   5.820   5.648 -0.0497  0.0641  0.1501
32483W        W47952  11.703  16.280  14.894  0.0584  0.1342  0.0612
32484W        W47953  12.251   5.318   3.681 -0.1857 -0.1757 -0.2212
32485W        W47954   0.465  17.342   0.346  0.0249 -0.0915 -0.4255
32486W        W47955  11.773   2.619   0.976  0.0201 -0.0560 -0.1118
32487W        W47956  16.412   6.305   4.832 -0.3366 -0.1697  0.0472
32488W        W47957  13.196   1.845   2.753 -0.0771 -0.2204  0.0514
32489W        W47958   0.317  16.060   4.947 -0.0195  0.3506 -0.1050
32490W        W47959   5.607  16.695   1.996 -0.1936  0.1502  0.1357
32491W        W47960   5.603  10.187   9.576  0.1521  0.1655 -0.1974
32492W        W47961  11.622   3.025  10.414  0.1507 -0.1297 -0.2531
32493W        W47962  12.190   7.074  11.444  0.4428 -0.1027  0.0640
32494W        W47963   3.612   9.968  10.521 -0.0277 -0.2876 -0.1884
32495W        W47964   9.776   4.910   2.263  0.2720 -0.0182 -0.2697
32496W        W47965   2.776  10.909   1.714 -0.1396  0.2153  0.0001
32497W        W47966   5.442  16.947  13.285  0.0624  0.0599 -0.1223
32498W        W47967   3.581   9.838  13.439  0.0054 -0.0643 -0.0237
32499W        W47968   2.899   8.160   2.388 -0.0791  0.2912 -0.1685
32500W        W47969   1.628   8.373  13.248 -0.0173  0.0727 -0.2787
32501W        W47970  10.126   5.565  12.924 -0.2907  0.1006 -0.2829
32502W        W47971  10.893  17.270   2.146 -0.1230  0.0142 -0.1259
32503W        W47972   9.174   8.267  14.526 -0.0414 -0.1291  0.3934
32504W        W47973   3.338   1.347  10.972  0.2832  0.0464  0.1091
32505W        W47974  16.446   6.779   4.694  0.2979 -0.0298 -0.0589
32506W        W47975   7.996  12.102  11.253  0.0302 -0.0854 -0.1034
32507W        W47976   1.977   1.763   5.454 -0.1275  0.0426 -0.0268
32508W        W47977  14.853   5.531   1.795  0.1256 -0.4505  0.2155
32509W        W47978   3.473  11.921  12.867 -0.0799 -0.1597 -0.0728
32510W        W47979   0.053   5.188   0.435 -0.0838  0.0485 -0.3306
32511W        W47980   9.889  10.742   3.194 -0.1187 -0.0003  0.0896
32512W        W47981   9.773   4.496   3.190  0.0035  0.2894  0.3484
32513W        W47982   8.204  11.940   2.848  0.2599 -0.1246  0.1174
32514W        W47983  14.680   6.180   4.029  0.3184  0.3230  0.0205
32515W        W47984   8.183  11.573  11.216 -0.0545 -0.1998 -0.0571
32516W        W47985  11.724  18.480   5.965  0.3358 -0.0645 -0.1015
32517W        W47986  14.156   9.110   3.499  0.2432 -0.2690  0.1182
32518W        W47987  14.173   1.326   0.460 -0.1134  0.0004 -0.2586
32519W        W47988   1.884  18.361   2.508  0.4009  0.0486 -0.1557
32520W        W47989  16.486   8.619  13.922 -0.2479  0.5634  0.1653
32521W        W47990  17.911   5.718  11.888  0.3763 -0.0871 -0.2964
32522W        W47991   2.061   0.036   3.659 -0.0346  0.2362  0.1415
32523W        W47992  12.757  18.333   3.059 -0.0259  0.0747  0.2212
32524W        W47993   5.880  16.755   1.044 -0.0005 -0.1930 -0.0584
32525W        W47994  16.492  13.192   3.699 -0.0287 -0.1213 -0.1149
32526W        W47995   5.054   5.110   0.168 -0.1912 -0.2114  0.0959
32527W        W47996  10.315   5.156   4.012  0.1668 -0.0902  0.1189
32528W        W47997  17.430   9.293  10.401 -0.0711 -0.5173 -0.0297
32529W        W47998  16.221   5.657  15.701 -0.0385 -0.2529 -0.1101
32530W        W47999   9.335   6.757   5.725  0.2411 -0.1721  0.1093
32531W        W48000  14.667   5.564   4.835 -0.1676 -0.0038 -0.2362
32532W        W48001   0.629   9.317  11.557  0.1301  0.1778 -0.0266
32533W        W48002   7.024  13.315  12.973  0.3803 -0.1656 -0.0097
32534W        W48003  14.135   7.439   0.228 -0.0357 -0.1383  0.2186
32535W        W48004  16.224   4.557   5.581 -0.0934  0.1313  0.2008
32536W        W48005  10.422   2.446   4.994  0.1999 -0.0452 -0.0718
32537W        W48006   2.268  11.438   4.879 -0.2375  0.2287 -0.1053
32538W        W48007  16.289  17.789  10.721 -0.1217 -0.1170  0.0546
32539W        W48008  13.379   8.806   1.616 -0.1850  0.0649 -0.3326
32540W        W48009   4.905   0.074   3.087  0.1905 -0.3072 -0.0911
32541W        W48010  10.015   8.004   1.942 -0.1469 -0.0218  0.1361
32542W        W48011   1.813   7.904   4.546 -0.1730 -0.0590 -0.2927
32543W        W48012   3.904   6.842   2.015 -0.1112 -0.1528  0.0407
32544W        W48013   4.915   0.187  11.974  0.0748 -0.1923 -0.1846
32545W        W48014  14.545  15.134   5.039  0.1515  0.1056 -0.1999
32546W        W48015  17.755   2.412  10.665 -0.1481  0.3926  0.1389
32547W        W48016   3.887  17.656  13.708 -0.0223  0.1465 -0.2314
32548W        W48017  18.595  14.004  11.909 -0.2072  0.2439 -0.0768
32549W        W48018   6.966   9.811   5.266 -0.1679 -0.1298  0.1212
32550W        W48019   2.782   2.184   4.656 -0.3175 -0.2067 -0.1166
32551W        W48020  11.362  16.167  12.138 -0.1755  0.1697  0.3133
32552W        W48021   5.010   3.006  12.801  0.1027 -0.2552 -0.0297
32553W        W48022   5.201   8.025  15.355  0.2228  0.0729  0.0608
32554W        W48023   9.324   6.290   3.497  0.1644 -0.2025  0.1348
32555W        W48024   0.697   9.348  10.387 -0.0396  0.0665  0.2129
32556W        W48025   1.580   7.916   2.123 -0.1305 -0.0399 -0.0844
32557W        W48026   3.938   1.140  15.368 -0.1151  0.1894 -0.0802
32558W        W48027   8.061  13.328  10.558 -0.2492  0.1172  0.1151
32559W        W48028   9.749   6.695  15.446  0.1410  0.2757  0.3045
32560W        W48029   8.559   6.489   0.852  0.0099 -0.0550 -0.0823
32561W        W48030  18.018  14.876   0.461 -0.0104  0.0979 -0.2993
32562W        W48031  14.889  10.665  15.503 -0.0300 -0.0737 -0.1694
32563W        W48032  13.812   4.218  15.736  0.0277  0.0517  0.1208
32564W        W48033   5.291  10.627   2.621  0.0507  0.2615  0.0503
32565W        W48034   9.437   9.022  10.828 -0.0428  0.3360 -0.1698
32566W        W48035   4.467  16.821   3.650  0.0593 -0.3376  0.1567
32567W        W48036  11.656  13.041  11.453  0.2911  0.2626 -0.3600
32568W        W48037  12.897   5.223  12.703 -0.1973  0.1898 -0.0682
32569W        W48038   7.431  13.016  11.683  0.2611  0.1059 -0.0753
32570W        W48039   3.451  11.901   4.892 -0.2509 -0.0253  0.0491
32571W        W48040   2.327   9.906  13.421  0.1341  0.0842 -0.1666
32572W        W48041  13.346   3.754   4.376 -0.2558  0.2298 -0.1043
32573W        W48042  10.127  18.033  12.274 -0.0218  0.3933  0.2846
32574W        W48043   6.516   5.958   2.033  0.0543  0.2005 -0.1806
32575W        W48044  11.552   6.666  10.323  0.0177 -0.3712  0.0573
32576W        W48045   9.978   1.291   5.194  0.1551 -0.0233 -0.4208
32577W        W48046   7.339   6.626   2.435 -0.1109  0.0981  0.1289
32578W        W48047   5.060   2.650   2.314 -0.1826  0.0760 -0.0230
32579W        W48048  12.129  16.194   3.214  0.2344 -0.0039  0.2469
32580W        W48049   1.575   0.882   2.435 -0.1460 -0.0447  0.1218
32581W        W48050  11.201   1.536  12.102  0.3491  0.2274 -0.0615
32582W        W48051  17.422   8.786   0.580 -0.0181  0.1390  0.0092
32583W        W48052   3.064  18.357  13.750 -0.2741  0.0969  0.0895
32584W        W48053   7.202  14.749   4.254  0.0422  0.0426 -0.1490
32585W        W48054  11.772  11.839  13.879  0.1582  0.5158  0.0838
32586W        W48055  12.265  14.087  14.637  0.2487  0.3083 -0.0846
32587W        W48056  13.730   7.475  15.698 -0.3147 -0.2205  0.1224
32588W        W48057   8.289  16.657   4.225 -0.0913 -0.1325 -0.2030
32589W        W48058   2.912  18.049  12.054  0.3532 -0.3642 -0.0309
32590W        W48059  11.158   7.875  13.495 -0.0675  0.3559  0.1839
32591W        W48060  12.831  17.709  15.500 -0.1648  0.4128 -0.3658
32592W        W48061   5.684  18.504  13.407 -0.0019 -0.1344 -0.0349
32593W        W48062  12.248   5.208   2.027  0.1103 -0.1647 -0.0430
32594W        W48063  13.916  14.416  15.771 -0.0352 -0.0967 -0.0054
32595W        W48064  14.460   7.351   1.247  0.0152 -0.3098  0.1392
32596W        W48065  17.006   8.095  12.830 -0.2275 -0.1246  0.1893
32597W        W48066   0.171  11.289  15.046 -0.1702 -0.1182  0.0410
32598W        W48067  11.795   3.030   4.433  0.0201 -0.1565 -0.0015
32599W        W48068  17.280   0.671   2.598 -0.1618 -0.2114 -0.0569
32600W        W48069   6.805   5.129  15.463  0.1328  0.2603  0.2437
32601W        W48070  18.247   1.310   3.274  0.0601  0.0785 -0.2362
32602W        W48071  16.309  17.885   4.446  0.3503 -0.1551  0.1293
32603W        W48072  18.145   7.144  13.962 -0.0958 -0.1229 -0.1375
32604W        W48073   2.092  17.114  11.483  0.2437  0.0851 -0.3400
32605W        W48074  16.174  10.519   1.077  0.2691  0.1242  0.3461
32606W        W48075   3.838  14.400   1.298  0.0061 -0.0126  0.0203
32607W        W48076  18.539  15.250   2.365  0.0109  0.0950  0.0163
32608W        W48077   2.157  16.587  12.205 -0.2156  0.2568  0.0487
32609W        W48078   9.314   8.927   3.427 -0.1926 -0.1129  0.2245
32610W        W48079   6.470   1.546   2.854 -0.0411 -0.1460 -0.2164
32611W        W48080   2.274   9.986  12.216 -0.2691  0.0821 -0.1536
32612W        W48081  15.076   5.487   5.241  0.0205 -0.0970  0.3424
32613W        W48082   2.038  10.992   5.088  0.2517 -0.1619  0.2002
32614W        W48083  18.276   4.495   3.333 -0.1250  0.2715  0.1562
32615W        W48084  15.505   6.202  12.924 -0.0682 -0.2000 -0.4255
32616W        W48085   3.041   9.379   2.254  0.0955  0.2163  0.0503
32617W        W48086   9.983   1.990   3.297 -0.0412  0.1112  0.0647
32618W        W48087  10.068  17.337  14.516  0.1657 -0.0878 -0.1170
32619W        W48088   6.152   7.320  11.503  0.1914  0.1167 -0.0710
32620W        W48089   2.659  16.081   3.939 -0.2834 -0.1848 -0.2570
32621W        W48090   6.284   6.821  13.565  0.3325  0.1664  0.1195
32622W        W48091   0.154   0.435   1.546 -0.1537 -0.1981  0.2040
32623W        W48092  12.658   1.325  13.652  0.3311  0.0453 -0.2361
32624W        W48093   7.505  10.548  12.594  0.1230 -0.0702 -0.1352
32625W        W48094  11.071   7.498   5.505  0.3224  0.2242 -0.1674
32626W        W48095   4.451  17.305   3.434 -0.2741  0.0596  0.3811
32627W        W48096   1.148  15.363   1.111  0.3459 -0.1095  0.1103
32628W        W48097  17.635   5.161   1.224 -0.0992 -0.2266  0.0622
32629W        W48098   9.832  13.245  13.504  0.0294 -0.1134  0.1605
32630W        W48099   1.679  17.371   3.778  0.2395  0.2549  0.0474
32631W        W48100  16.449   6.630   3.911 -0.0255 -0.2010 -0.3056
32632W        W48101   6.078  15.166   2.495  0.1563 -0.1234 -0.0096
32633W        W48102   3.401   7.212  11.856 -0.0323 -0.1208  0.0068
32634W        W48103   5.502   6.673  13.793  0.0704 -0.0215  0.0924
32635W        W48104   3.212  16.517  11.827 -0.0755 -0.1202 -0.2907
32636W        W48105  12.924  13.036   4.931 -0.0743  0.1405  0.0524
32637W        W48106   2.489  12.808   0.272  0.1296 -0.1752  0.1766
32638W        W48107   9.710   0.962   5.506 -0.2297 -0.1602 -0.1024
32639W        W48108   0.965  13.096  11.922  0.0059 -0.1192  0.3970
32640W        W48109   0.957   7.546  10.258 -0.5655 -0.1108  0.1147
32641W        W48110   0.710  14.627   0.541  0.1097  0.1456 -0.0037
32642W        W48111  14.112   5.433  14.542 -0.1833  0.3466 -0.0831
32643W        W48112   8.092   5.788   4.601 -0.3341  0.1970 -0.2575
32644W        W48113   8.101   9.733   3.426  0.0630 -0.0120 -0.0558
32645W        W48114  12.532   7.960  14.141 -0.1050  0.0548 -0.0053
32646W        W48115  14.100   0.950  12.501 -0.1425  0.0850 -0.0145
32647W        W48116  13.171   4.289  10.085  0.0699  0.1431 -0.0699
32648W        W48117  10.227  12.174   3.072  0.2893 -0.0782 -0.0251
32649W        W48118  12.129  10.511  15.135 -0.1416  0.1294  0.1054
32650W        W48119   9.391  13.166  14.255  0.2181 -0.0339 -0.2436
32651W        W48120  10.774  15.204  10.900 -0.3404  0.0330 -0.2678
32652W        W48121   5.627  17.012  14.563 -0.0745  0.1711  0.2238
32653W        W48122   3.716  17.668   0.324  0.2569 -0.0019 -0.2866
32654W        W48123  18.351  17.003  13.335  0.0998  0.1092  0.0341
32655W        W48124   0.611   5.879  11.279  0.0099  0.0127 -0.1082
32656W        W48125  14.389  15.562   0.034  0.3508 -0.0324  0.0860
32657W        W48126  17.850  13.772   0.525  0.1111  0.0430 -0.1742
32658W        W48127  15.277  13.414   3.167  0.4156  0.0482 -0.0296
32659W        W48128   0.557   2.487   3.723  0.1414 -0.1380  0.0789
32660W        W48129   4.915  17.511   4.549  0.1110  0.0632  0.0819
32661W        W48130  10.974  17.266  14.308  0.1085  0.2635 -0.2257
32662W        W48131  15.593   0.708   2.684 -0.0073 -0.2616 -0.2154
32663W        W48132   4.435  10.981  11.619  0.0725 -0.0965  0.0629
32664W        W48133  10.693   3.425  15.622 -0.0647  0.2925  0.1394
32665W        W48134  13.869   4.549   4.082  0.2035 -0.2004  0.1937
32666W        W48135  15.170   5.831  14.844 -0.2072  0.2852 -0.0440
32667W        W48136   8.854   9.985  12.824 -0.0699 -0.0873  0.0487
32668W        W48137   8.908  18.062   3.237  0.1872  0.2169  0.0014
32669W        W48138  18.002  12.350   2.274  0.1136 -0.0582  0.2599
32670W        W48139   1.456   8.192   2.968 -0.2742 -0.0810 -0.1774
32671W        W48140  13.916  14.624   4.727  0.3566 -0.0576  0.2032
32672W        W48141  13.215   3.524   1.137 -0.1560  0.3833 -0.2879
32673W        W48142   8.568   4.970  12.331  0.0118  0.0669  0.0704
32674W        W48143  15.065  10.304  11.792 -0.3554  0.2589  0.2372
32675W        W48144  16.939   0.245   2.581  0.2533  0.0703 -0.1249
32676W        W48145  11.450  14.463   2.141 -0.3174  0.5217  0.0418
32677W        W48146   2.368   3.854  13.966  0.2319 -0.1400 -0.1565
32678W        W48147  16.883   4.755   5.298 -0.0245  0.2560 -0.2607
32679W        W48148   5.076   1.381   2.579  0.0073 -0.2783 -0.1275
32680W        W48149   1.133   4.845   2.298 -0.0654 -0.1012  0.2672
32681W        W48150  12.044   4.206   2.930 -0.0773 -0.1784 -0.0665
32682W        W48151  14.465   5.779   3.853 -0.0469 -0.2766 -0.3753
32683W        W48152   6.796  10.566  12.590  0.1585 -0.2798 -0.1188
32684W        W48153  10.390   1.227  15.622 -0.1620  0.2508  0.2597
32685W        W48154   1.657  18.026  12.313  0.1385 -0.1044  0.2367
32686W        W48155   2.461   1.474   0.285  0.0266  0.0305 -0.0474
32687W        W48156  17.474   8.409   3.276  0.1450 -0.1594 -0.2725
32688W        W48157   5.891   8.951  14.586 -0.1018 -0.1874 -0.1078
32689W        W48158   0.523   0.685  12.107  0.0109 -0.2742 -0.0000
32690W        W48159  12.685   6.737  10.336 -0.1984  0.0610 -0.2340
32691W        W48160  14.776   4.583   1.011 -0.2060 -0.2568 -0.1126
32692W        W48161  17.938  17.992   1.352  0.3542 -0.1976 -0.0784
32693W        W48162  16.090   9.635  14.500  0.0714  0.0973 -0.2713
32694W        W48163  16.765   1.153  14.508  0.0131 -0.1916 -0.1520
32695W        W48164  11.497   1.302   2.721 -0.2070 -0.1577 -0.0735
32696W        W48165   5.454  15.446  11.446  0.5609  0.2238  0.0976
32697W        W48166  15.800   7.130  10.849  0.0007 -0.2024 -0.0479
32698W        W48167   3.193  14.813  11.049 -0.2721  0.1619  0.2076
32699W        W48168   0.998   1.239  14.846 -0.0481 -0.2359  0.0639
32700W        W48169  15.443  13.683   1.620  0.3181 -0.0665 -0.3561
32701W        W48170   7.141   0.652   1.347 -0.2728  0.2876 -0.1797
32702W        W48171   1.053   1.535   4.486  0.1869 -0.2601 -0.0159
32703W        W48172   8.255   2.594   5.128  0.1147 -0.0914 -0.1179
32704W        W48173  17.815  15.196  14.392  0.2163  0.0730  0.0971
32705W        W48174  12.787   4.299   5.133  0.0233  0.2315  0.0268
32706W        W48175   2.822  18.092  14.807 -0.0937  0.3635  0.2477
32707W        W48176  10.026  16.642  13.589 -0.4387  0.1652  0.0470
32708W        W48177  11.462  16.792  14.902  0.0518  0.1495 -0.0126
32709W        W48178  13.350   8.388  13.250 -0.2055 -0.1563 -0.1221
32710W        W48179  12.425   9.732   2.063  0.3930 -0.0732 -0.0572
32711W        W48180   1.322   2.887  12.242 -0.5858  0.2699 -0.0063
32712W        W48181  15.664   9.340  11.027 -0.0330 -0.0024 -0.1363
32713W        W48182   5.753  12.478  13.674  0.0867 -0.2962 -0.5324
32714W        W48183   4.429   2.420  12.645  0.2265 -0.1405 -0.1264
32715W        W48184  15.351   6.779  11.746  0.5047 -0.2009  0.0194
32716W        W48185   3.776  11.878  10.868  0.0403 -0.0476 -0.0162
32717W        W48186   2.249  11.293  12.338  0.0302  0.6467 -0.1549
32718W        W48187   8.893   5.242   4.702 -0.2138 -0.1079 -0.1982
32719W        W48188   5.705   1.382   3.498 -0.0977  0.0790 -0.2282
32720W        W48189  16.484   1.710   0.907 -0.1493 -0.2170 -0.0082
32721W        W48190   4.650  11.851   2.293  0.4070  0.1991 -0.1410
32722W        W48191  18.065   1.769   2.634 -0.0467  0.1004 -0.0225
32723W        W48192   5.639  12.224   3.559  0.3245 -0.2222 -0.1583
32724W        W48193  17.084  17.148   3.164  0.1771 -0.5182 -0.0947
32725W        W48194   5.432  17.983  11.623 -0.1508  0.0452  0.2436
32726W        W48195  16.488   5.600  13.721 -0.0563  0.0284 -0.1196
32727W        W48196   8.873   6.599   4.233 -0.1309  0.1732  0.1536
32728W        W48197   3.713   6.602  11.377 -0.0095 -0.0641 -0.1724
32729W        W48198  17.282  10.619  14.656 -0.0439 -0.2285  0.1775
32730W        W48199   4.012  16.654   3.506 -0.2189  0.0958 -0.1119
32731W        W48200  15.211   4.703   3.878 -0.1182  0.2573 -0.0970
32732W        W48201  13.657   4.591   0.830  0.0763  0.0555  0.1186
32733W        W48202   2.049  17.772   3.301  0.4106  0.0363  0.0597
32734W        W48203  15.720   7.900  12.480  0.2210 -0.0029  0.1629
32735W        W48204  11.278   6.111  10.047 -0.1333  0.3488  0.0658
32736W        W48205   3.540   0.850  15.086 -0.2295  0.2268  0.1099
32737W        W48206  13.050   4.251  13.436  0.1876 -0.1017  0.4955
32738W        W48207  16.816   0.777   2.546  0.0042  0.0224  0.0712
32739W        W48208   6.945   6.533  10.854  0.1289 -0.1263  0.1081
32740W        W48209  11.667   6.473   4.173 -0.0441 -0.2191  0.2843
32741W        W48210   1.898   6.175  14.519 -0.0737 -0.3605 -0.0733
32742W        W48211   5.250  13.631   2.993  0.0549  0.1534 -0.0251
32743W        W48212  13.774   9.146  14.447  0.2626 -0.2615 -0.1268
32744W        W48213  18.259   6.346  11.440  0.1888  0.2561  0.2097
32745W        W48214  12.805  11.922  14.619  0.0471  0.0916 -0.2874
32746W        W48215  15.282  13.916   4.609  0.3396  0.0340 -0.2179
32747W        W48216  10.302  12.412   2.520  0.3945  0.1026 -0.0488
32748W        W48217   1.093  15.940   2.705 -0.2145 -0.3859  0.0004
32749W        W48218   7.935   9.184   3.749 -0.1592  0.0914 -0.2399
32750W        W48219  11.650   6.384   5.604 -0.2089  0.0747 -0.1805
32751W        W48220   7.869   8.195   2.719  0.1186  0.1450  0.2635
32752W        W48221  18.340   6.175  10.925 -0.1763 -0.1293  0.1532
32753W        W48222   0.891  10.735  15.501  0.0876 -0.0997  0.0306
32754W        W48223  14.745   2.676  15.221  0.1401 -0.1784  0.1112
32755W        W48224  13.503  15.854  13.792 -0.0811 -0.0771 -0.1005
32756W        W48225   8.851   1.376   0.844 -0.1117 -0.1676 -0.2360
32757W        W48226  14.423  10.735   0.396  0.1301 -0.1159 -0.0867
32758W        W48227   9.959   4.777   4.204 -0.0045 -0.0311 -0.0923
32759W        W48228   7.792   1.283  13.929  0.1445  0.3118  0.1902
32760W        W48229  17.537   6.301  15.205  0.1175  0.1652  0.0956
32761W        W48230   1.257  11.353   0.619 -0.0832 -0.2642  0.2843
32762W        W48231  18.180   8.274   0.873 -0.2357  0.0204  0.0651
32763W        W48232  13.941   8.573  12.909 -0.0302  0.2123  0.0622
32764W        W48233  16.141   8.536   3.410 -0.0802 -0.0236  0.1284
32765W        W48234   9.904   9.236  15.069  0.2504  0.1028  0.1107
32766W        W48235  14.059   5.684  15.366 -0.0420  0.0985 -0.1207
32767W        W48236   6.551  16.665  14.382  0.1598 -0.1697 -0.1440
32768W        W48237   8.150  17.125   3.528  0.2316  0.2478  0.1620
32769W        W48238   8.175  17.076   0.903 -0.3385 -0.0640  0.2122
32770W        W48239  13.640   3.749  15.744  0.0685  0.3430 -0.0016
32771W        W48240   9.510   9.747   4.077  0.0605 -0.0029  0.0268
32772W        W48241  16.852   1.550  15.336 -0.0089  0.1943  0.2374
32773W        W48242   3.232   0.286   0.297  0.0449  0.0200  0.0434
32774W        W48243  18.244   4.151   1.343 -0.2889  0.0456  0.2815
32775W        W48244  13.105  16.436   1.655  0.0720 -0.1402 -0.1717
32776W        W48245  13.099   3.021  14.782  0.0471 -0.0904 -0.0982
32777W        W48246   0.565   2.083  10.973  0.2798 -0.1565 -0.2524
32778W        W48247   9.223  11.442   4.346 -0.3268 -0.0791  0.3144
32779W        W48248   7.766   1.718   0.667 -0.0332 -0.1009  0.0998
32780W        W48249  12.186   0.966   2.347 -0.0130  0.3555  0.1722
32781W        W48250   1.715  10.893  12.355 -0.0728  0.2092 -0.1756
32782W        W48251   6.806   6.896   1.782  0.1645  0.0926 -0.1255
32783W        W48252   4.495  10.730   1.227  0.0423 -0.1779 -0.0941
32784W        W48253  13.635   8.118  10.134 -0.1853 -0.0040 -0.0115
32785W        W48254   9.645   5.535   9.972 -0.0773  0.0189  0.0039
32786W        W48255   4.196  10.913   1.599  0.3127  0.0134  0.0735
32787W        W48256   6.252   4.109  12.074  0.0104  0.1994  0.0453
32788W        W48257  15.011   7.744   0.377 -0.2676  0.2068 -0.1890
32789W        W48258   0.461  11.374  12.459 -0.1785  0.0483  0.2705
32790W        W48259  14.976  15.424   2.122  0.3080  0.2506  0.3140
32791W        W48260  16.565  14.431  10.966 -0.0716  0.2386  0.1514
32792W        W48261   7.324   4.977  12.206 -0.2460 -0.1971 -0.1084
32793W        W48262  15.896   1.718   0.283  0.1623 -0.2981  0.1064
32794W        W48263  11.000  16.209   4.107  0.1402 -0.2077  0.2626
32795W        W48264  17.766  12.138  11.953 -0.3087 -0.2211 -0.1176
32796W        W48265   8.713  15.106  14.592 -0.2789 -0.3124 -0.0611
32797W        W48266  13.268   3.291  13.023  0.0014 -0.1143  0.0264
32798W        W48267   2.836   3.055   1.724  0.2113  0.2446  0.1056
32799W        W48268  16.991   6.060  15.161  0.0004 -0.2152  0.0933
32800W        W48269  11.667   4.381  15.444  0.0454 -0.3056  0.0081
32801W        W48270  14.879  16.761   2.468 -0.2619 -0.4896  0.0005
32802W        W48271   2.597   1.487   3.084 -0.0826  0.2816  0.1699
32803W        W48272   2.647  10.857  15.571 -0.2006  0.1549 -0.1709
32804W        W48273   4.826   3.773   5.104  0.1135  0.0177  0.0071
32805W        W48274  13.333  10.042   3.077  0.0540  0.3575 -0.0304
32806W        W48275  14.328  18.536   6.857 -0.3163  0.1650  0.0348
32807W        W48276  11.193   6.940  14.560 -0.0802  0.0859  0.0815
32808W        W48277  17.904  11.663  15.493  0.0165 -0.0660 -0.0797
32809W        W48278   1.794  11.617   2.272 -0.0139 -0.2469 -0.2838
32810W        W48279   5.709   0.308   4.939  0.2384 -0.0213  0.2006
32811W        W48280  15.338   4.245   3.153 -0.0575  0.1054  0.3674
32812W        W48281  14.162   6.463   0.573  0.1179 -0.2003  0.3348
32813W        W48282   4.960   7.799   2.374  0.0764  0.1308 -0.1049
32814W        W48283  17.083  16.376  15.548 -0.0100 -0.1623 -0.3594
32815W        W48284   6.598  12.660  10.722 -0.2414 -0.2197  0.1318
32816W        W48285  15.813  18.595  11.530  0.1022 -0.2161 -0.2480
32817W        W48286   4.761   1.019  13.308  0.0425  0.2953  0.0068
32818W        W48287  16.101   7.371   2.792  0.1000  0.3972  0.3948
32819W        W48288   0.438  18.445   2.484  0.0413 -0.2016  0.1335
32820W        W48289   9.929  14.940  10.835  0.2319 -0.0228 -0.0211
32821W        W48290   0.630  14.171  14.781  0.0483  0.2445  0.0407
32822W        W48291   2.863  18.122   0.759  0.2375  0.0001 -0.2371
32823W        W48292   5.728  13.158   2.390  0.2940  0.1919  0.2185
32824W        W48293   2.884   6.087   1.605  0.1526 -0.0096  0.0496
32825W        W48294   7.876   4.618  13.918 -0.2397 -0.0507 -0.4281
32826W        W48295  15.710   0.213  14.698 -0.1079  0.0554 -0.0514
32827W        W48296  16.172   3.255   2.834  0.1288  0.0842  0.1901
32828W        W48297   8.497   0.871  14.442  0.2259  0.0594 -0.4550
32829W        W48298   9.953  18.218  11.371  0.0837  0.1488  0.3302
32830W        W48299   4.474   9.430  14.713 -0.0617  0.0727  0.2013
32831W        W48300   2.028  11.735   4.540 -0.1850  0.1179  0.2101
32832W        W48301  17.338   5.491  12.993  0.2328  0.1158 -0.0499
32833W        W48302   9.250   3.021   0.933  0.4172  0.2846  0.1899
32834W        W48303   4.312   9.807   2.998  0.2710  0.1473 -0.4208
32835W        W48304  12.323   4.303  15.472 -0.2262  0.1248  0.1176
32836W        W48305   3.497   7.077  12.757  0.1591 -0.2048 -0.0779
32837W        W48306  16.734   2.348   1.711 -0.1259 -0.2836  0.1582
32838W        W48307   5.158  12.007   2.851  0.4756  0.1775  0.3727
32839W        W48308  11.660  15.802   0.698  0.1497  0.0697  0.2372
32840W        W48309  18.555  16.843  13.758  0.1611  0.2677 -0.1404
32841W        W48310   0.707   6.002  12.531 -0.1485 -0.0744  0.4145
32842W        W48311   8.814  10.845  11.845  0.0195 -0.0288 -0.0570
32843W        W48312  12.409  17.551  11.862 -0.2694  0.1447  0.1456
32844W        W48313  16.954   2.882  14.090 -0.1948  0.0386 -0.3553
32845W        W48314   4.297  11.206  12.933 -0.0454  0.0413  0.0403
32846W        W48315   6.710  15.679  11.010  0.0448  0.0803 -0.2035
32847W        W48316  14.149  17.615  11.548  0.1482  0.2973  0.2497
32848W        W48317   7.365  12.197   0.800 -0.1140  0.2095 -0.3171
32849W        W48318  11.302   2.060   5.027  0.0986  0.1290 -0.0071
32850W        W48319   1.827   2.597   4.378  0.0434  0.0291  0.1351
32851W        W48320  11.225   8.501   4.781  0.3031 -0.0829  0.0926
32852W        W48321   2.449   8.947   1.058  0.2811  0.1469 -0.2022
32853W        W48322  15.633   0.249   0.817  0.0758 -0.1787 -0.1788
32854W        W48323   2.132   1.766   4.131  0.0405 -0.2667  0.1893
32855W        W48324   1.861   2.517   2.096  0.6667  0.3219  0.1413
32856W        W48325   0.069  16.662   0.586  0.1283 -0.0511  0.0745
32857W        W48326  17.657  14.709  14.756  0.1520  0.1477 -0.0980
32858W        W48327   7.344   1.580   0.314  0.1320 -0.0555 -0.1638
32859W        W48328   0.040  13.424  15.762 -0.0989  0.2518  0.2266
32860W        W48329  10.918   7.710   3.799 -0.2056 -0.0795  0.1005
32861W        W48330   7.222  18.033   2.552  0.1498 -0.1822  0.1877
32862W        W48331   5.826  14.720   4.708  0.3326 -0.1980 -0.0780
32863W        W48332   1.505   9.830  14.406 -0.0188  0.4549  0.0405
32864W        W48333   4.304   2.420  10.508  0.0064 -0.1805 -0.1203
32865W        W48334   5.963   5.474   3.640 -0.0649  0.3542 -0.0620
32866W        W48335   5.440   3.177  14.634  0.0129  0.0595 -0.0148
32867W        W48336   7.692   6.187   3.490 -0.0883  0.0806  0.0260
32868W        W48337   2.107   0.441  12.693  0.0086 -0.1242  0.3047
32869W        W48338  15.151   3.815   0.735  0.0789 -0.0884 -0.0214
32870W        W48339   4.743  17.207  12.372 -0.0445 -0.1463 -0.4136
32871W        W48340  13.361   8.472   0.766 -0.0023  0.2083  0.0942
32872W        W48341   7.239   9.732   3.565  0.1622 -0.0653 -0.3038
32873W        W48342   7.653   9.964   0.075  0.0447 -0.1632 -0.1163
32874W        W48343  14.547  18.226   0.888  0.1545 -0.0557 -0.0639
32875W        W48344  13.058   4.976   2.527  0.0050  0.4552 -0.1570
32876W        W48345  10.563   0.615  15.098 -0.3040 -0.1254 -0.0231
32877W        W48346   0.593   0.992   3.206  0.2024 -0.0615  0.1756
32878W        W48347   8.506   5.216  13.172  0.0129  0.2057 -0.2273
32879W        W48348   6.605   1.116  13.938 -0.1853 -0.0342 -0.0107
32880W        W48349  11.492   1.287   4.574 -0.2010  0.4648 -0.2788
32881W        W48350   2.046  15.985  10.592  0.2769  0.0506 -0.0383
32882W        W48351   3.679   7.289   1.989  0.1254  0.2254 -0.0632
32883W        W48352   5.172  16.909  15.277 -0.1177 -0.0867 -0.3074
32884W        W48353   4.897   4.143   2.703  0.0704 -0.1492 -0.1427
32885W        W48354  13.059  17.681  14.507  0.1745 -0.1450  0.1570
32886W        W48355  17.122  17.518   6.298 -0.0528  0.1967 -0.0353
32887W        W48356  17.375  17.651  12.215 -0.2519  0.3901 -0.1249
32888W        W48357  12.841  17.040   5.700 -0.0479  0.3529  0.1572
32889W        W48358  14.800   8.642  12.690 -0.1032  0.1197 -0.1308
32890W        W48359   3.339   2.976   4.486  0.0908 -0.2645 -0.0398
32891W        W48360   9.609  10.551   1.421 -0.1953 -0.0432 -0.0770
32892W        W48361   2.914   4.254   4.539 -0.0672 -0.0775  0.4917
32893W        W48362   9.124  13.670   2.215 -0.2650 -0.1666  0.2821
32894W        W48363   7.446  16.589  14.918  0.0236  0.2078 -0.0379
32895W        W48364  13.308   8.467   4.374  0.1851  0.0463 -0.0146
32896W        W48365   9.418   2.043  15.221  0.0368  0.1576 -0.0182
32897W        W48366  16.340  13.315   4.248 -0.1293 -0.2021  0.1545
32898W        W48367   2.457   3.875   0.136 -0.1621  0.2493 -0.0491
32899W        W48368  12.973   4.847   2.996 -0.2541 -0.2159 -0.2357
32900ION     NA48369  12.531   0.437  14.554 -0.2079 -0.0210  0.0390
32901ION     NA48370  16.299  11.527  10.696  0.1613 -0.2738 -0.0468
32902ION     NA48371   2.892   7.924   1.276  0.2775  0.3705  0.0838
32903ION     NA48372  13.464  10.417  10.250  0.1996  0.0997  0.0631
32904ION     NA48373   9.466   1.070   0.069  0.2721 -0.4175  0.0635
32905ION     NA48374   0.002  12.457   9.807 -0.0376  0.0576  0.0738
32906ION     NA48375  17.588  10.159   0.909  0.0074  0.3923  0.0150
32907ION     NA48376  16.958   5.490   9.803  0.1608 -0.1516  0.0192
32908ION     NA48377  16.753  10.506   0.504  0.1116  0.1941 -0.1056
32909ION     NA48378  11.805   7.308   0.911 -0.1247 -0.4009 -0.0025
32910ION     NA48379  14.976  15.893  10.464 -0.1103 -0.0618 -0.1238
32911ION     NA48380  18.198  11.498   5.673 -0.2514 -0.1242  0.1751
32912ION     NA48381  13.412   5.479   5.557 -0.0694  0.0726 -0.1027
32913ION     NA48382  12.232   4.952  15.036 -0.1247  0.3122 -0.3171
32914ION     NA48383  11.183  12.613   5.918 -0.1383  0.0699 -0.0282
32915ION     NA48384   0.542  14.093  10.107 -0.0967  0.0033 -0.0955
32916ION     NA48385   6.849   4.364  12.312  0.0084 -0.2195  0.2500
32917ION     NA48386   3.570   4.034   9.857  0.0522  0.0897 -0.0783
32918ION     NA48387  18.556   2.943  10.326  0.0032 -0.0933 -0.4166
32919ION     NA48388   5.389  14.882  10.160  0.0204  0.0779 -0.0619
32920ION     NA48389   3.377  12.143   5.365  0.0734  0.1225  0.0626
32921ION     NA48390   5.465   2.143  10.326  0.1724 -0.0779  0.0688
32922ION     NA48391  13.217  14.302  10.879  0.0807  0.0043 -0.0859
32923ION     NA48392  11.757   9.805   4.968  0.1155 -0.2293 -0.0034
32924ION     NA48393  17.105   5.324  14.907 -0.0288 -0.1105  0.1050
32925ION     NA48394   7.796   7.123   3.410 -0.0848  0.2336 -0.2566
32926ION     NA48395  11.220  16.777  10.941 -0.1392  0.0487 -0.0980
32927ION     NA48396  18.325   6.032   2.874  0.0177  0.1767  0.2537
32928ION     NA48397   5.504  11.717   1.652  0.2582 -0.1305  0.1551
32929ION     NA48398  13.419   0.979   0.158  0.0229  0.0099  0.0453
32930ION     NA48399  11.699   9.839  10.135  0.1653 -0.3546 -0.0371
32931ION     NA48400  17.910   2.757  14.015  0.1145 -0.0556 -0.0037
32932ION     NA48401   0.584  11.567   1.768  0.1349  0.0261  0.1967
32933ION     NA48402   8.632   4.298  10.266 -0.2262  0.0110 -0.2579
32934ION     NA48403   0.098  17.438   4.506  0.1862 -0.0632  0.0816
32935ION     NA48404   2.708  14.503   0.148  0.4202 -0.2672 -0.0513
32936ION     NA48405   6.313   0.471  10.055 -0.0560 -0.3634 -0.1690
32937ION     NA48406   4.049  17.718   3.432 -0.3750  0.1524  0.1695
32938ION     NA48407  17.990   8.568  15.034  0.1258 -0.4877 -0.0786
32939ION     NA48408   5.392  11.404   3.550 -0.2031  0.0257 -0.0006
32940ION     NA48409   3.522   1.671   5.655  0.0246  0.0262  0.2800
32941ION     NA48410  16.625   2.317   9.697 -0.3285  0.0350 -0.1599
32942ION     NA48411   4.930  13.695  10.612 -0.1965  0.0081  0.3130
32943ION     NA48412  18.226   4.508  15.260  0.1058 -0.1765  0.1057
32944ION     NA48413   8.543  16.489   9.742 -0.0770 -0.1354 -0.2311
32945ION     NA48414   6.744   8.129   4.744  0.2540 -0.0336  0.0115
32946ION     NA48415   6.280  11.907   5.693 -0.1789  0.0237 -0.1223
32947ION     NA48416  13.197  16.404   6.304 -0.0338 -0.3077  0.3088
32948ION     NA48417   1.989   0.971  10.080 -0.0086  0.2392 -0.1626
32949ION     NA48418   3.131   2.036   4.297 -0.2249 -0.0812  0.4322
32950ION     NA48419  10.455   7.347   6.350  0.1151 -0.1663  0.0026
32951ION     NA48420   8.772   5.717   3.849 -0.3475 -0.0093  0.0045
32952ION     NA48421   1.456   9.446   9.318 -0.0717 -0.3689 -0.1363
32953ION     NA48422   6.844   1.199  11.861 -0.1101 -0.2092 -0.0652
32954ION     NA48423  18.276   1.470   9.939 -0.0927 -0.1692  0.0324
32955ION     NA48424  11.558  14.426  13.356  0.1789  0.0943 -0.2623
32956ION     NA48425  10.901   3.545   0.310 -0.1022 -0.2983  0.3923
32957ION     NA48426  11.537   1.987   0.361  0.1141 -0.0570 -0.4559
32958ION     NA48427  12.036  11.002  11.800  0.1184  0.0472 -0.2410
32959ION     NA48428  13.679   3.586  10.059  0.0994  0.1103 -0.4248
32960ION     NA48429   1.767  11.163   9.374 -0.1868  0.0821 -0.0393
32961ION     NA48430   6.081  15.680  11.055 -0.0471 -0.2466 -0.0802
32962ION     NA48431   7.317   9.944   5.608 -0.1191 -0.1593 -0.2213
32963ION     NA48432  10.468  12.195  15.742  0.1030 -0.1450  0.2274
32964ION     NA48433   9.298   9.385   5.720 -0.0898  0.1260  0.1880
32965ION     NA48434   9.238  10.846   1.559  0.0833 -0.3341 -0.1923
32966ION     NA48435   9.953   6.716  10.395  0.2333  0.0635  0.0468
32967ION     NA48436  15.578  15.752   1.367 -0.2230  0.3185  0.1161
32968ION     NA48437  17.485   3.281   5.447  0.0094 -0.0288 -0.4285
32969ION     NA48438  18.023  14.380   3.972  0.1333 -0.3575  0.0643
32970ION     NA48439   5.000  17.262   5.585  0.2127 -0.1349 -0.0590
32971ION     NA48440  14.215  14.298  10.403 -0.0670 -0.1133 -0.1153
32972ION     NA48441  14.609  16.558  15.128  0.2009 -0.0479  0.2457
32973ION     NA48442  12.109   3.747  10.709 -0.3530 -0.0574  0.1623
32974ION     NA48443   9.385  18.066  10.561  0.1084  0.0509 -0.0011
32975ION     NA48444   1.420  12.348   9.667  0.0037  0.0507 -0.1264
32976ION     NA48445   6.899  13.119   3.947  0.0464  0.1766  0.1294
32977ION     NA48446   8.351  17.615   2.287 -0.1318 -0.2197 -0.0233
32978ION     NA48447  16.057  11.793   2.152  0.0800 -0.1645  0.1554
32979ION     NA48448   6.133  13.725   5.598  0.0821  0.0913  0.0238
32980ION     NA48449  12.139   3.875   5.720  0.2958 -0.2092 -0.1989
32981ION     NA48450  12.370  10.254   1.936  0.0872 -0.5000  0.2072
32982ION     NA48451  11.097  17.411   0.016 -0.1410  0.1284  0.0960
32983ION     NA48452  10.171  18.280   1.346 -0.1341 -0.0345  0.3234
32984ION     NA48453  14.137   3.280   6.206  0.1376  0.2104 -0.3889
32985ION     NA48454   2.982  12.510   5.261  0.1549 -0.0025  0.4602
32986ION     NA48455   9.446   6.345  15.705  0.1074 -0.1203  0.0309
32987ION     NA48456   4.636   0.526  10.271  0.3369  0.0292 -0.0090
32988ION     NA48457   8.831   6.837   3.100  0.0179  0.0154  0.0406
32989ION     NA48458  13.362  11.874  10.236 -0.1670 -0.2048  0.0268
32990ION     NA48459  14.665  13.432   5.730  0.1727  0.4295 -0.1102
32991ION     NA48460   7.675  11.462   0.139  0.0580  0.0716 -0.0329
32992ION     NA48461  16.778  11.239   9.979 -0.1289  0.3708 -0.1787
32993ION     NA48462  11.950  18.327   6.362  0.1132 -0.1683  0.1738
32994ION     NA48463   0.215   6.868   1.620  0.4169  0.0769 -0.3980
32995ION     NA48464   4.620   3.750  13.154  0.1750 -0.0633 -0.0568
32996ION     NA48465  11.636  11.929   5.807  0.0007  0.1445  0.0130
32997ION     NA48466  14.612   1.100   0.311 -0.1768  0.2549 -0.1937
32998ION     NA48467   4.127  16.323  10.350  0.2627  0.0820 -0.0141
32999ION     NA48468   0.906   7.443   9.648 -0.1399 -0.1615  0.1370
33000ION     NA48469  12.041  13.082   2.245  0.1264 -0.2191  0.1011
33001ION     NA48470   5.835  10.374   9.978  0.0362 -0.0011 -0.1674
33002ION     NA48471  13.837  12.722  14.916  0.0392  0.0584  0.2528
33003ION     NA48472  10.413   9.929  13.616  0.1265  0.2273 -0.4609
33004ION     NA48473  18.468   0.509   2.849 -0.3223 -0.2599 -0.3458
33005ION     NA48474   7.967  16.647   5.621  0.0987 -0.2272  0.0398
33006ION     NA48475  16.698  10.342   9.857 -0.1397  0.0593  0.0644
33007ION     NA48476  15.701  13.295  14.143 -0.1989  0.1998 -0.0807
33008ION     NA48477  11.755   5.387  10.680 -0.3576  0.0337 -0.0262
33009ION     NA48478   6.493   0.640   2.091  0.0998 -0.0241 -0.0069
33010ION     NA48479  14.596   5.928   9.532 -0.1750 -0.0635  0.0105
33011ION     NA48480   7.764   9.238   9.931  0.0361  0.2821 -0.3207
33012ION     NA48481  12.047   6.520   5.772 -0.1051 -0.0182  0.1383
33013ION     NA48482   9.295  14.417  10.250  0.0165  0.0104 -0.0143
33014ION     NA48483  14.860   0.151  11.925 -0.0150 -0.3786 -0.0120
33015ION     NA48484   9.834  16.329  11.615 -0.1868 -0.0651 -0.0431
33016ION     NA48485   8.948  12.952   1.927 -0.1614  0.0319  0.2517
33017ION     NA48486   5.073   7.446   5.372 -0.1476 -0.3854 -0.0068
33018ION     NA48487   3.648   9.939   1.948  0.1179 -0.1735 -0.0305
33019ION     NA48488  17.612   4.318   3.758 -0.4795 -0.0611  0.1749
33020ION     NA48489   5.054   9.994   0.057  0.1912 -0.3161  0.1111
33021ION     NA48490   0.308  12.064  15.701 -0.3240  0.0824 -0.1976
33022ION     NA48491   8.860   6.826  10.524 -0.1545 -0.1494 -0.1796
33023ION     NA48492  16.053  12.543   2.811 -0.4898 -0.0177 -0.3286
33024ION     NA48493  18.087   1.977   4.346 -0.1945 -0.4304  0.0684
33025ION     NA48494   7.230  10.051  10.692  0.1192  0.0661 -0.0797
33026ION     NA48495  14.251  13.438  10.180  0.2264 -0.2771 -0.4177
33027ION     NA48496   4.547   6.933   5.798 -0.1471 -0.0312 -0.0453
33028ION     NA48497   8.155  10.296   5.310  0.1032 -0.0165  0.0421
33029ION     NA48498   1.702   5.881   3.619 -0.3108 -0.0947 -0.2565
33030ION     NA48499   8.199   0.462  10.400 -0.0078  0.0297 -0.0236
33031ION     NA48500   1.094  18.602  15.586  0.0297  0.2842  0.1055
33032ION     NA48501  14.408   0.862   2.399 -0.0615  0.1571  0.1487
33033ION     NA48502   1.565   3.795   5.120  0.1791  0.1776  0.1179
33034ION     NA48503  13.468  17.018  10.503  0.1680 -0.3192 -0.3001
33035ION     NA48504  11.051  18.499  15.602 -0.4316  0.0127 -0.1900
33036ION     NA48505   8.840  17.538  15.492 -0.0173  0.0726  0.0050
33037ION     NA48506  17.176   9.474   9.388  0.1490  0.1069 -0.1087
33038ION     NA48507  10.646   2.706  10.606 -0.1969  0.1256 -0.0913
33039ION     NA48508   1.249   2.169   9.963 -0.1702 -0.3631 -0.2343
33040ION     NA48509  15.336  15.923  15.382 -0.3616 -0.4320  0.0705
33041ION     NA48510   8.903  13.702   9.941  0.0924 -0.1955  0.1504
33042ION     NA48511   2.983   2.893   1.277 -0.4844 -0.2594 -0.0167
33043ION     NA48512   7.092  18.597   1.729  0.1294 -0.0242 -0.1133
33044ION     NA48513   5.914  18.314  10.483 -0.1148  0.1367 -0.4192
33045ION     NA48514  18.200  15.960   5.861 -0.1194  0.0058  0.0216
33046ION     NA48515   2.432  11.794   5.190 -0.1517 -0.0684  0.2533
33047ION     NA48516   5.825  12.385   9.719 -0.2425 -0.2342  0.0775
33048ION     NA48517  15.625   6.539   0.677  0.0514  0.2909 -0.0545
33049ION     NA48518   0.202  13.672   5.230 -0.0061  0.0388 -0.1593
33050ION     NA48519   4.595  17.594   5.669 -0.2133 -0.0469  0.0966
33051ION     NA48520  15.875  10.128  12.292  0.1372 -0.0487 -0.0607
33052ION     NA48521   1.898   2.964   5.394  0.0378 -0.0912 -0.1165
33053ION     NA48522   8.206   2.593  10.369  0.0019  0.0439  0.0181
33054ION     NA48523   1.770   1.293   5.541  0.1871  0.2082 -0.3602
33055ION     NA48524   9.695   3.609   4.681  0.1240  0.1631 -0.1291
33056ION     NA48525   2.729   8.315   2.872 -0.1644  0.1201  0.3122
33057ION     NA48526  13.045  12.747  10.151  0.2400 -0.1099  0.2626
33058ION     NA48527  14.204   4.130   0.772 -0.1428 -0.1205 -0.0639
33059ION     NA48528   5.199   4.773   5.598 -0.2705  0.0687 -0.0754
33060ION     NA48529   1.053  12.617  14.301 -0.1355  0.2355  0.0632
33061ION     NA48530   7.065  11.256   4.750 -0.5705  0.1540 -0.0505
33062ION     NA48531  11.291   2.028  11.406  0.0413  0.0615  0.2163
33063ION     NA48532   7.524   8.076  14.378 -0.2353  0.0726 -0.0455
33064ION     NA48533  13.705  18.505   6.339  0.3004 -0.2368  0.0422
33065ION     NA48534  11.472  15.321  13.592  0.0574 -0.2728  0.0931
33066ION     NA48535   8.192   1.584  15.637  0.0433  0.0545 -0.3461
33067ION     NA48536  11.948   1.667  15.300  0.1627  0.0587 -0.0337
33068ION     NA48537  12.544   6.014   1.670 -0.1509  0.0754 -0.0411
33069ION     NA48538   2.442   5.768  11.886  0.2346  0.2573  0.0134
33070ION     NA48539   5.204   5.941  10.124  0.1332  0.3966  0.3045
33071ION     NA48540  14.266   8.140   3.334 -0.2070 -0.0785 -0.2015
33072ION     NA48541  14.925   4.996   9.568 -0.1516 -0.1932  0.1985
33073ION     NA48542   9.997   6.066   0.767 -0.2447 -0.1328 -0.3534
33074ION     NA48543  10.845  11.692  10.279 -0.4150 -0.1855 -0.0512
33075ION     NA48544  16.294   7.803   3.942  0.1421 -0.2799  0.3078
33076ION     NA48545  18.261   2.530   0.370 -0.0206 -0.1273  0.1253
33077ION     NA48546   7.242   9.735   1.591  0.0603 -0.1092  0.0014
33078ION     NA48547   9.162   2.596   3.110  0.0681 -0.0160  0.2225
33079ION     NA48548  13.802  17.667   2.854  0.0271 -0.0994  0.0986
33080ION     NA48549   5.923  18.623   5.308  0.0919  0.0633 -0.1650
33081ION     NA48550  11.322  13.027   9.865  0.0696 -0.0284  0.0574
33082ION     NA48551  15.871   0.485  12.874  0.0227 -0.1173  0.2490
33083ION     NA48552  10.790   5.705   1.147 -0.0230  0.0503  0.0233
33084ION     NA48553  15.015   8.517   1.484 -0.0865 -0.1699 -0.2929
33085ION     NA48554  12.111   3.931   0.958 -0.1906  0.0738  0.0223
33086ION     NA48555   7.379   7.714  12.272  0.0607  0.2547  0.0913
33087ION     NA48556   9.075   0.342  10.467  0.0105 -0.2515 -0.2125
33088ION     NA48557   1.101  16.332   1.154 -0.0846  0.1314 -0.0358
33089ION     NA48558   2.300  15.967   1.259 -0.2307 -0.1085  0.3380
33090ION     NA48559  12.010   4.410  11.928 -0.2260 -0.2763 -0.1037
33091ION     NA48560   8.290  12.912  11.336 -0.0930  0.0788 -0.1535
33092ION     NA48561   6.227  15.805   1.366 -0.0328 -0.2508  0.0369
33093ION     NA48562   7.032  17.311   5.598 -0.0208 -0.1399 -0.0688
33094ION     NA48563   2.031  16.812  10.039 -0.0215 -0.2059  0.0054
33095ION     NA48564   4.578   8.194   9.812 -0.0211  0.1103 -0.1511
33096ION     NA48565   4.568  12.368   2.571 -0.2009  0.2279  0.2816
33097ION     NA48566   3.430   1.186  10.088  0.0707  0.0832 -0.1425
33098ION     NA48567   8.175   5.201  14.654 -0.3746  0.1472 -0.1749
33099ION     NA48568   9.852  10.832   0.509  0.0234 -0.1148 -0.0368
33100ION     NA48569   0.620  17.812   0.219 -0.0169  0.1121 -0.3047
33101ION     NA48570  15.739  18.587   1.941 -0.3113  0.1393  0.0613
33102ION     NA48571  12.016  10.145   5.737  0.1114 -0.1988 -0.3400
33103ION     NA48572  16.894   2.617   5.474 -0.1194  0.1363 -0.1337
33104ION     NA48573  13.940  13.920   2.969 -0.0595 -0.2339  0.0002
33105ION     NA48574   1.951   6.258  15.020 -0.4499 -0.2997  0.0139
33106ION     NA48575   3.537   2.614   5.719 -0.1593 -0.2962  0.1258
33107ION     NA48576   2.220   3.167   4.738 -0.0073  0.1023 -0.1296
33108ION     NA48577  14.217   2.315   5.706  0.0119  0.2473 -0.0779
33109ION     NA48578   1.300   6.214   4.866  0.3923  0.0064  0.2105
33110ION     NA48579   2.634  14.688   5.763  0.2725 -0.0189 -0.1347
33111ION     NA48580   4.327   4.466   0.962  0.1209 -0.3517 -0.0276
33112ION     NA48581   1.007  13.494   1.810  0.1185 -0.0373 -0.0019
33113ION     NA48582   4.637   6.012   5.775 -0.1908  0.2533 -0.0134
33114ION     NA48583   1.497  17.458   0.165  0.5133  0.2493  0.0786
33115ION     NA48584   5.640  15.843  12.694 -0.0961 -0.0376 -0.1681
33116ION     NA48585   8.460  10.097   2.744 -0.1109 -0.1064 -0.0834
33117ION     NA48586   2.690  16.597   2.744 -0.0147 -0.0704 -0.0650
33118ION     NA48587  18.232  10.919   0.135 -0.3452 -0.0792 -0.0425
33119ION     NA48588   1.421  11.155   0.139 -0.0822  0.3311 -0.4509
33120ION     NA48589  11.958   2.165  10.636  0.2513 -0.1968  0.0919
33121ION     NA48590  12.554  18.514  10.641  0.0721  0.1487  0.0759
33122ION     NA48591  17.686   1.299  12.899  0.1254  0.0932 -0.1128
33123ION     NA48592   1.378   5.533   9.298 -0.0283 -0.2053 -0.0364
33124ION     NA48593  16.795  18.326   9.765  0.1099  0.0689 -0.1639
33125ION     NA48594   3.287  16.089  13.905  0.1421 -0.1369 -0.0223
33126ION     NA48595   2.886  17.067   5.803  0.3470 -0.1645  0.0114
33127ION     NA48596   1.803   5.939   5.055  0.1433  0.0553 -0.1134
33128ION     NA48597  11.294   5.868   5.732  0.3062 -0.3668  0.1719
33129ION     NA48598   3.134   8.889   9.634 -0.0709  0.3370  0.0236
33130ION     NA48599   6.464  15.338  10.395  0.0544  0.2841  0.3158
33131ION     NA48600  14.628   2.871  15.653 -0.1829  0.0747 -0.1684
33132ION     NA48601  14.764  13.367  13.706  0.1071  0.1561  0.1170
33133ION     NA48602   4.917  10.880   9.889  0.3136  0.0024  0.2639
33134ION     NA48603  15.568  14.505   5.895  0.2180  0.2613 -0.1103
33135ION     NA48604   7.713   8.856   3.429  0.3558  0.0628 -0.1361
33136ION     NA48605   7.617  13.036   5.356  0.1284 -0.3432  0.2239
33137ION     NA48606   3.705  12.453  10.032 -0.0394 -0.1482  0.0089
33138ION     NA48607  15.182   8.229   3.555 -0.1988  0.1299 -0.0659
33139ION     NA48608   6.514   5.975  14.590  0.2795  0.0945  0.5379
33140ION     NA48609   2.198  12.605   5.335  0.0082 -0.0937 -0.1328
33141ION     NA48610   7.898   4.007   6.308 -0.3848 -0.3524  0.4165
33142ION     NA48611   7.991  14.875   3.911  0.0035 -0.0026  0.3979
33143ION     NA48612  12.918   7.601  14.294 -0.0679 -0.0496 -0.2805
33144ION     NA48613   1.015   4.312   9.420 -0.1898 -0.2041  0.1586
33145ION     NA48614  12.200   4.910   5.885  0.0383  0.3163 -0.0599
33146ION     NA48615   1.535   2.897   4.052  0.2200 -0.3206 -0.0891
33147ION     NA48616  13.099  12.651   1.834 -0.0975  0.1680 -0.2080
33148ION     NA48617  18.223  18.527   3.381 -0.0012 -0.1031 -0.2039
33149ION     NA48618   5.245   7.854  13.956  0.3418  0.2710  0.2732
33150ION     NA48619  16.479  18.372  13.788 -0.2015 -0.0135 -0.1609
33151ION     NA48620   8.307   6.437   2.829  0.1275 -0.1904 -0.2224
33152ION     NA48621   7.297   2.447   5.924  0.0931  0.2268 -0.1722
33153ION     NA48622   9.394   2.513   1.040 -0.2829 -0.4243  0.2787
33154ION     NA48623  17.775   3.454  15.174 -0.1280  0.0169 -0.1355
33155ION     NA48624  14.419  13.935   3.448 -0.1380 -0.1467  0.2043
33156ION     NA48625  16.553  13.961   5.551  0.0574 -0.1113  0.1405
33157ION     NA48626  18.414  16.878  10.083 -0.0939 -0.2324  0.3124
33158ION     NA48627  14.098   7.596   1.417 -0.0377 -0.1998 -0.1926
33159ION     NA48628   0.320  13.344   9.885  0.1814 -0.1173 -0.0723
33160ION     NA48629   5.475  15.429  12.384  0.0325  0.0777  0.0482
33161ION     NA48630  15.366  15.002  13.832  0.3008 -0.2496  0.1244
33162ION     NA48631  11.402   7.569  11.002  0.2275  0.1194 -0.0749
33163ION     NA48632   9.422  16.918  10.118  0.0316 -0.0651  0.3545
33164ION     NA48633  15.993  18.579   0.580 -0.2609 -0.0048 -0.1523
33165ION     NA48634   3.589   7.428   5.207  0.0599  0.2339  0.1384
33166ION     NA48635  15.393   7.142  13.423 -0.1136 -0.0713  0.1757
33167ION     NA48636  12.930   2.229   6.042  0.0977  0.1285 -0.1831
33168ION     NA48637   4.389  14.238   9.966  0.0280 -0.2221 -0.0477
33169ION     NA48638  12.855   0.192   6.148 -0.1115 -0.4258  0.0103
33170ION     NA48639   0.557   7.359  15.716 -0.0378 -0.2822 -0.2358
33171ION     NA48640   5.099   8.457   0.018  0.1671  0.0415  0.1243
33172ION     NA48641   5.306   0.801   1.330  0.3853  0.2532 -0.1713
33173ION     NA48642   5.754  15.593   5.628  0.2972  0.1150 -0.2168
33174ION     NA48643   5.680   9.372   9.917  0.0419 -0.0681  0.2084
33175ION     NA48644   5.246   8.186   3.282  0.1262 -0.4175  0.2240
33176ION     NA48645  12.874  13.517   3.457  0.0999 -0.1799  0.3216
33177ION     NA48646  14.452   1.732  13.148 -0.2406 -0.2146 -0.1788
33178ION     NA48647   4.813   3.355  12.439 -0.2692 -0.4991  0.3495
33179ION     NA48648  11.985  17.616  10.913 -0.0636  0.1131  0.1768
33180ION     NA48649   7.888   2.843   5.748  0.0751 -0.1379  0.0174
33181ION     NA48650   3.910   4.530  11.431 -0.0970 -0.1702  0.2849
33182ION     NA48651  13.245   2.774   1.525 -0.1633 -0.2432 -0.1816
33183ION     NA48652   5.308   9.934   9.933 -0.0676  0.2028  0.0113
33184ION     NA48653   0.176   8.968   9.481  0.3570 -0.0759  0.4236
33185ION     NA48654   0.731   5.616  10.240 -0.0384 -0.0375 -0.2507
33186ION     NA48655   0.509  13.186   5.713 -0.1628 -0.1340  0.0614
33187ION     NA48656  11.412  16.136  10.476 -0.0635  0.0887 -0.0966
33188ION     NA48657   9.735  16.162  14.903 -0.1460  0.0381 -0.0109
33189ION     NA48658   4.513   4.367  10.207 -0.1096  0.0683 -0.2360
33190ION     NA48659  14.862   1.000  14.946 -0.1740 -0.0260  0.0398
33191ION     NA48660   2.275  13.853   9.842  0.0020 -0.0814 -0.2345
33192ION     NA48661  11.068   9.700  10.060  0.1791  0.0934  0.1629
33193ION     NA48662  13.265  14.644  10.400  0.2078 -0.2776  0.3613
33194ION     NA48663  13.006   9.711  10.143  0.1687 -0.2870 -0.0043
33195ION     NA48664  11.320   8.025   6.189  0.1502 -0.2401  0.1139
33196ION     NA48665   4.324   1.398   9.925  0.2037 -0.2111  0.0538
33197ION     NA48666  17.678   4.291   1.374  0.1021  0.6285  0.3000
33198ION     NA48667  16.644   1.397  10.039 -0.0496 -0.1830 -0.2121
33199ION     NA48668  17.396   6.215  11.571 -0.2437 -0.2450 -0.0921
33200ION     NA48669  11.725  14.685   9.911  0.0680 -0.0868  0.2061
33201ION     NA48670   9.263  16.678   2.564  0.1470  0.1049  0.1537
33202ION     NA48671   9.144  14.116   0.736  0.1826 -0.1359 -0.0213
33203ION     NA48672   2.238   1.242  13.041 -0.0051 -0.2694  0.2335
33204ION     NA48673  11.074   1.552   6.435 -0.2131  0.0423  0.1576
33205ION     NA48674  16.138  12.304   4.961 -0.1514 -0.0455 -0.2342
33206ION     NA48675   8.362  15.784   4.663  0.0725 -0.2014 -0.0666
33207ION     NA48676  15.770   5.153   1.277  0.2205  0.0093  0.2471
33208ION     NA48677  15.364  12.347   0.991  0.1237 -0.0628  0.1346
33209ION     NA48678  17.907   8.869   2.263 -0.1416  0.0213  0.0924
33210ION     NA48679  16.950   6.971  14.547 -0.1680 -0.0588  0.2356
33211ION     NA48680   3.764   8.400   9.898 -0.0122  0.0847  0.0261
33212ION     NA48681   0.773  17.349  12.431 -0.0874 -0.1853  0.1111
33213ION     NA48682  14.455  12.897   1.854  0.0420 -0.3745  0.2535
33214ION     NA48683  17.955   8.928   4.008 -0.1561 -0.0858  0.0142
33215ION     NA48684  13.115   7.768  11.440 -0.3161  0.1230  0.1234
33216ION     NA48685  12.233  14.339  14.065 -0.3993 -0.3014  0.0111
33217ION     NA48686   0.627  16.467   2.024 -0.3311 -0.1272 -0.2194
33218ION     NA48687   4.356   3.404   9.974 -0.2141 -0.0573 -0.0891
33219ION     NA48688   1.137  11.792   9.627 -0.1021 -0.2706  0.4231
33220ION     NA48689   8.110  14.628  10.205 -0.0304  0.2734 -0.1403
33221ION     NA48690  16.073  14.646   5.935 -0.1387 -0.2558 -0.3675
33222ION     NA48691  12.509  17.510   3.544 -0.2360 -0.0472  0.0191
33223ION     NA48692   3.108  18.391   0.222 -0.0592 -0.0034 -0.0541
33224ION     NA48693  16.531   8.745  15.524  0.0184  0.1737  0.0101
33225ION     NA48694  10.758  10.180   5.899  0.0199 -0.2701 -0.2682
33226ION     NA48695   6.157  16.668  10.225 -0.0982 -0.1627 -0.0866
33227ION     NA48696  16.069  12.110   4.177 -0.3528  0.2182 -0.0356
33228ION     NA48697   6.050  17.284   0.992 -0.1828 -0.0258 -0.1225
33229ION     NA48698   5.138   3.762  10.411 -0.0007  0.3776  0.0631
33230ION     NA48699  13.156   2.974  10.461 -0.0743  0.1894  0.1311
33231ION     NA48700  11.196  15.162  10.336 -0.3510  0.4689  0.2967
33232ION     NA48701   6.481  10.442   1.777  0.2729 -0.1064 -0.1100
33233ION     NA48702   5.942   3.579   1.311  0.1028  0.4017  0.0594
33234ION     NA48703   4.181   3.996  14.317 -0.2732 -0.4498 -0.1848
33235ION     NA48704   7.380  12.135   5.186 -0.1493 -0.1410 -0.1295
33236ION     NA48705   3.452   5.823   5.494  0.1434  0.2892  0.1397
33237ION     NA48706  11.056  17.186   4.237 -0.0351  0.2576 -0.0800
33238ION     NA48707   0.973  12.101   1.112  0.0175  0.0561  0.0602
33239ION     NA48708   4.339  18.353   5.479  0.0278  0.3511  0.0870
33240ION     NA48709  12.271  16.304   6.137 -0.1142 -0.1968  0.1536
33241ION     NA48710   4.670  16.428  12.357 -0.0799 -0.0769  0.0807
33242ION     NA48711   2.725   1.704   9.876 -0.1072 -0.2596 -0.0457
33243ION     NA48712   8.837   7.472   6.121  0.0926 -0.0504 -0.2191
33244ION     NA48713   1.145  10.218   2.912 -0.0492  0.0217  0.0733
33245ION     NA48714   0.508  10.058  12.997 -0.2041 -0.0876  0.0914
33246ION     NA48715  11.470   2.853  12.278  0.1193  0.1315  0.0625
33247ION     NA48716  10.549   2.064   2.302 -0.1277 -0.3488  0.0305
33248ION     NA48717   1.815  15.572  10.153  0.0395  0.1851  0.0707
33249ION     NA48718   0.087   5.816   9.609 -0.3021  0.1990  0.2724
33250ION     NA48719  10.319   9.071   0.414 -0.2196  0.0958 -0.2223
33251ION     NA48720  13.261  17.141   4.619  0.1679 -0.1977 -0.2204
33252ION     NA48721  18.258  10.923   3.977  0.4000  0.1087 -0.0845
33253ION     NA48722  13.673   9.228   3.726  0.2065 -0.1270 -0.0744
33254ION     NA48723   2.226   4.008   2.165 -0.0258  0.3273  0.1060
33255ION     NA48724  11.131   2.361  10.629  0.1099 -0.0957 -0.0146
33256ION     NA48725   3.740   1.938  10.211 -0.1081  0.2663 -0.0717
33257ION     NA48726   6.563   4.105  14.923 -0.2286  0.3490  0.1773
33258ION     NA48727   2.679   6.968  10.037 -0.1012 -0.0894 -0.0248
33259ION     NA48728  12.161  15.003   2.618 -0.0381  0.4064 -0.1831
33260ION     NA48729  10.163  17.960   4.289  0.0543 -0.0082 -0.1626
33261ION     NA48730  17.429   2.474   4.562  0.0423  0.1093 -0.1265
33262ION     NA48731  16.675  11.918   5.581  0.3592  0.1013 -0.1031
33263ION     NA48732  15.004  17.207   2.145  0.2172 -0.0142  0.5517
33264ION     NA48733   4.695   0.507   4.515 -0.0517  0.0575 -0.1463
33265ION     NA48734  14.561  10.269  10.158 -0.0994 -0.0487 -0.0907
33266ION     NA48735  11.840   9.135   3.615  0.1035  0.3244  0.1153
33267ION     NA48736   6.514  11.515   9.690 -0.3030 -0.1379  0.2472
33268ION     NA48737   6.546   2.832  10.126  0.4066  0.2534  0.0197
33269ION     NA48738   3.288  13.960  11.191  0.1367  0.3484  0.3833
33270ION     NA48739   1.766   2.778  10.209 -0.2801 -0.1185 -0.1857
33271ION     NA48740   0.315   5.740   3.615  0.0648  0.0742 -0.1158
33272ION     NA48741  13.428  18.464  15.528 -0.2499 -0.2779  0.2175
33273ION     NA48742  11.323  10.654  10.375 -0.0522  0.1116 -0.4086
33274ION     NA48743   9.957  10.228  15.069 -0.0786  0.0093  0.0669
33275ION     NA48744   0.273  17.022   1.310 -0.3178 -0.0764  0.2008
33276ION     NA48745   6.489   3.322  15.461 -0.2335  0.1272 -0.3302
33277ION     NA48746   6.699   7.432   5.397  0.3154 -0.0132 -0.0548
33278ION     NA48747  13.413  17.976   0.603 -0.1976 -0.1834  0.2965
33279ION     NA48748   5.004  12.250   9.723 -0.1329  0.2637  0.3287
33280ION     NA48749  13.757   3.718   4.016 -0.3564 -0.4619  0.2524
33281ION     NA48750  14.729  11.971   6.108  0.1462  0.3055  0.0864
33282ION     NA48751   3.824  13.706   5.933  0.0445  0.2150 -0.1401
33283ION     NA48752   4.414   2.870   0.269 -0.2407 -0.2115 -0.1041
33284ION     NA48753  11.673  11.084   5.959 -0.1789  0.0379  0.0640
33285ION     NA48754  18.215   3.417   1.637  0.0897 -0.0976 -0.1394
33286ION     NA48755   7.316   2.922  14.706 -0.2426 -0.3321  0.1439
33287ION     NA48756   5.218   1.288  12.291 -0.0298 -0.1254 -0.0327
33288ION     NA48757   3.981  13.016  11.237 -0.2850  0.0942  0.1754
33289ION     NA48758   5.906  12.198  12.510  0.2376 -0.2842  0.3825
33290ION     NA48759   0.194   8.052  11.533  0.3040  0.1812  0.3405
33291ION     NA48760  12.666  10.459  14.395  0.0038  0.0871  0.0029
33292ION     NA48761   3.790   0.824   2.454 -0.2714  0.0685  0.4562
33293ION     NA48762   7.694  15.955   2.309 -0.4004 -0.1282  0.1570
33294ION     NA48763   0.332   5.971   2.204 -0.1209 -0.2434  0.2363
33295ION     NA48764   8.399  11.926  10.453  0.1370  0.3422 -0.0050
33296ION     NA48765   5.458  14.422  14.671  0.0381 -0.0696  0.1232
33297ION     NA48766  11.770  11.383  14.609 -0.2618  0.1278 -0.2633
33298ION     NA48767  15.202   6.982  12.899 -0.0208  0.2610 -0.0797
33299ION     NA48768   3.903  10.167  10.055 -0.0301  0.3823  0.5534
33300ION     NA48769  11.306  11.269   0.722  0.2291  0.0783  0.0963
33301ION     NA48770   8.833   2.145  10.602  0.2185  0.0770  0.0315
33302ION     NA48771  14.165   0.785  15.479  0.0038  0.1303 -0.1688
33303ION     NA48772   2.539  18.032   9.991 -0.2002 -0.0426 -0.1184
33304ION     NA48773  11.144  13.941  10.094 -0.0064  0.3629  0.1865
33305ION     NA48774  15.730   8.770  10.051 -0.2937 -0.0972  0.1814
33306ION     NA48775   7.791  16.064   9.880  0.1321 -0.1845 -0.3301
33307ION     NA48776   5.542  17.351   0.295  0.1759 -0.3703 -0.2896
33308ION     NA48777  10.296   1.955   6.403  0.5172 -0.2985  0.1348
33309ION     NA48778   1.219   9.209  12.402  0.3204 -0.2827 -0.0752
33310ION     NA48779  10.713   3.097  10.930  0.1319 -0.0506 -0.0810
33311ION     NA48780   8.929  14.635  10.071  0.1742  0.0897  0.3617
33312ION     NA48781  12.665   9.641   2.870  0.2315  0.3339 -0.4916
33313ION     NA48782  17.248  16.697   5.023  0.0983 -0.0204  0.1867
33314ION     NA48783  14.285  12.755   5.350  0.1608 -0.0008 -0.0544
33315ION     NA48784  11.089  18.601  11.023  0.1325 -0.0998  0.3019
33316ION     NA48785   8.135  18.469   2.250  0.1165  0.2221  0.3827
33317ION     NA48786   0.185  15.683   5.873  0.2520  0.0946  0.0063
33318ION     NA48787  17.457   8.558   9.278  0.1832 -0.0121  0.0316
33319ION     NA48788   6.954  12.691   9.765 -0.3668  0.2290  0.0616
33320ION     NA48789   5.450   5.837   2.766 -0.1028 -0.0790  0.0767
33321ION     NA48790  15.620   3.230   3.451  0.1804  0.2501  0.1038
33322ION     NA48791   7.241   5.627   5.918  0.0679 -0.2661  0.2987
33323ION     NA48792  17.433  14.733  10.073 -0.2882 -0.2315  0.3060
33324ION     NA48793   4.157  17.974  14.461 -0.1573 -0.0467  0.0658
33325ION     NA48794   0.370  14.456   2.339 -0.1333  0.3177  0.2263
33326ION     NA48795  13.034  12.483   5.750  0.0119  0.3790 -0.2134
33327ION     NA48796   0.321  16.150   9.991 -0.0627  0.1295 -0.1927
33328ION     NA48797  13.492  15.282  13.410  0.0473  0.1922  0.1538
33329ION     NA48798   7.907  16.154  12.633 -0.1554 -0.0991  0.1411
33330ION     NA48799   9.097   0.801  10.724  0.1591 -0.0911 -0.3189
33331ION     NA48800  10.198   8.693  15.264 -0.2498 -0.2898 -0.0085
33332ION     NA48801   4.772   7.216   9.854 -0.0654  0.4487  0.4507
33333ION     NA48802  14.984   2.474  10.544 -0.2488  0.1511  0.0003
33334ION     NA48803   1.654  16.327   5.504 -0.0200 -0.1162  0.0927
33335ION     NA48804  10.119  10.978   5.808 -0.3123  0.1678 -0.4512
33336ION     NA48805   6.449  16.230  10.302  0.0254  0.2291 -0.2310
33337ION     NA48806  10.957   6.234   4.757 -0.1257 -0.1468  0.2985
33338ION     NA48807   6.361   3.469  11.004 -0.0989 -0.0997  0.1312
33339ION     NA48808  16.519   8.794   9.418 -0.0930 -0.0336  0.1598
33340ION     NA48809  17.298   7.665  11.629  0.0717  0.0331 -0.0584
33341ION     NA48810   1.543   4.131   1.214 -0.2052 -0.0743  0.0370
33342ION     NA48811  12.357   2.913   6.190  0.2779  0.1582  0.1045
33343ION     NA48812  15.380   8.386  15.740 -0.0181 -0.0015  0.0546
33344ION     NA48813   2.363   5.338   4.903  0.0233  0.1478  0.3216
33345ION     NA48814   5.592  16.634   5.549 -0.1437  0.1695 -0.2923
33346ION     NA48815   3.220  11.871   0.777 -0.1173 -0.5037 -0.0591
33347ION     NA48816  10.478   8.180   3.102  0.0865 -0.0542  0.0272
33348ION     NA48817  17.140   4.416   9.538 -0.1878  0.0214 -0.0652
33349ION     NA48818  17.203   8.887  13.747 -0.0453 -0.2184 -0.1534
33350ION     NA48819   1.334  12.714  15.464 -0.1660 -0.1743 -0.3197
33351ION     NA48820  14.692  12.399   2.685 -0.1055  0.0641 -0.1482
33352ION     NA48821   2.350  16.395  12.644  0.1693  0.1263 -0.2662
33353ION     NA48822  16.669  14.925   2.690 -0.0473  0.1559  0.0287
33354ION     NA48823  13.432  16.047  10.701  0.0812  0.1584  0.1976
33355ION     NA48824   5.170  12.716   4.242  0.3752  0.1065  0.1383
33356ION     NA48825  10.527   7.438  10.684 -0.2238 -0.3787 -0.1295
33357ION     NA48826  16.999   5.971   9.498  0.0295  0.2013  0.4645
33358ION     NA48827  15.675  17.576  10.055  0.1085  0.2514  0.1298
33359ION     NA48828   6.728   9.291   5.773 -0.0737 -0.2277  0.1196
33360ION     NA48829   4.988   5.991   3.400  0.0976 -0.1958 -0.2240
33361ION     NA48830   5.873  12.132  14.130 -0.0092 -0.0289 -0.0151
33362ION     NA48831   7.932   4.829   0.336 -0.1182 -0.1323  0.1627
33363ION     NA48832   3.994  15.345  10.268  0.0914  0.1656  0.0134
33364ION     NA48833  15.061  13.244  10.512 -0.2175 -0.0020  0.2010
33365ION     NA48834   1.711  14.754   5.708 -0.1901  0.0308  0.0690
33366ION     NA48835   3.647   4.436   3.320  0.0935  0.0798 -0.3563
33367ION     NA48836   0.899  15.491   2.400 -0.1551  0.0601 -0.3935
33368ION     NA48837   6.660   5.699   9.691  0.5425 -0.0380  0.0629
33369ION     NA48838  12.842   7.325   0.374  0.3069  0.1464  0.1710
33370ION     NA48839   1.745  18.531   3.991  0.1330  0.0479 -0.1133
33371ION     NA48840   8.134  14.970  14.109  0.1397 -0.3056 -0.0640
33372ION     NA48841  15.461   6.834   9.882  0.1137 -0.1677  0.0497
33373ION     NA48842   4.811   9.086   9.850 -0.3155 -0.0404 -0.1889
33374ION     NA48843   0.100   2.221   9.562 -0.0890 -0.0671 -0.0240
33375ION     NA48844   2.898   7.017   2.523 -0.0891 -0.6010  0.1145
33376ION     NA48845  16.723   3.741  10.024 -0.2530 -0.0761  0.3575
33377ION     NA48846   2.700  15.440  10.034  0.0727  0.2063 -0.1653
33378ION     NA48847   5.345   1.412   5.729  0.1790 -0.2112  0.1013
33379ION     NA48848   1.013  10.285   9.468  0.0332 -0.0512 -0.1105
33380ION     NA48849   2.249   3.522   9.691  0.0326 -0.3942 -0.0391
33381ION     NA48850   3.617   4.780  14.972  0.2274 -0.1562  0.1054
33382ION     NA48851   4.187   5.635   2.884 -0.0668 -0.0655 -0.1255
33383ION     NA48852  11.836  17.022   6.287 -0.2127  0.0541  0.0470
33384ION     NA48853   3.782  18.454   4.247 -0.2093  0.4158 -0.0760
33385ION     NA48854   8.241  14.643  11.931  0.0682 -0.1626  0.0195
33386ION     NA48855  16.263   1.059   3.540  0.0153  0.1138  0.2683
33387ION     NA48856  15.212  10.983   4.242 -0.0550  0.0702 -0.0341
33388ION     NA48857  18.032  13.299  15.041  0.2920  0.1773  0.1459
33389ION     NA48858  17.711  15.574  10.406 -0.0666  0.0500 -0.2984
33390ION     NA48859  10.570   3.964  10.526 -0.2428  0.0281 -0.1411
33391ION     NA48860   5.111  17.903  10.386 -0.5310 -0.0378  0.1751
33392ION     NA48861   6.538   3.599   5.722  0.0095  0.0746 -0.1235
33393ION     NA48862  10.055   1.608  13.251  0.1612  0.0202  0.2068
33394ION     NA48863   4.420  15.745   5.217  0.0609 -0.0359 -0.2207
33395ION     NA48864   4.017  15.931   1.772  0.0252  0.3869  0.1522
33396ION     NA48865  11.141   7.968  14.575  0.1229 -0.1733 -0.1494
33397ION     NA48866   6.036  18.381   5.879  0.2188  0.2755  0.0837
33398ION     NA48867  15.508   6.295   5.421  0.2068  0.2942 -0.5869
33399ION     NA48868  18.142  16.021  10.188  0.0877  0.0845 -0.0639
33400ION     NA48869   8.934   8.631  14.772  0.2488  0.4000  0.1466
33401ION     NA48870  12.117  12.717  10.091  0.0287 -0.2074  0.0723
33402ION     NA48871  11.978   4.445   3.883  0.0940 -0.0461  0.1156
33403ION     NA48872   4.013   5.876  13.047  0.1128 -0.1807  0.0633
33404ION     NA48873   6.687  10.753   5.694  0.0770 -0.0818  0.3438
33405ION     NA48874   6.576  14.632   5.645 -0.0408  0.1818 -0.0491
33406ION     NA48875   3.106   9.509   1.363 -0.0644  0.2252  0.2377
33407ION     NA48876  17.603  17.460   6.100  0.0440 -0.0353  0.2883
33408ION     NA48877  10.871   5.089  13.148  0.1917  0.1691  0.2049
33409ION     NA48878   3.134   7.312  14.664 -0.1638  0.0741  0.1957
33410ION     NA48879   5.634   9.214  11.609 -0.3929  0.1621  0.1244
33411ION     NA48880   1.913   0.103   9.762  0.0014 -0.0044  0.2142
33412ION     NA48881   0.660   0.452   2.421 -0.3090 -0.2201  0.2087
33413ION     NA48882  17.985  11.632   9.794  0.0188 -0.0370 -0.2744
33414ION     NA48883  10.203   1.955  10.790  0.0701 -0.0021 -0.0271
33415ION     NA48884  12.366   9.132  10.349 -0.2172 -0.2568 -0.0784
33416ION     NA48885  15.939   9.887   5.326  0.4973 -0.3749  0.0543
33417ION     NA48886   3.667   8.473   3.356 -0.4010 -0.1741 -0.0605
33418ION     NA48887  13.824  11.422   2.786 -0.1547  0.1359 -0.1028
33419ION     NA48888  10.323   1.302  14.624 -0.1495  0.0509  0.0278
33420ION     NA48889   6.058   6.350  10.114 -0.0271  0.1776  0.1648
33421ION     NA48890  17.751  16.629  12.185 -0.3014 -0.0284 -0.1683
33422ION     NA48891  15.105   6.817   3.454 -0.0698  0.0365  0.1487
33423ION     NA48892  10.640   5.913   5.905 -0.2430 -0.0445 -0.2486
33424ION     NA48893  17.798   3.078  11.538  0.0121  0.2157  0.1234
33425ION     NA48894  14.919  16.101   6.121 -0.2062 -0.0256  0.3212
33426ION     NA48895  17.333  16.342   5.775 -0.0444  0.0441 -0.1381
33427ION     NA48896   6.513  18.408  10.059 -0.1490 -0.0111  0.1063
33428ION     NA48897  10.376  16.649  10.452 -0.2984 -0.3449 -0.1351
33429ION     NA48898   6.925   6.676  10.335 -0.2367 -0.0860  0.0488
33430ION     NA48899   2.460   3.702   5.228  0.0607  0.2458 -0.0776
33431ION     NA48900   0.790   4.632   1.144  0.0235 -0.0480 -0.1061
33432ION     NA48901  10.424   7.171   2.251  0.2086  0.1336 -0.0171
33433ION     NA48902   1.628  17.689   5.792 -0.0100  0.0151 -0.0058
33434ION     NA48903   5.316   8.080   1.519  0.1673  0.0615 -0.2924
33435ION     NA48904   8.954   5.631  10.466 -0.2315 -0.0306  0.0098
33436ION     NA48905   5.309  17.532   1.252  0.3352  0.2116 -0.2112
33437ION     NA48906  15.281   5.853   9.321 -0.3233  0.1608  0.2102
33438ION     NA48907   1.546   4.724  14.543  0.0012 -0.0351  0.2744
33439ION     NA48908  10.809  12.366  12.430 -0.2462 -0.0568 -0.3852
33440ION     NA48909   2.131   7.587   2.812 -0.0290  0.1322 -0.0062
33441ION     NA48910   7.944  14.013   5.382 -0.1166  0.0486  0.1016
33442ION     NA48911  11.059  13.760  14.833 -0.0516  0.0580 -0.1308
33443ION     NA48912  16.776   8.353   5.054 -0.1187  0.1655 -0.0065
33444ION     NA48913  18.388  14.456  15.538  0.0910  0.1555  0.1728
33445ION     NA48914   2.937   1.016  10.052 -0.0554 -0.0245 -0.1481
33446ION     NA48915   7.642  13.775   9.889 -0.3336 -0.2481 -0.0013
33447ION     NA48916  18.625  12.777   1.915 -0.2553 -0.1507  0.1288
33448ION     NA48917   1.468   3.644   9.555  0.1501 -0.0252  0.0961
33449ION     NA48918  12.361   3.689   3.463 -0.0858  0.0335  0.0148
33450ION     NA48919  14.426   0.500   6.314  0.0830 -0.0230 -0.0183
33451ION     NA48920   0.511   5.896   0.799 -0.0127 -0.0280 -0.0158
33452ION     NA48921   8.919   3.365   5.001 -0.1320  0.0418  0.2331
33453ION     NA48922  12.975   1.084   4.230 -0.1050  0.1740  0.1446
33454ION     NA48923   3.314   0.251  10.049  0.1265 -0.2145  0.1479
33455ION     NA48924  15.795  16.940   2.673 -0.2100  0.0415 -0.1774
33456ION     NA48925  16.940  10.669   5.192  0.1478 -0.0033 -0.2086
33457ION     NA48926  10.571   1.681  15.566  0.0262 -0.0340  0.2542
33458ION     NA48927  13.664  15.281  14.777  0.1425 -0.0970 -0.0353
33459ION     NA48928  13.651   5.056   2.668 -0.0734 -0.1122  0.0465
33460ION     NA48929  18.380  16.604  15.636  0.2180 -0.0141  0.0040
33461ION     NA48930  16.439   0.898   1.488 -0.3080  0.0933  0.1526
33462ION     NA48931   3.180   6.515   0.847 -0.2130  0.0907 -0.0500
33463ION     NA48932  13.086   1.106  15.056 -0.4163  0.1720 -0.0806
33464ION     NA48933  16.713   4.786  15.599 -0.0552  0.1760 -0.1674
33465ION     NA48934  13.272   2.280  15.264  0.3776  0.0675 -0.1109
33466ION     NA48935   1.388   0.666   2.892  0.0909 -0.0184  0.1209
33467ION     NA48936  10.059  15.892  10.327  0.1461  0.2445  0.0685
33468ION     NA48937  13.775  13.003  15.462  0.0369  0.0526 -0.0806
33469ION     NA48938  12.979  18.446  13.993 -0.1378 -0.1385 -0.0456
33470ION     NA48939   8.918   8.479  10.104  0.0024 -0.0167  0.1001
33471ION     NA48940   0.813   9.974   1.520 -0.1684 -0.1024 -0.3035
33472ION     NA48941   9.214  15.281   9.988  0.0335  0.3074  0.1619
33473ION     NA48942   3.406  10.929  14.305 -0.0815  0.2132  0.1462
33474ION     NA48943   8.097   9.398  14.373  0.1312 -0.1022  0.0690
33475ION     NA48944   9.430  11.783   5.600 -0.3977  0.0101  0.1363
33476ION     NA48945   2.556   7.829   9.554  0.0714  0.3215  0.1281
33477ION     NA48946  12.864  16.785  14.543  0.1754  0.0635 -0.1161
33478ION     NA48947  11.614  12.887  15.240 -0.2381  0.1905 -0.2955
33479ION     NA48948   2.061   6.791   4.968 -0.0209  0.0819 -0.3684
33480ION     NA48949   1.053  13.279   9.850 -0.0660 -0.3662 -0.0783
33481ION     NA48950   8.344   1.369  10.461 -0.1907 -0.3006  0.0644
33482ION     NA48951  17.588  10.153   2.164 -0.0420  0.1508 -0.0245
33483ION     NA48952  12.019   4.211  12.775  0.1130 -0.3828 -0.0037
33484ION     NA48953  15.426   9.455  14.620 -0.3738 -0.2272  0.0098
33485ION     NA48954   7.520   7.471   5.615  0.0738  0.1319  0.0102
33486ION     NA48955   9.755  10.992   3.894 -0.0480  0.0966  0.1452
33487ION     NA48956  16.661   2.243   5.921  0.0394  0.2206 -0.0730
33488ION     NA48957   5.403   8.646   4.803 -0.1111 -0.0665 -0.0281
33489ION     NA48958   3.144  11.833   9.701  0.3025  0.1134  0.3284
33490ION     NA48959   4.563  10.185   9.429 -0.1165  0.1255 -0.2723
33491ION     NA48960   8.612  17.633  10.204  0.0419 -0.0977 -0.0422
33492ION     NA48961  12.327   2.434   0.355 -0.0348 -0.0687 -0.0616
33493ION     NA48962   2.938  16.114  10.394  0.1121  0.3394  0.1444
33494ION     NA48963   9.262  12.116  10.035  0.0145  0.0105  0.1564
33495ION     NA48964   0.231  17.174  10.142  0.0646 -0.1291 -0.1880
33496ION     NA48965   3.710   7.955  12.873 -0.2487 -0.1385  0.2915
33497ION     NA48966   1.018   1.269   9.953 -0.0497  0.0930  0.1108
33498ION     NA48967   4.140  17.332  10.220 -0.2803  0.2534 -0.0075
33499ION     NA48968   3.043   4.211   5.457  0.0090 -0.0130 -0.0600
33500ION     NA48969  16.847  18.625   5.688 -0.3902 -0.1828 -0.0370
33501ION     NA48970   9.580   8.053   1.197 -0.0344  0.1623  0.1729
33502ION     NA48971   9.368  15.729   1.569  0.0068 -0.0456  0.0809
33503ION     NA48972  18.204   9.573  14.162 -0.2107 -0.0316  0.3405
33504ION     NA48973  12.196   3.926  13.894  0.4600 -0.1932  0.3148
33505ION     NA48974   3.030   6.857  12.621 -0.0618  0.1762 -0.3571
33506ION     NA48975  12.424  14.839   6.109  0.0673 -0.0840  0.3618
33507ION     NA48976  14.061  16.388   6.376 -0.1843  0.0952 -0.0715
33508ION     NA48977  10.118   0.064   3.394  0.0694  0.2404 -0.1900
33509ION     NA48978  17.173   0.905   6.056  0.0787 -0.1215  0.2283
33510ION     NA48979  12.634  11.685  10.166  0.0817 -0.0489  0.0266
33511ION     NA48980   8.435  15.541  10.022  0.1182  0.1594  0.1152
33512ION     NA48981  12.555   5.675  10.319  0.3636  0.0494  0.0244
33513ION     NA48982  10.873   8.989   5.522 -0.0041  0.0200 -0.4827
33514ION     NA48983  17.791  10.018   9.567  0.2932  0.2526  0.3011
33515ION     NA48984   0.392  12.348   5.619 -0.1107 -0.1410 -0.1781
33516ION     NA48985  10.556  14.452   1.275 -0.3116  0.1679 -0.1565
33517ION     NA48986   7.482   1.315  10.314 -0.0355 -0.0682 -0.0160
33518ION     NA48987   2.668  10.156   0.140  0.0180  0.0554  0.0831
33519ION     NA48988   3.501   3.124   3.558 -0.1578 -0.0717 -0.2181
33520ION     NA48989   5.046   0.326   2.449 -0.0332  0.0503  0.1087
33521ION     NA48990  12.681  14.053   5.032 -0.0571  0.0273 -0.1326
33522ION     NA48991  15.387  17.545   6.009  0.0924 -0.2215 -0.3002
33523ION     NA48992   0.389   3.321   5.548  0.2017 -0.1275 -0.3861
33524ION     NA48993   0.966  16.281   5.824  0.1137  0.2001 -0.0694
33525ION     NA48994   6.926  15.983   3.016 -0.0099 -0.2496 -0.0783
33526ION     NA48995  12.250  14.244   1.559  0.2632 -0.0879 -0.0845
33527ION     NA48996  14.459   0.411  10.329 -0.0823 -0.0033  0.1435
33528ION     NA48997   3.877  13.991   1.040  0.5206  0.5119  0.2276
33529ION     NA48998  11.873   6.327  13.638  0.0745  0.0770 -0.0278
33530ION     NA48999  13.836   8.974   9.714  0.0920  0.1112 -0.1975
33531ION     NA49000   5.036  15.728  10.132 -0.2449 -0.1521  0.2286
33532ION     NA49001  11.887   5.452   6.055  0.0979  0.2123  0.1917
33533ION     NA49002  13.262   0.748  10.398 -0.2318  0.1119 -0.0982
33534ION     NA49003  15.504   1.576  15.739 -0.3121  0.4998 -0.2844
33535ION     NA49004   2.636   2.294   5.469  0.0813 -0.1451 -0.0433
33536ION     NA49005   8.720   9.214  11.213 -0.1274  0.0992  0.0463
33537ION     NA49006  16.066  17.987   0.826 -0.1507 -0.0373  0.2098
33538ION     NA49007  17.377   1.807  10.077 -0.1694  0.1407  0.0915
33539ION     NA49008  13.515   2.284  14.310  0.0233  0.1978 -0.0225
33540ION     NA49009   5.075   9.890   4.233 -0.1045  0.1215 -0.2844
33541ION     NA49010   7.407  10.900   5.550 -0.1405  0.0834 -0.2645
33542ION     NA49011  12.012  18.112  13.584 -0.1854  0.1365  0.1493
33543ION     NA49012   6.026  15.405   6.021  0.0879 -0.1894  0.3296
33544ION     NA49013   9.090   3.944  10.357  0.0969 -0.1673 -0.1998
33545ION     NA49014   4.154   9.052  11.465  0.3690 -0.2158 -0.2053
33546ION     NA49015  17.698  17.459   9.980 -0.1212 -0.1347  0.0356
33547ION     NA49016   9.553   1.126   4.110 -0.1395 -0.0138 -0.0507
33548ION     NA49017   9.655   4.890   6.192 -0.0848 -0.2498  0.2961
33549ION     NA49018   3.388   1.004   0.363  0.0809  0.0301  0.1633
33550ION     NA49019   8.792  15.736  13.862 -0.0182 -0.1494 -0.0476
33551ION     NA49020   6.860  18.161   5.827 -0.1779  0.1295 -0.1157
33552ION     NA49021  10.775   1.100   1.481 -0.2664  0.0249  0.1796
33553ION     NA49022  15.641   5.299   4.899  0.1863  0.0802 -0.1515
33554ION     NA49023  16.388  16.880  10.052  0.4001 -0.1680  0.3252
33555ION     NA49024  15.781  13.032   9.979  0.1087  0.2260 -0.4928
33556ION     NA49025  15.862   7.111  15.381 -0.0380  0.1656 -0.0343
33557ION     NA49026   9.239  16.224   3.388 -0.1202 -0.0233  0.1716
33558ION     NA49027  14.118  17.442  13.261 -0.1373  0.1320 -0.1742
33559ION     NA49028  15.427  14.283  10.399  0.1018  0.0654 -0.1997
33560ION     NA49029  18.271   6.942   2.444 -0.0690  0.0660 -0.2468
33561ION     NA49030  10.723  13.378   3.655  0.1277 -0.1496 -0.0531
33562ION     NA49031  12.062  10.627  12.768 -0.0879  0.1738  0.0953
33563ION     NA49032  14.822   2.065   2.160 -0.0929  0.2532 -0.1572
33564ION     NA49033   6.019   1.459   0.336 -0.0642 -0.0838  0.3963
33565ION     NA49034   9.034   3.167   1.359  0.5261 -0.1069 -0.1086
33566ION     NA49035  11.769   6.609   2.892  0.2775  0.0328 -0.0454
33567ION     NA49036  18.247   4.410   9.397 -0.2705 -0.1343  0.1278
33568ION     NA49037  17.890  13.927  12.674  0.0828  0.0174 -0.0161
33569ION     NA49038  12.955   6.442  15.700 -0.1000 -0.2098 -0.3096
33570ION     NA49039  15.726   0.361  10.028  0.2343 -0.0970 -0.2047
33571ION     NA49040   3.486  14.504   5.890  0.2865 -0.3653  0.4085
33572ION     NA49041   0.137  10.483   2.261  0.0351  0.0163 -0.0617
33573ION     NA49042  16.084   6.799   1.929  0.2819  0.3443  0.0396
33574ION     NA49043  14.899  17.795  15.127  0.2317  0.2468 -0.0887
33575ION     NA49044  18.356  12.169   1.426 -0.0020  0.0287  0.0173
33576ION     NA49045   2.585   0.681  12.676  0.0501  0.3344 -0.1144
33577ION     NA49046  16.266   9.442   9.924  0.0776 -0.1851  0.1417
33578ION     NA49047   8.669  16.394   5.921 -0.3349 -0.0220  0.1640
33579ION     NA49048   1.058  16.707   9.933  0.2160  0.1351 -0.0342
33580ION     NA49049   4.772   2.879  10.110 -0.1370  0.1319  0.0664
33581ION     NA49050   8.190  17.543  11.579 -0.1008  0.2105 -0.0144
33582ION     NA49051   5.729   3.921   1.723  0.1497 -0.1667 -0.0051
33583ION     NA49052   3.360  11.014   9.898  0.0575  0.0875  0.0070
33584ION     NA49053   7.564  10.954   0.314 -0.3220  0.0760 -0.1436
33585ION     NA49054  18.445  14.728   0.821 -0.3270  0.1310  0.3651
33586ION     NA49055   3.439   8.093   4.564  0.2058 -0.0711  0.0737
33587ION     NA49056  11.847   0.318  13.824 -0.1509  0.1010  0.4274
33588ION     NA49057  15.708  12.065  11.367  0.0376 -0.0995  0.0108
33589ION     NA49058  10.096  14.598   5.584  0.3797 -0.0689  0.0674
33590ION     NA49059   2.457   1.261  11.274  0.4046  0.0877 -0.0456
33591ION     NA49060  14.971  17.262  11.349  0.4819  0.0641  0.1628
33592ION     NA49061  11.592  14.086  11.830  0.4576 -0.1282 -0.0508
33593ION     NA49062   7.649  11.490   3.464  0.0650 -0.0270 -0.1032
33594ION     NA49063   6.870   1.891   4.692 -0.2113 -0.0296 -0.0417
33595ION     NA49064   5.355  14.538   0.594 -0.1180 -0.1848 -0.0395
33596ION     NA49065   6.141   5.054  15.654 -0.3507 -0.2173 -0.1241
33597ION     NA49066   3.194   9.492  13.384 -0.0919  0.3602 -0.0886
33598ION     NA49067  18.380  18.280   2.180 -0.1417  0.2178  0.4871
33599ION     NA49068  10.930   4.245  10.334  0.2723 -0.1945 -0.0298
33600ION     NA49069  16.887   2.325   0.736  0.0638 -0.2074 -0.0423
33601ION     NA49070  15.470  10.196  10.087 -0.0272 -0.0921 -0.0912
33602ION     NA49071   6.711  12.838   5.511 -0.0722  0.1812 -0.1019
33603ION     NA49072  14.298   4.546   3.220 -0.1787 -0.0772  0.0067
33604ION     NA49073   5.499   5.745   5.633  0.1998  0.1532  0.1470
33605ION     NA49074  12.489   8.508   4.534 -0.1624 -0.0649 -0.1221
  18.62548  18.62548  15.78019
